INSANE! Membrane UpperLeaflet>M3.DOPC:M3.DOPS=75.0:25.0 LowerLeaflet>M3.DOPC:M3.DOPS=75.0:25.0
56748
    1DOPC   NC3    1   6.222   1.461  15.255  0.2146 -0.0479 -0.1678
    1DOPC   PO4    2   6.165   1.779  15.055 -0.0414  0.0503  0.2124
    1DOPC   GL1    3   6.164   1.777  14.575  0.1220  0.1581 -0.1765
    1DOPC   GL2    4   5.917   1.613  14.631 -0.2362  0.3812  0.0309
    1DOPC   C1A    5   6.296   1.504  14.239 -0.0115 -0.1262  0.1527
    1DOPC   D2A    6   6.779   1.522  14.036 -0.0742  0.1541  0.0394
    1DOPC   C3A    7   6.974   1.565  13.638 -0.5282  0.0479  0.0262
    1DOPC   C4A    8   7.332   1.516  13.240 -0.0490 -0.2994  0.3075
    1DOPC   C1B    9   5.781   1.436  14.276  0.2314 -0.0393 -0.1855
    1DOPC   D2B   10   5.529   1.168  13.903 -0.1752  0.1590  0.0974
    1DOPC   C3B   11   5.199   1.164  13.590  0.0691  0.3080  0.0596
    1DOPC   C4B   12   4.932   0.886  13.248  0.1821  0.1010 -0.0211
    2DOPC   NC3   13  21.296   3.078  14.979 -0.2084  0.2216  0.0799
    2DOPC   PO4   14  21.157   3.402  15.125  0.1502 -0.0775  0.1911
    2DOPC   GL1   15  20.970   3.404  14.653 -0.0657  0.0260 -0.2504
    2DOPC   GL2   16  20.832   3.225  14.751 -0.1185  0.3666 -0.1950
    2DOPC   C1A   17  21.222   3.401  14.305  0.5736  0.0024 -0.0522
    2DOPC   D2A   18  21.377   3.617  13.910 -0.0193 -0.1830 -0.0309
    2DOPC   C3A   19  21.441   3.627  13.448  0.3306  0.0093 -0.0125
    2DOPC   C4A   20  21.452   3.875  13.005  0.4094  0.2859  0.2383
    2DOPC   C1B   21  21.045   2.973  14.434  0.1460  0.0096 -0.0628
    2DOPC   D2B   22  21.444   2.914  14.167  0.1555  0.1000 -0.0021
    2DOPC   C3B   23  21.199   3.145  13.881  0.2647  0.2172 -0.1078
    2DOPC   C4B   24  20.885   3.464  13.676 -0.2229  0.1572 -0.0431
    3DOPC   NC3   25  10.675   2.085  15.004  0.0602  0.1467 -0.1778
    3DOPC   PO4   26  10.303   2.192  14.912  0.1462  0.2450  0.3105
    3DOPC   GL1   27  10.337   2.380  14.510  0.0447  0.2833 -0.1070
    3DOPC   GL2   28  10.046   2.460  14.628 -0.0570 -0.1684 -0.2504
    3DOPC   C1A   29  10.506   2.289  14.080 -0.1653  0.2629  0.1908
    3DOPC   D2A   30  10.388   2.189  13.627 -0.0847 -0.3197  0.3451
    3DOPC   C3A   31  10.218   2.143  13.179  0.2673  0.4063 -0.0677
    3DOPC   C4A   32   9.890   1.886  12.832 -0.0867  0.0277  0.1099
    3DOPC   C1B   33   9.915   2.826  14.368 -0.0327  0.0410 -0.1864
    3DOPC   D2B   34  10.066   3.102  13.950 -0.1371  0.0642  0.1218
    3DOPC   C3B   35   9.993   2.993  13.497 -0.0291  0.0478 -0.0439
    3DOPC   C4B   36  10.129   2.761  13.116  0.2165  0.0342  0.1125
    4DOPC   NC3   37   2.290   3.605  15.912  0.0186  0.0696  0.0131
    4DOPC   PO4   38   2.154   3.948  15.731 -0.0619  0.0254 -0.1778
    4DOPC   GL1   39   2.092   3.927  15.266  0.1134 -0.0043 -0.0969
    4DOPC   GL2   40   2.087   4.231  15.314 -0.1824  0.2117  0.2882
    4DOPC   C1A   41   2.287   3.767  14.933 -0.0390 -0.2060  0.0997
    4DOPC   D2A   42   2.591   3.732  14.564  0.1886 -0.1078 -0.1090
    4DOPC   C3A   43   2.767   3.518  14.224  0.1267 -0.0060  0.0781
    4DOPC   C4A   44   2.780   3.197  13.892 -0.1189 -0.0367  0.0247
    4DOPC   C1B   45   2.309   4.451  15.039  0.0239 -0.3068 -0.2023
    4DOPC   D2B   46   2.669   4.766  14.853 -0.0336  0.2257  0.0206
    4DOPC   C3B   47   2.732   4.715  14.417  0.1142 -0.0684  0.0987
    4DOPC   C4B   48   2.779   4.717  13.936  0.0559 -0.0310 -0.0020
    5DOPC   NC3   49   8.120   0.784  14.797 -0.0249  0.2882 -0.0524
    5DOPC   PO4   50   8.258   0.473  14.562  0.1604  0.1609 -0.0738
    5DOPC   GL1   51   7.919   0.443  14.374  0.3305 -0.5456  0.2964
    5DOPC   GL2   52   7.987   0.730  14.326  0.2350 -0.0643 -0.1214
    5DOPC   C1A   53   7.676   0.507  13.962  0.1479  0.2013  0.0965
    5DOPC   D2A   54   7.736   0.438  13.451 -0.3363  0.6213  0.1405
    5DOPC   C3A   55   7.935   0.393  13.070 -0.1454 -0.1394 -0.1947
    5DOPC   C4A   56   8.273   0.371  12.753 -0.0754 -0.0609 -0.2226
    5DOPC   C1B   57   8.153   0.755  13.900  0.1994  0.0314  0.3480
    5DOPC   D2B   58   8.150   0.965  13.447  0.0592 -0.0748 -0.0997
    5DOPC   C3B   59   8.455   0.783  13.131  0.0869 -0.1527 -0.0428
    5DOPC   C4B   60   8.420   0.871  12.662 -0.1930  0.1217  0.4914
    6DOPC   NC3   61   1.594   1.046  15.926 -0.0602  0.1023 -0.0687
    6DOPC   PO4   62   1.419   0.673  15.856  0.0949  0.1425 -0.2602
    6DOPC   GL1   63   1.665   0.628  15.490 -0.0845  0.1995  0.1270
    6DOPC   GL2   64   1.668   0.390  15.519  0.0076  0.4298 -0.3853
    6DOPC   C1A   65   1.548   0.688  15.054  0.0931  0.1196 -0.3202
    6DOPC   D2A   66   1.399   0.431  14.635  0.1029  0.0991 -0.0071
    6DOPC   C3A   67   1.489   0.304  14.214  0.0075 -0.1612  0.1836
    6DOPC   C4A   68   1.497  -0.031  13.869  0.0915 -0.0091  0.0482
    6DOPC   C1B   69   1.677   0.165  15.127 -0.0655 -0.2690  0.0535
    6DOPC   D2B   70   1.676   0.009  14.637 -0.0725  0.0232 -0.0636
    6DOPC   C3B   71   1.718  -0.272  14.359 -0.1095  0.0562 -0.2077
    6DOPC   C4B   72   1.634  -0.473  14.013 -0.0057  0.0653  0.2341
    7DOPC   NC3   73   4.288   0.558  15.595  0.1466  0.0491 -0.0122
    7DOPC   PO4   74   4.601   0.401  15.379 -0.1783 -0.0630 -0.0075
    7DOPC   GL1   75   4.628   0.611  15.082  0.2797 -0.2295  0.0142
    7DOPC   GL2   76   4.911   0.584  14.927  0.0362  0.0996  0.1656
    7DOPC   C1A   77   4.627   0.976  14.747 -0.0235  0.4858  0.0572
    7DOPC   D2A   78   4.367   1.334  14.431  0.1027  0.2300 -0.1187
    7DOPC   C3A   79   4.560   1.531  14.095  0.4734  0.1942  0.3406
    7DOPC   C4A   80   4.856   1.600  13.765  0.2096 -0.0685 -0.1869
    7DOPC   C1B   81   4.952   0.619  14.457  0.2650 -0.1497  0.1424
    7DOPC   D2B   82   4.825   0.678  13.969  0.4174 -0.1312 -0.0548
    7DOPC   C3B   83   4.470   0.525  13.730 -0.0783 -0.0207  0.3034
    7DOPC   C4B   84   4.124   0.908  13.618 -0.0202  0.2239  0.1675
    8DOPC   NC3   85   0.192   5.021  15.784 -0.0223 -0.2295  0.1897
    8DOPC   PO4   86   0.104   4.918  15.394  0.2019 -0.2030  0.0678
    8DOPC   GL1   87   0.102   5.066  14.981  0.0800 -0.0360  0.1075
    8DOPC   GL2   88   0.062   5.331  15.156 -0.0260  0.1497 -0.0966
    8DOPC   C1A   89   0.329   5.014  14.570  0.0079 -0.0541 -0.2673
    8DOPC   D2A   90   0.498   5.134  14.125 -0.1316  0.0162  0.0002
    8DOPC   C3A   91   0.611   4.871  13.745  0.1368  0.1774  0.3705
    8DOPC   C4A   92   0.365   4.890  13.404  0.1376 -0.0179 -0.0431
    8DOPC   C1B   93  -0.020   5.807  15.048  0.1574  0.0689 -0.3113
    8DOPC   D2B   94  -0.307   6.238  15.130  0.0293  0.2849 -0.0225
    8DOPC   C3B   95  -0.160   6.311  14.766  0.1537  0.0858  0.4633
    8DOPC   C4B   96  -0.005   6.489  14.330 -0.3405 -0.1405 -0.1886
    9DOPC   NC3   97   0.414   5.981  15.250  0.0964  0.2852 -0.1700
    9DOPC   PO4   98   0.650   6.064  15.567 -0.2345 -0.1493  0.1109
    9DOPC   GL1   99   1.026   6.119  15.349  0.0690 -0.0643  0.1770
    9DOPC   GL2  100   0.833   6.265  15.177  0.0396 -0.1123  0.1987
    9DOPC   C1A  101   1.247   5.884  15.104  0.2938 -0.2410  0.0679
    9DOPC   D2A  102   1.258   5.781  14.579 -0.0656  0.1403  0.3560
    9DOPC   C3A  103   1.276   5.968  14.136  0.2342 -0.1086  0.1879
    9DOPC   C4A  104   1.004   6.113  13.816 -0.0336  0.1835 -0.1216
    9DOPC   C1B  105   1.048   6.306  14.776 -0.0513 -0.0009  0.0607
    9DOPC   D2B  106   0.902   6.179  14.344 -0.0290  0.1024 -0.0245
    9DOPC   C3B  107   1.163   6.476  14.118 -0.1570 -0.0728 -0.3298
    9DOPC   C4B  108   1.256   6.466  13.602 -0.0041 -0.1690 -0.1032
   10DOPC   NC3  109  27.572   6.397  15.045  0.4913  0.0711  0.2356
   10DOPC   PO4  110  27.822   6.658  15.085 -0.0878 -0.0233  0.0531
   10DOPC   GL1  111  28.002   6.680  14.639 -0.0064 -0.3925  0.1723
   10DOPC   GL2  112  27.768   6.578  14.687  0.4078 -0.3399 -0.0416
   10DOPC   C1A  113  27.972   6.709  14.176  0.0853  0.2777 -0.2941
   10DOPC   D2A  114  27.938   6.610  13.718  0.1716 -0.1974 -0.1165
   10DOPC   C3A  115  27.939   6.569  13.242 -0.1218  0.1480  0.0448
   10DOPC   C4A  116  28.015   6.505  12.780  0.2317 -0.1356 -0.2603
   10DOPC   C1B  117  27.793   6.265  14.427 -0.0243  0.0277  0.3468
   10DOPC   D2B  118  27.842   6.155  13.985 -0.0829 -0.2598  0.1017
   10DOPC   C3B  119  27.875   5.961  13.571  0.2259 -0.2810  0.1097
   10DOPC   C4B  120  27.934   6.054  13.115  0.0272 -0.0736 -0.2500
   11DOPC   NC3  121   9.271   0.378  14.777 -0.1273 -0.0333  0.1348
   11DOPC   PO4  122   8.990   0.150  14.890  0.0138 -0.1332  0.2013
   11DOPC   GL1  123   8.675   0.268  14.529 -0.1814 -0.0113  0.2327
   11DOPC   GL2  124   8.857   0.515  14.508 -0.3135 -0.0082 -0.0912
   11DOPC   C1A  125   8.659   0.350  14.040 -0.4967 -0.1795 -0.4538
   11DOPC   D2A  126   8.555   0.551  13.671  0.3256  0.0313  0.0505
   11DOPC   C3A  127   8.518   0.333  13.304 -0.1841  0.0183 -0.1016
   11DOPC   C4A  128   8.632   0.004  12.943 -0.3740  0.1368  0.3823
   11DOPC   C1B  129   9.144   0.528  14.196 -0.0358  0.2301  0.2130
   11DOPC   D2B  130   9.503   0.546  13.840  0.0285  0.1475 -0.4149
   11DOPC   C3B  131   9.587   0.595  13.371  0.2850  0.0577 -0.0243
   11DOPC   C4B  132   9.440   0.654  12.894 -0.0470  0.1063 -0.0495
   12DOPC   NC3  133   6.652   2.050  15.028  0.2412 -0.3593  0.3519
   12DOPC   PO4  134   6.978   1.837  14.952  0.0974  0.1788  0.0735
   12DOPC   GL1  135   7.015   2.006  14.551  0.0405 -0.3771 -0.0078
   12DOPC   GL2  136   6.692   2.028  14.565 -0.1174 -0.2401  0.2136
   12DOPC   C1A  137   7.089   1.928  14.121 -0.1682 -0.1331 -0.0676
   12DOPC   D2A  138   6.834   2.034  13.736 -0.0701 -0.2113  0.1060
   12DOPC   C3A  139   6.624   2.190  13.329 -0.2145 -0.0259 -0.0603
   12DOPC   C4A  140   6.351   2.390  12.952  0.0907  0.3086  0.0636
   12DOPC   C1B  141   6.545   1.957  14.100  0.1828  0.2715  0.0648
   12DOPC   D2B  142   6.448   1.668  13.706 -0.1446 -0.1221 -0.0889
   12DOPC   C3B  143   6.398   1.772  13.292  0.1794 -0.0913  0.0827
   12DOPC   C4B  144   6.090   1.960  13.005  0.2230 -0.0265 -0.1912
   13DOPC   NC3  145  27.233   0.509  14.819  0.3367 -0.2325  0.1029
   13DOPC   PO4  146  26.937   0.233  14.816  0.0016 -0.2038  0.2627
   13DOPC   GL1  147  26.870   0.164  14.363  0.1257 -0.0551 -0.1325
   13DOPC   GL2  148  27.213   0.175  14.314  0.0040  0.1464 -0.0788
   13DOPC   C1A  149  26.877  -0.168  14.081  0.0315 -0.0489 -0.0105
   13DOPC   D2A  150  27.178  -0.257  13.697 -0.0442 -0.1275 -0.1052
   13DOPC   C3A  151  27.560  -0.275  13.423  0.1167 -0.0039 -0.2113
   13DOPC   C4A  152  27.805  -0.528  13.093 -0.0640 -0.3402  0.0131
   13DOPC   C1B  153  27.362   0.519  14.099  0.2885 -0.4118 -0.2313
   13DOPC   D2B  154  27.476   0.968  14.093 -0.1411  0.1266 -0.1721
   13DOPC   C3B  155  27.945   0.941  13.912 -0.0744  0.1953  0.0997
   13DOPC   C4B  156  28.107   0.705  13.521 -0.0780 -0.0034  0.1017
   14DOPC   NC3  157  23.189   2.666  15.502 -0.1822 -0.0516  0.2112
   14DOPC   PO4  158  23.479   2.661  15.225 -0.0980  0.1426 -0.2279
   14DOPC   GL1  159  23.189   2.592  14.902 -0.1661  0.1798  0.0746
   14DOPC   GL2  160  23.039   2.791  15.064  0.2239 -0.0799 -0.0598
   14DOPC   C1A  161  23.217   2.635  14.448 -0.0210  0.0616 -0.1914
   14DOPC   D2A  162  22.838   2.712  14.165  0.2399  0.1242 -0.1802
   14DOPC   C3A  163  22.679   2.410  13.842  0.3596 -0.1970 -0.0942
   14DOPC   C4A  164  22.486   2.226  13.415 -0.0502  0.1184  0.4555
   14DOPC   C1B  165  23.099   3.056  14.689 -0.0260 -0.0342  0.1244
   14DOPC   D2B  166  23.204   3.128  14.193 -0.0535  0.1624 -0.2543
   14DOPC   C3B  167  23.206   3.480  13.912 -0.2590  0.0771 -0.4455
   14DOPC   C4B  168  23.258   3.840  13.593  0.2051  0.0531 -0.3179
   15DOPC   NC3  169   8.509   4.659  15.030  0.3206 -0.4496 -0.0180
   15DOPC   PO4  170   8.567   5.019  15.164  0.2633 -0.2410  0.1481
   15DOPC   GL1  171   8.687   5.174  14.729 -0.2675  0.1973  0.1823
   15DOPC   GL2  172   8.484   5.070  14.642  0.1682 -0.0242  0.0317
   15DOPC   C1A  173   8.761   5.412  14.419  0.2460  0.0483  0.2104
   15DOPC   D2A  174   8.816   5.511  13.965  0.0467 -0.0408  0.2873
   15DOPC   C3A  175   9.112   5.464  13.631 -0.1019  0.0498  0.1149
   15DOPC   C4A  176   9.648   5.670  13.683  0.2088 -0.3570  0.3178
   15DOPC   C1B  177   8.367   5.158  14.218 -0.1461  0.1661 -0.3862
   15DOPC   D2B  178   8.386   5.232  13.789 -0.1234  0.2258  0.2103
   15DOPC   C3B  179   8.613   5.259  13.410  0.0666 -0.0015 -0.0228
   15DOPC   C4B  180   8.530   5.471  12.987 -0.0482  0.2017 -0.1246
   16DOPC   NC3  181   3.147   2.313  15.518  0.2356 -0.1390  0.1239
   16DOPC   PO4  182   3.435   2.010  15.417 -0.1821  0.0205 -0.2129
   16DOPC   GL1  183   3.557   1.797  15.045 -0.2695  0.0474  0.1915
   16DOPC   GL2  184   3.246   1.849  14.999  0.2489  0.0202  0.2418
   16DOPC   C1A  185   3.763   2.071  14.749 -0.0015  0.0085  0.0448
   16DOPC   D2A  186   3.682   2.482  14.464 -0.1729  0.0864 -0.0303
   16DOPC   C3A  187   3.527   2.385  14.067  0.3396  0.0565 -0.0715
   16DOPC   C4A  188   3.444   2.539  13.576 -0.2680  0.0353  0.0887
   16DOPC   C1B  189   3.284   1.931  14.548 -0.1909  0.3671 -0.0315
   16DOPC   D2B  190   3.655   1.994  14.269 -0.1693  0.0530 -0.1656
   16DOPC   C3B  191   3.419   1.870  13.831  0.0223  0.3219 -0.0547
   16DOPC   C4B  192   3.576   1.741  13.380  0.1335  0.0743 -0.1576
   17DOPC   NC3  193   7.344   7.532  15.415 -0.1676 -0.2631  0.3224
   17DOPC   PO4  194   7.214   7.233  15.181 -0.1081 -0.2562 -0.2012
   17DOPC   GL1  195   7.236   7.307  14.739 -0.0241  0.2590 -0.3145
   17DOPC   GL2  196   6.951   7.395  14.749  0.1445  0.0184  0.0456
   17DOPC   C1A  197   7.174   6.911  14.488  0.0388  0.0773 -0.4918
   17DOPC   D2A  198   7.168   6.519  14.164  0.2391  0.1747 -0.1229
   17DOPC   C3A  199   7.308   6.396  13.721 -0.1715  0.1717  0.1487
   17DOPC   C4A  200   7.410   6.312  13.271  0.2541 -0.2273 -0.1664
   17DOPC   C1B  201   6.828   7.306  14.323  0.0427 -0.1518 -0.0443
   17DOPC   D2B  202   6.764   7.334  13.809  0.0047 -0.0524  0.3337
   17DOPC   C3B  203   6.903   7.128  13.425  0.1438  0.0411 -0.0084
   17DOPC   C4B  204   7.074   6.699  13.286 -0.2875  0.0254 -0.2143
   18DOPC   NC3  205  23.771   7.541  15.050 -0.1419  0.1315 -0.3763
   18DOPC   PO4  206  23.489   7.567  14.751 -0.0541 -0.0006  0.0543
   18DOPC   GL1  207  23.579   7.778  14.388  0.2453 -0.1154  0.0285
   18DOPC   GL2  208  23.634   7.473  14.317 -0.4008  0.0541  0.1344
   18DOPC   C1A  209  23.399   8.053  14.133 -0.0665  0.1437 -0.3436
   18DOPC   D2A  210  23.031   8.234  13.871  0.0344  0.3098 -0.0431
   18DOPC   C3A  211  23.096   8.478  13.487  0.0242  0.0555  0.2347
   18DOPC   C4A  212  23.248   8.598  13.009 -0.0328 -0.1311 -0.5007
   18DOPC   C1B  213  23.632   7.425  13.885  0.0301 -0.0757  0.2859
   18DOPC   D2B  214  23.868   7.554  13.546 -0.0416 -0.1110 -0.0060
   18DOPC   C3B  215  24.263   7.430  13.306  0.0341 -0.1896  0.0433
   18DOPC   C4B  216  24.577   7.459  12.894 -0.4901  0.0224  0.1041
   19DOPC   NC3  217  12.490   3.785  15.183 -0.1998  0.0212 -0.1639
   19DOPC   PO4  218  12.282   3.475  15.270 -0.0624 -0.0412  0.0199
   19DOPC   GL1  219  12.274   3.278  14.949 -0.0533 -0.0344 -0.5082
   19DOPC   GL2  220  12.477   3.316  14.830  0.1305 -0.0795  0.0405
   19DOPC   C1A  221  12.148   2.981  14.662 -0.0047  0.0347  0.0260
   19DOPC   D2A  222  12.231   2.959  14.222  0.3192  0.1352 -0.0755
   19DOPC   C3A  223  12.081   2.947  13.789 -0.1285 -0.1585 -0.4680
   19DOPC   C4A  224  11.818   3.056  13.355 -0.0355 -0.0579 -0.0016
   19DOPC   C1B  225  12.570   3.756  14.646  0.1980  0.1159  0.0600
   19DOPC   D2B  226  12.813   4.181  14.601  0.0292 -0.2107 -0.0692
   19DOPC   C3B  227  12.730   4.429  14.216  0.2630  0.1218  0.0135
   19DOPC   C4B  228  12.706   4.428  13.749  0.0891 -0.0254  0.0929
   20DOPC   NC3  229   4.105   5.669  15.951  0.0365  0.0824 -0.0168
   20DOPC   PO4  230   3.812   5.693  15.686  0.1812 -0.2007 -0.0786
   20DOPC   GL1  231   3.885   5.576  15.262 -0.0399 -0.0471 -0.3536
   20DOPC   GL2  232   3.857   5.838  15.207 -0.0654  0.1225 -0.0571
   20DOPC   C1A  233   3.910   5.500  14.822  0.0993 -0.1343  0.0758
   20DOPC   D2A  234   3.854   5.348  14.357  0.1814  0.1193 -0.0845
   20DOPC   C3A  235   3.716   5.103  13.968  0.0399 -0.0260 -0.2639
   20DOPC   C4A  236   3.911   5.192  13.586 -0.1302  0.1381 -0.0508
   20DOPC   C1B  237   4.083   6.029  14.925  0.0727  0.0642  0.0949
   20DOPC   D2B  238   4.305   6.212  14.531  0.0055 -0.1352  0.1075
   20DOPC   C3B  239   4.038   6.391  14.170  0.2697  0.0097  0.0436
   20DOPC   C4B  240   3.928   6.796  14.036  0.0087 -0.2696  0.2592
   21DOPC   NC3  241  20.610   5.516  14.639  0.1619 -0.1336  0.2989
   21DOPC   PO4  242  20.286   5.734  14.676  0.1329  0.3004  0.1573
   21DOPC   GL1  243  20.197   5.735  14.220 -0.0436 -0.0832  0.0247
   21DOPC   GL2  244  20.002   5.518  14.327 -0.0064 -0.1399 -0.1017
   21DOPC   C1A  245  20.405   5.987  13.836  0.1379 -0.1539 -0.1593
   21DOPC   D2A  246  20.855   5.981  13.676  0.1100  0.1493 -0.1135
   21DOPC   C3A  247  21.141   5.680  13.415  0.3016 -0.0164 -0.4433
   21DOPC   C4A  248  21.032   5.576  12.918 -0.2960 -0.0883 -0.2215
   21DOPC   C1B  249  19.723   5.274  14.102  0.0107 -0.1743  0.2022
   21DOPC   D2B  250  19.379   4.945  13.896 -0.2699 -0.1159  0.0884
   21DOPC   C3B  251  19.277   4.835  13.525  0.3501  0.0722 -0.4146
   21DOPC   C4B  252  19.059   4.686  13.088  0.0729  0.1759  0.1773
   22DOPC   NC3  253   8.168   2.978  14.775 -0.1981 -0.0870 -0.0036
   22DOPC   PO4  254   7.833   2.811  14.938  0.0058 -0.0988 -0.1375
   22DOPC   GL1  255   7.601   2.725  14.554 -0.2768  0.2367 -0.2322
   22DOPC   GL2  256   7.889   2.796  14.420 -0.2143 -0.2787  0.1121
   22DOPC   C1A  257   7.320   2.835  14.191 -0.2207  0.0750 -0.1987
   22DOPC   D2A  258   7.101   2.910  13.757  0.2494 -0.0425  0.1157
   22DOPC   C3A  259   7.127   3.068  13.303 -0.0730  0.1129 -0.2221
   22DOPC   C4A  260   7.253   2.810  12.907  0.3489  0.1696 -0.1153
   22DOPC   C1B  261   8.025   2.842  13.988 -0.0627  0.0836  0.2654
   22DOPC   D2B  262   7.989   2.770  13.416  0.2524  0.2785 -0.0926
   22DOPC   C3B  263   8.122   3.138  13.083  0.0252  0.0691 -0.1506
   22DOPC   C4B  264   8.216   3.593  12.850 -0.1334  0.2866  0.0504
   23DOPC   NC3  265   6.455   6.367  14.961 -0.1951 -0.4484  0.0958
   23DOPC   PO4  266   6.638   6.622  15.210  0.2009 -0.1139 -0.3305
   23DOPC   GL1  267   6.697   6.998  14.992  0.1539  0.0660  0.1059
   23DOPC   GL2  268   6.787   6.753  14.816  0.1242 -0.2922  0.1067
   23DOPC   C1A  269   6.490   7.277  14.706  0.1020 -0.0846  0.1164
   23DOPC   D2A  270   6.227   7.612  14.626 -0.1199  0.1646  0.0626
   23DOPC   C3A  271   6.048   7.752  14.235  0.0858 -0.2432  0.2231
   23DOPC   C4A  272   6.035   7.994  13.784 -0.2208  0.1287  0.1754
   23DOPC   C1B  273   6.553   6.787  14.483  0.0945 -0.0457 -0.1455
   23DOPC   D2B  274   6.534   6.880  13.957 -0.1609  0.0284  0.0412
   23DOPC   C3B  275   6.248   6.654  13.705 -0.2709  0.1637  0.1028
   23DOPC   C4B  276   5.781   6.468  13.750  0.0711 -0.0493  0.1806
   24DOPC   NC3  277  19.911   4.119  15.392  0.1009  0.1749  0.0410
   24DOPC   PO4  278  19.718   4.100  15.044  0.2678 -0.3156 -0.0443
   24DOPC   GL1  279  19.744   3.995  14.618 -0.1469 -0.0725 -0.0025
   24DOPC   GL2  280  19.920   4.257  14.531  0.0437 -0.2105 -0.3954
   24DOPC   C1A  281  19.497   3.863  14.271  0.3895 -0.1493  0.1620
   24DOPC   D2A  282  19.226   3.574  13.948  0.2985  0.0158 -0.0485
   24DOPC   C3A  283  19.181   3.646  13.469 -0.3093  0.2781 -0.1437
   24DOPC   C4A  284  19.199   3.742  12.992 -0.1679 -0.0006 -0.3778
   24DOPC   C1B  285  19.920   4.125  14.162  0.2546 -0.3221 -0.2340
   24DOPC   D2B  286  20.045   4.097  13.634 -0.0747  0.0832 -0.1176
   24DOPC   C3B  287  20.151   3.858  13.259  0.2433  0.0902 -0.1142
   24DOPC   C4B  288  20.538   3.650  13.085 -0.1284 -0.0640  0.0246
   25DOPC   NC3  289  20.636   7.301  14.601 -0.2507 -0.0464 -0.1302
   25DOPC   PO4  290  20.661   6.973  14.420 -0.0018  0.1710  0.0373
   25DOPC   GL1  291  20.536   6.906  14.009  0.1896  0.1438  0.1867
   25DOPC   GL2  292  20.815   6.839  13.918 -0.1676 -0.1175  0.1154
   25DOPC   C1A  293  20.238   6.754  13.707  0.0246  0.1169  0.1040
   25DOPC   D2A  294  20.122   6.793  13.197 -0.2797  0.3407  0.0095
   25DOPC   C3A  295  19.934   7.095  12.878  0.0833  0.3851 -0.0698
   25DOPC   C4A  296  19.622   7.445  12.709 -0.3824 -0.1224  0.1664
   25DOPC   C1B  297  20.838   6.863  13.503  0.3091 -0.0732 -0.0366
   25DOPC   D2B  298  20.662   7.013  13.097 -0.0761 -0.3609  0.0373
   25DOPC   C3B  299  20.516   6.680  12.759 -0.1634 -0.0724  0.1096
   25DOPC   C4B  300  20.327   6.629  12.268 -0.2829 -0.0754  0.2173
   26DOPC   NC3  301   4.116   1.633  15.889  0.1214  0.1073  0.1614
   26DOPC   PO4  302   4.409   1.741  15.647 -0.0620 -0.0511 -0.1778
   26DOPC   GL1  303   4.362   1.576  15.250  0.1556  0.0027 -0.3813
   26DOPC   GL2  304   4.211   1.336  15.345 -0.1203 -0.1438 -0.1224
   26DOPC   C1A  305   4.676   1.455  14.946  0.5423  0.0055 -0.2504
   26DOPC   D2A  306   4.921   1.423  14.480  0.1344 -0.2998  0.1509
   26DOPC   C3A  307   5.306   1.589  14.249 -0.2080 -0.0040  0.0706
   26DOPC   C4A  308   5.470   1.740  13.822 -0.1435 -0.1451 -0.0742
   26DOPC   C1B  309   4.183   1.213  14.872  0.0951  0.1182 -0.0560
   26DOPC   D2B  310   3.945   1.023  14.503 -0.0563 -0.1817  0.0841
   26DOPC   C3B  311   3.774   1.075  14.097  0.2030 -0.0784  0.1537
   26DOPC   C4B  312   3.469   1.057  13.721 -0.0118 -0.2176  0.0915
   27DOPC   NC3  313  24.944   1.291  15.312 -0.3585  0.0589 -0.0980
   27DOPC   PO4  314  24.651   1.230  15.032 -0.0224  0.1864  0.1901
   27DOPC   GL1  315  24.792   1.210  14.714 -0.1856 -0.0499  0.0204
   27DOPC   GL2  316  24.550   1.209  14.447 -0.0536 -0.2535 -0.0683
   27DOPC   C1A  317  25.117   1.262  14.412 -0.1066  0.2899  0.0838
   27DOPC   D2A  318  25.371   1.335  14.039  0.0150 -0.3415  0.0347
   27DOPC   C3A  319  25.256   1.501  13.590  0.0217 -0.1678  0.2289
   27DOPC   C4A  320  25.080   1.467  13.126 -0.2065 -0.0498  0.0468
   27DOPC   C1B  321  24.633   1.151  13.997 -0.0563 -0.1831 -0.0311
   27DOPC   D2B  322  24.690   1.281  13.548  0.1313 -0.1074  0.0663
   27DOPC   C3B  323  24.507   0.996  13.234 -0.0151  0.1462  0.2197
   27DOPC   C4B  324  24.338   0.793  12.789 -0.1550  0.1637  0.1502
   28DOPC   NC3  325   0.721   0.826  16.347 -0.2771  0.3312  0.0425
   28DOPC   PO4  326   0.488   0.848  16.014  0.3933 -0.0876 -0.0334
   28DOPC   GL1  327   0.487   1.090  15.614 -0.2643 -0.1498 -0.0550
   28DOPC   GL2  328   0.721   0.899  15.570 -0.0195  0.0919  0.1932
   28DOPC   C1A  329   0.318   1.042  15.259  0.0679  0.1033 -0.1221
   28DOPC   D2A  330   0.135   1.391  14.959 -0.0763  0.0142 -0.3199
   28DOPC   C3A  331   0.028   1.164  14.563 -0.1464  0.0164  0.0805
   28DOPC   C4A  332   0.176   0.786  14.237  0.0532 -0.0059 -0.0966
   28DOPC   C1B  333   0.898   1.012  15.156  0.2347  0.2708  0.2221
   28DOPC   D2B  334   1.133   0.969  14.653  0.1562 -0.4569  0.0268
   28DOPC   C3B  335   1.311   0.711  14.276 -0.1043  0.1048  0.0103
   28DOPC   C4B  336   1.452   0.651  13.832  0.1653 -0.0780 -0.0529
   29DOPC   NC3  337   9.029   5.168  15.108 -0.0401 -0.2310 -0.0994
   29DOPC   PO4  338   9.179   4.994  14.763 -0.0442 -0.2543 -0.4481
   29DOPC   GL1  339   9.122   5.156  14.453  0.4047 -0.0880 -0.1375
   29DOPC   GL2  340   9.369   5.160  14.304  0.0685  0.2391 -0.3072
   29DOPC   C1A  341   8.837   4.906  14.183 -0.1480  0.2613  0.1374
   29DOPC   D2A  342   8.518   4.761  13.894  0.0262 -0.1496  0.1179
   29DOPC   C3A  343   8.645   4.420  13.625 -0.0812  0.1603  0.2238
   29DOPC   C4A  344   9.062   4.211  13.455  0.2963  0.1025 -0.0589
   29DOPC   C1B  345   9.376   4.747  14.123  0.1080  0.3772  0.0386
   29DOPC   D2B  346   9.360   4.210  14.252  0.2807 -0.0220  0.1424
   29DOPC   C3B  347   9.509   4.306  13.799 -0.0010 -0.1663 -0.1809
   29DOPC   C4B  348   9.514   4.265  13.367  0.1309  0.0029  0.0287
   30DOPC   NC3  349   4.462   7.216  15.487 -0.1426  0.1600 -0.0240
   30DOPC   PO4  350   4.085   7.343  15.465  0.0657  0.1857 -0.0032
   30DOPC   GL1  351   4.300   7.561  15.134 -0.3177  0.0939  0.0071
   30DOPC   GL2  352   4.222   7.243  15.057 -0.1314  0.0483  0.0994
   30DOPC   C1A  353   4.311   7.854  14.785  0.1806 -0.4767  0.0021
   30DOPC   D2A  354   4.036   8.086  14.398  0.2160 -0.1737 -0.0067
   30DOPC   C3A  355   3.675   8.411  14.367 -0.2529  0.2691 -0.0776
   30DOPC   C4A  356   3.377   8.804  14.390  0.2477  0.0370  0.1577
   30DOPC   C1B  357   3.949   7.121  14.745 -0.0128  0.0428  0.1597
   30DOPC   D2B  358   3.671   7.226  14.347 -0.1114  0.0108  0.0544
   30DOPC   C3B  359   3.431   6.959  14.048 -0.0786  0.0966 -0.1373
   30DOPC   C4B  360   3.426   6.663  13.656 -0.0795 -0.0425  0.3044
   31DOPC   NC3  361   5.108   6.543  15.728 -0.0231  0.0115  0.0992
   31DOPC   PO4  362   5.083   6.482  15.358  0.3302  0.1093 -0.0031
   31DOPC   GL1  363   5.191   6.521  14.916  0.5358 -0.0565  0.1630
   31DOPC   GL2  364   5.248   6.254  14.907  0.3422  0.1688  0.3271
   31DOPC   C1A  365   5.326   6.762  14.526  0.0965  0.5202  0.1800
   31DOPC   D2A  366   5.743   6.803  14.289  0.1275 -0.1356 -0.2349
   31DOPC   C3A  367   5.971   6.990  13.910 -0.2563 -0.0814  0.1176
   31DOPC   C4A  368   6.312   7.092  13.598  0.1262  0.0309  0.0566
   31DOPC   C1B  369   5.286   6.094  14.485 -0.1396  0.1342  0.3227
   31DOPC   D2B  370   5.296   5.774  14.039  0.0232  0.0947  0.0591
   31DOPC   C3B  371   5.166   5.744  13.544  0.0512 -0.1188 -0.3879
   31DOPC   C4B  372   5.129   5.377  13.168  0.0757 -0.1540 -0.0666
   32DOPC   NC3  373  26.512   1.523  15.142  0.2140 -0.0803  0.3262
   32DOPC   PO4  374  26.635   1.201  14.935 -0.2113 -0.0820 -0.0913
   32DOPC   GL1  375  26.541   1.175  14.518  0.3557  0.0985  0.3833
   32DOPC   GL2  376  26.772   1.221  14.385  0.1424 -0.0586  0.0011
   32DOPC   C1A  377  26.388   0.900  14.245 -0.0250 -0.0828  0.0999
   32DOPC   D2A  378  26.286   0.779  13.845 -0.0905 -0.2693 -0.3654
   32DOPC   C3A  379  26.480   0.442  13.577 -0.1952 -0.0504 -0.1038
   32DOPC   C4A  380  26.287   0.128  13.241  0.0676  0.1691  0.2625
   32DOPC   C1B  381  26.652   1.247  13.949 -0.0418  0.0092 -0.1258
   32DOPC   D2B  382  26.646   1.288  13.513 -0.2168 -0.3848  0.0944
   32DOPC   C3B  383  26.522   1.722  13.299  0.3404 -0.0627 -0.0620
   32DOPC   C4B  384  26.387   2.187  13.123  0.1822 -0.1505 -0.0947
   33DOPC   NC3  385   5.349   1.833  15.416  0.0698 -0.1047 -0.2767
   33DOPC   PO4  386   5.567   1.479  15.399 -0.0432 -0.1938  0.2524
   33DOPC   GL1  387   5.695   1.631  15.040 -0.0531 -0.2639 -0.0837
   33DOPC   GL2  388   5.830   1.342  15.014  0.0816 -0.2884 -0.0030
   33DOPC   C1A  389   5.526   1.861  14.668 -0.2307 -0.0926  0.0766
   33DOPC   D2A  390   5.565   2.077  14.298 -0.0221  0.1474  0.0710
   33DOPC   C3A  391   5.597   2.222  13.861  0.1957  0.1044 -0.1558
   33DOPC   C4A  392   5.681   2.394  13.418 -0.0736  0.1675 -0.2214
   33DOPC   C1B  393   5.505   1.289  14.682 -0.2721  0.1160  0.0976
   33DOPC   D2B  394   5.239   1.081  14.343  0.4474  0.0454 -0.3919
   33DOPC   C3B  395   4.912   1.173  14.053 -0.1238 -0.0750  0.0147
   33DOPC   C4B  396   4.693   1.110  13.616  0.2248  0.1964  0.0265
   34DOPC   NC3  397   2.810   3.799  15.110  0.1773  0.2277 -0.3182
   34DOPC   PO4  398   3.069   3.558  15.243  0.0910 -0.0804 -0.2067
   34DOPC   GL1  399   3.261   3.159  15.024 -0.0094 -0.0434  0.3024
   34DOPC   GL2  400   3.481   3.446  15.016 -0.2660 -0.2287 -0.3108
   34DOPC   C1A  401   3.247   3.248  14.540  0.0537 -0.1149 -0.2140
   34DOPC   D2A  402   3.432   3.304  14.041  0.1495  0.0785  0.1046
   34DOPC   C3A  403   3.202   3.336  13.628 -0.0882 -0.0871  0.0613
   34DOPC   C4A  404   3.323   3.010  13.255  0.0548 -0.0281 -0.0850
   34DOPC   C1B  405   3.632   3.524  14.555 -0.0911  0.1595  0.0892
   34DOPC   D2B  406   3.860   3.656  14.136  0.1070  0.3310  0.1713
   34DOPC   C3B  407   3.653   3.699  13.758  0.1506  0.1400  0.2915
   34DOPC   C4B  408   3.713   3.260  13.564 -0.2121 -0.2790 -0.2815
   35DOPC   NC3  409  11.198   5.277  14.650  0.1013  0.2107  0.0975
   35DOPC   PO4  410  10.874   5.492  14.754 -0.1155  0.0557 -0.0781
   35DOPC   GL1  411  10.752   5.259  14.409  0.2806  0.0454  0.3950
   35DOPC   GL2  412  10.839   5.017  14.473 -0.0001 -0.1476  0.0319
   35DOPC   C1A  413  10.841   5.348  13.945 -0.4153 -0.1239 -0.2082
   35DOPC   D2A  414  10.954   5.159  13.519  0.0766  0.0998  0.1890
   35DOPC   C3A  415  11.122   5.209  13.055 -0.2373  0.1035  0.0975
   35DOPC   C4A  416  11.245   5.422  12.680 -0.1745  0.1512  0.3639
   35DOPC   C1B  417  11.129   5.055  14.136 -0.1359 -0.1432  0.2125
   35DOPC   D2B  418  11.447   5.113  13.750  0.0122  0.0225  0.0920
   35DOPC   C3B  419  11.313   4.803  13.411 -0.5823  0.2066  0.0622
   35DOPC   C4B  420  11.350   4.556  13.047  0.1259 -0.0370  0.0197
   36DOPC   NC3  421   1.247   1.690  15.713 -0.1085 -0.1560 -0.3049
   36DOPC   PO4  422   1.302   1.287  15.640 -0.1215 -0.0473 -0.1148
   36DOPC   GL1  423   1.524   1.181  15.320  0.1222 -0.1678  0.0105
   36DOPC   GL2  424   1.786   1.074  15.473 -0.2607 -0.0705  0.3212
   36DOPC   C1A  425   1.567   1.185  14.947  0.1965 -0.1162  0.1587
   36DOPC   D2A  426   1.693   0.823  14.588 -0.3909 -0.2193 -0.0663
   36DOPC   C3A  427   1.859   0.780  14.109  0.1049 -0.0292 -0.0037
   36DOPC   C4A  428   1.982   1.013  13.734 -0.1461  0.0502  0.0517
   36DOPC   C1B  429   1.991   0.926  15.105  0.1590 -0.0415  0.2429
   36DOPC   D2B  430   2.304   0.873  14.749  0.0329  0.1841 -0.1106
   36DOPC   C3B  431   2.321   1.054  14.323  0.1001  0.1795  0.3724
   36DOPC   C4B  432   2.486   1.007  13.863 -0.1280 -0.0042  0.2772
   37DOPC   NC3  433  29.443   2.649  15.397  0.0245 -0.0708  0.2876
   37DOPC   PO4  434  29.803   2.535  15.410 -0.2649  0.2082 -0.0767
   37DOPC   GL1  435  29.761   2.433  15.021  0.1323 -0.2400  0.0729
   37DOPC   GL2  436  29.508   2.392  14.947  0.2763 -0.1291 -0.1546
   37DOPC   C1A  437  30.098   2.609  14.785 -0.0795  0.2310 -0.0965
   37DOPC   D2A  438  30.451   2.877  14.564  0.0737  0.0502 -0.0525
   37DOPC   C3A  439  30.492   2.944  14.109 -0.0540 -0.0740 -0.1440
   37DOPC   C4A  440  30.471   3.194  13.705 -0.0922 -0.1074 -0.3229
   37DOPC   C1B  441  29.310   2.216  14.597 -0.0688 -0.0604 -0.0094
   37DOPC   D2B  442  29.040   2.209  14.216 -0.0373 -0.2345  0.0033
   37DOPC   C3B  443  28.829   2.440  13.799  0.1804 -0.0380  0.0699
   37DOPC   C4B  444  28.655   2.594  13.424 -0.1406 -0.1165 -0.0655
   38DOPC   NC3  445   8.215   5.341  14.952 -0.1077 -0.0891 -0.1462
   38DOPC   PO4  446   8.347   5.724  14.958  0.2700 -0.2362 -0.0795
   38DOPC   GL1  447   8.105   5.878  14.585 -0.0983 -0.2348  0.2806
   38DOPC   GL2  448   8.141   5.631  14.498  0.0064  0.0987  0.0803
   38DOPC   C1A  449   8.059   6.016  14.207  0.1091 -0.2725 -0.0188
   38DOPC   D2A  450   8.084   5.797  13.731  0.1447 -0.2468  0.0193
   38DOPC   C3A  451   8.198   5.515  13.392  0.0606 -0.0633  0.2351
   38DOPC   C4A  452   8.150   5.156  13.088  0.3239  0.2135  0.0846
   38DOPC   C1B  453   8.000   5.501  14.087 -0.3721 -0.2482 -0.0741
   38DOPC   D2B  454   7.798   5.408  13.664  0.2531  0.1514  0.1939
   38DOPC   C3B  455   7.358   5.478  13.516  0.0846  0.1628 -0.0822
   38DOPC   C4B  456   6.898   5.288  13.510  0.0235 -0.1442 -0.2117
   39DOPC   NC3  457  11.936   6.541  14.399 -0.0020 -0.0926  0.1138
   39DOPC   PO4  458  11.750   6.238  14.523  0.1103  0.1094 -0.1083
   39DOPC   GL1  459  11.427   6.057  14.246  0.1835 -0.0191 -0.1243
   39DOPC   GL2  460  11.513   6.325  14.120  0.0262 -0.3242  0.1376
   39DOPC   C1A  461  11.119   6.093  14.033 -0.1260 -0.3952  0.0517
   39DOPC   D2A  462  10.804   5.831  13.685 -0.0837  0.0094 -0.0267
   39DOPC   C3A  463  10.569   5.768  13.318  0.1469  0.1830 -0.1161
   39DOPC   C4A  464  10.315   5.516  12.907 -0.0100  0.0768  0.1838
   39DOPC   C1B  465  11.821   6.323  13.818 -0.3662  0.0865  0.0519
   39DOPC   D2B  466  11.786   6.423  13.352 -0.0078 -0.3178 -0.0835
   39DOPC   C3B  467  11.694   6.790  13.050  0.1887  0.1641 -0.0449
   39DOPC   C4B  468  11.680   7.058  12.637 -0.0901  0.2950 -0.0773
   40DOPC   NC3  469  26.420   4.720  14.889 -0.3091  0.1381 -0.7061
   40DOPC   PO4  470  26.459   4.318  14.787  0.3673 -0.0160 -0.3393
   40DOPC   GL1  471  26.621   4.091  14.486 -0.3090 -0.2950  0.0142
   40DOPC   GL2  472  26.345   4.019  14.535 -0.0037  0.2789 -0.3774
   40DOPC   C1A  473  26.585   4.260  14.130 -0.2050  0.2120  0.3204
   40DOPC   D2A  474  26.302   4.278  13.724  0.0494  0.0448  0.1228
   40DOPC   C3A  475  26.419   4.045  13.327  0.1848  0.0291 -0.0115
   40DOPC   C4A  476  26.389   3.817  12.816 -0.0672 -0.1388  0.0970
   40DOPC   C1B  477  26.091   4.224  14.246  0.0667 -0.0701 -0.1662
   40DOPC   D2B  478  25.781   4.269  13.880  0.1281  0.3222 -0.0080
   40DOPC   C3B  479  25.821   4.161  13.489  0.0198  0.1235 -0.2475
   40DOPC   C4B  480  25.975   4.009  13.034  0.0561 -0.0674  0.1517
   41DOPC   NC3  481  21.949   3.846  14.691  0.1984  0.0419  0.1598
   41DOPC   PO4  482  22.197   3.603  14.913  0.0871  0.1530  0.2711
   41DOPC   GL1  483  22.490   3.534  14.682  0.0634  0.1604 -0.0163
   41DOPC   GL2  484  22.599   3.852  14.595  0.4653 -0.0049  0.0901
   41DOPC   C1A  485  22.560   3.126  14.460 -0.2322  0.2177 -0.0775
   41DOPC   D2A  486  22.335   2.782  14.279  0.1072 -0.0734 -0.1408
   41DOPC   C3A  487  22.380   2.827  13.815 -0.1520 -0.0422 -0.1212
   41DOPC   C4A  488  22.441   2.847  13.326 -0.4624 -0.0968 -0.0415
   41DOPC   C1B  489  22.460   3.885  14.170 -0.0995 -0.0267  0.2093
   41DOPC   D2B  490  22.287   3.837  13.724 -0.0253 -0.1699 -0.1637
   41DOPC   C3B  491  22.254   4.102  13.303 -0.2067  0.1038  0.2214
   41DOPC   C4B  492  22.302   4.300  12.785  0.0262  0.0744 -0.1310
   42DOPC   NC3  493  22.378   4.095  14.914  0.0244 -0.0433  0.0670
   42DOPC   PO4  494  22.626   3.824  15.125 -0.0606  0.0285  0.1185
   42DOPC   GL1  495  22.949   3.695  14.749  0.3145  0.2181 -0.2400
   42DOPC   GL2  496  22.881   3.479  14.714  0.3472 -0.1503 -0.0448
   42DOPC   C1A  497  23.179   3.966  14.432  0.2807 -0.0573 -0.0861
   42DOPC   D2A  498  23.446   4.010  14.046 -0.1664  0.3190 -0.0824
   42DOPC   C3A  499  23.622   4.105  13.720 -0.1951 -0.1539 -0.0365
   42DOPC   C4A  500  24.016   4.224  13.450 -0.0977 -0.3024 -0.1058
   42DOPC   C1B  501  22.876   3.492  14.264  0.3219  0.1262  0.0892
   42DOPC   D2B  502  22.778   3.174  13.912  0.0622 -0.2482 -0.2117
   42DOPC   C3B  503  22.900   2.807  13.606 -0.2393  0.0128 -0.1384
   42DOPC   C4B  504  22.860   2.515  13.168 -0.1359  0.2513 -0.3932
   43DOPC   NC3  505   7.357   4.449  15.357  0.3566  0.0866 -0.1287
   43DOPC   PO4  506   7.404   4.062  15.340  0.1700 -0.1700 -0.0322
   43DOPC   GL1  507   7.439   3.954  14.972 -0.3162 -0.2320 -0.2739
   43DOPC   GL2  508   7.609   4.254  14.973  0.3240  0.0731 -0.1189
   43DOPC   C1A  509   7.280   3.772  14.653  0.2090 -0.0174  0.1943
   43DOPC   D2A  510   7.226   3.576  14.191 -0.1797  0.1444  0.2436
   43DOPC   C3A  511   7.071   3.788  13.836  0.0897 -0.0616 -0.1500
   43DOPC   C4A  512   7.147   4.183  13.529  0.3014 -0.0207  0.2150
   43DOPC   C1B  513   7.533   4.155  14.519  0.1655 -0.1893 -0.0586
   43DOPC   D2B  514   7.427   4.139  14.033 -0.2198  0.1218  0.1221
   43DOPC   C3B  515   7.725   4.093  13.652  0.2874  0.3157  0.1772
   43DOPC   C4B  516   7.927   3.677  13.421 -0.4689  0.0962  0.2189
   44DOPC   NC3  517  11.474   0.907  15.210  0.1037  0.1978 -0.1294
   44DOPC   PO4  518  11.802   0.894  14.992  0.0546 -0.1225 -0.0821
   44DOPC   GL1  519  11.584   0.909  14.646  0.2101 -0.1201  0.0817
   44DOPC   GL2  520  11.659   0.629  14.550  0.2071  0.3208  0.2951
   44DOPC   C1A  521  11.559   1.094  14.253  0.0124 -0.3881 -0.1626
   44DOPC   D2A  522  11.533   1.324  13.820 -0.4262  0.0377 -0.3098
   44DOPC   C3A  523  11.590   1.100  13.461  0.4327  0.3850  0.0972
   44DOPC   C4A  524  11.751   0.704  13.186 -0.1374 -0.3485 -0.1437
   44DOPC   C1B  525  11.540   0.639  14.193  0.2152  0.3577  0.0529
   44DOPC   D2B  526  11.332   0.888  13.792  0.1116  0.1113  0.2768
   44DOPC   C3B  527  11.244   0.609  13.439 -0.0044  0.0303  0.0392
   44DOPC   C4B  528  11.479   0.247  13.186  0.1090  0.1148 -0.0092
   45DOPC   NC3  529  27.480   2.141  15.590  0.1456  0.1721  0.0920
   45DOPC   PO4  530  27.492   1.788  15.391  0.1662  0.1045 -0.1720
   45DOPC   GL1  531  27.377   1.736  14.972 -0.1829  0.2464 -0.0039
   45DOPC   GL2  532  27.627   1.556  14.935  0.1094 -0.2906 -0.1042
   45DOPC   C1A  533  27.133   1.937  14.657 -0.2700  0.0159  0.1565
   45DOPC   D2A  534  26.770   2.181  14.454  0.0320  0.1004 -0.0216
   45DOPC   C3A  535  26.658   2.155  13.964 -0.1220 -0.0738 -0.0103
   45DOPC   C4A  536  26.873   2.106  13.488 -0.2418 -0.0346 -0.1296
   45DOPC   C1B  537  27.521   1.493  14.505 -0.4124  0.2989 -0.0255
   45DOPC   D2B  538  27.245   1.474  14.124 -0.0919  0.1401  0.1030
   45DOPC   C3B  539  27.126   1.211  13.713 -0.4126 -0.3122 -0.2669
   45DOPC   C4B  540  27.239   0.785  13.682 -0.4609  0.0385 -0.0361
   46DOPC   NC3  541  16.542   2.699  14.695  0.0852  0.2194 -0.4270
   46DOPC   PO4  542  16.908   2.528  14.782  0.0286  0.2958  0.3203
   46DOPC   GL1  543  16.926   2.334  14.444  0.2633  0.0588  0.3323
   46DOPC   GL2  544  16.652   2.265  14.389  0.1879  0.0317 -0.1776
   46DOPC   C1A  545  17.219   2.063  14.263  0.0378 -0.0118  0.0302
   46DOPC   D2A  546  17.596   1.889  13.955  0.1192  0.0495 -0.1399
   46DOPC   C3A  547  17.947   1.971  13.647 -0.2080  0.3708  0.0337
   46DOPC   C4A  548  18.121   1.926  13.212 -0.1095 -0.2073  0.2758
   46DOPC   C1B  549  16.776   2.270  14.013  0.0049  0.1661 -0.0160
   46DOPC   D2B  550  17.100   2.176  13.688  0.1912  0.1328  0.0596
   46DOPC   C3B  551  17.450   2.056  13.359 -0.4435 -0.0462  0.2150
   46DOPC   C4B  552  17.668   2.068  12.921  0.3028 -0.2583 -0.0706
   47DOPC   NC3  553  12.081   7.045  15.108  0.1037  0.2331 -0.0752
   47DOPC   PO4  554  12.123   7.322  14.859 -0.0104 -0.3254  0.1353
   47DOPC   GL1  555  12.419   7.385  14.546  0.1802 -0.1276  0.3746
   47DOPC   GL2  556  12.609   7.364  14.579 -0.4163 -0.2592 -0.2348
   47DOPC   C1A  557  12.334   7.622  14.166 -0.5245 -0.0253 -0.0498
   47DOPC   D2A  558  12.249   7.733  13.718 -0.1227 -0.2356  0.1958
   47DOPC   C3A  559  12.057   7.583  13.325  0.2852  0.0791  0.1250
   47DOPC   C4A  560  12.000   7.437  12.861  0.0087 -0.0440  0.1625
   47DOPC   C1B  561  12.806   7.251  14.209  0.1073 -0.1358 -0.2351
   47DOPC   D2B  562  12.889   7.160  13.743 -0.2229  0.0639 -0.1911
   47DOPC   C3B  563  13.032   7.259  13.325 -0.0980  0.0042 -0.2487
   47DOPC   C4B  564  13.453   7.305  13.045  0.1045  0.0734 -0.1242
   48DOPC   NC3  565  12.238   0.260  15.117 -0.0136  0.1829 -0.0318
   48DOPC   PO4  566  12.519   0.276  14.828  0.0561 -0.3484  0.0381
   48DOPC   GL1  567  12.574   0.488  14.479 -0.2072 -0.0686  0.0758
   48DOPC   GL2  568  12.500   0.744  14.417  0.1785 -0.0644 -0.0387
   48DOPC   C1A  569  12.199   0.348  14.250 -0.0391  0.1643 -0.1224
   48DOPC   D2A  570  12.176   0.445  13.749  0.0393 -0.2250 -0.0463
   48DOPC   C3A  571  11.910   0.252  13.377 -0.2149  0.0595 -0.1234
   48DOPC   C4A  572  11.893   0.134  12.909 -0.2434 -0.1818  0.1227
   48DOPC   C1B  573  12.420   0.798  14.003  0.0595 -0.2889  0.3155
   48DOPC   D2B  574  12.491   0.922  13.592  0.1932  0.0827 -0.0483
   48DOPC   C3B  575  12.313   0.607  13.313 -0.1649 -0.0297  0.1192
   48DOPC   C4B  576  12.400   0.119  13.250 -0.0736 -0.2617  0.1854
   49DOPC   NC3  577  28.453   2.890  15.326  0.0278 -0.0307  0.1035
   49DOPC   PO4  578  28.225   2.579  15.216  0.0532 -0.1044  0.0963
   49DOPC   GL1  579  28.201   2.466  14.813 -0.1731  0.7163 -0.1991
   49DOPC   GL2  580  27.919   2.564  14.730 -0.1738 -0.0499 -0.0211
   49DOPC   C1A  581  28.526   2.400  14.512 -0.1563  0.2271  0.3182
   49DOPC   D2A  582  28.504   2.150  14.165 -0.0796  0.0581 -0.0499
   49DOPC   C3A  583  28.416   2.162  13.739  0.2527  0.1028  0.1478
   49DOPC   C4A  584  28.277   2.238  13.269  0.2235  0.0412 -0.2657
   49DOPC   C1B  585  27.649   2.729  14.452 -0.2423 -0.0935 -0.2096
   49DOPC   D2B  586  27.476   2.734  14.003  0.1291  0.0791 -0.1460
   49DOPC   C3B  587  27.524   2.334  13.753 -0.5149 -0.1011  0.0873
   49DOPC   C4B  588  27.504   2.035  13.384  0.1195 -0.0132 -0.2917
   50DOPC   NC3  589  24.603   7.330  15.118  0.2109  0.1062  0.3062
   50DOPC   PO4  590  24.701   6.958  14.993  0.2784  0.0568 -0.0208
   50DOPC   GL1  591  24.713   6.881  14.589 -0.1237  0.3442 -0.0098
   50DOPC   GL2  592  24.951   7.046  14.548  0.1775  0.1111  0.1246
   50DOPC   C1A  593  24.777   6.537  14.350  0.0089  0.1667  0.1670
   50DOPC   D2A  594  24.497   6.198  14.108  0.0211  0.0773  0.3876
   50DOPC   C3A  595  24.775   6.111  13.735 -0.0888  0.0238  0.1571
   50DOPC   C4A  596  25.161   6.050  13.353 -0.1887  0.2069 -0.2122
   50DOPC   C1B  597  25.006   7.077  14.174 -0.0277  0.0509 -0.1781
   50DOPC   D2B  598  25.123   7.248  13.734 -0.0251  0.0562 -0.2413
   50DOPC   C3B  599  25.305   6.931  13.459  0.2754 -0.1835  0.0107
   50DOPC   C4B  600  25.492   6.524  13.473 -0.1789  0.2504  0.1067
   51DOPC   NC3  601   8.569   0.506  14.951  0.3006 -0.5042 -0.0621
   51DOPC   PO4  602   8.579   0.867  14.817  0.2499  0.1144  0.0233
   51DOPC   GL1  603   8.366   0.911  14.415 -0.0981  0.1754 -0.0031
   51DOPC   GL2  604   8.578   0.741  14.339 -0.0270 -0.1043 -0.1356
   51DOPC   C1A  605   8.442   1.104  14.035  0.3360 -0.2517 -0.2923
   51DOPC   D2A  606   8.767   1.199  13.659 -0.1268  0.1283  0.0953
   51DOPC   C3A  607   8.880   1.633  13.458 -0.2370  0.0931  0.0610
   51DOPC   C4A  608   8.891   2.003  13.161  0.1012  0.0021 -0.1325
   51DOPC   C1B  609   8.867   0.886  14.045  0.1207  0.2169  0.3243
   51DOPC   D2B  610   9.110   0.817  13.708  0.0497 -0.0990  0.0988
   51DOPC   C3B  611   8.945   0.665  13.313  0.3085  0.1408 -0.1963
   51DOPC   C4B  612   8.817   0.540  12.900  0.1058 -0.0628  0.4511
   52DOPC   NC3  613  19.475   2.639  14.602  0.0689  0.1754 -0.2836
   52DOPC   PO4  614  19.655   2.582  14.961 -0.0154  0.0139  0.3019
   52DOPC   GL1  615  19.879   2.505  14.504 -0.1991  0.0696 -0.1717
   52DOPC   GL2  616  19.932   2.233  14.591 -0.1859 -0.1584 -0.2400
   52DOPC   C1A  617  19.749   2.571  14.066 -0.1478  0.1291 -0.0226
   52DOPC   D2A  618  19.691   2.727  13.628  0.0426  0.2732  0.0115
   52DOPC   C3A  619  19.755   3.092  13.345 -0.0594  0.2767 -0.0641
   52DOPC   C4A  620  19.796   3.049  12.909  0.2755  0.2689  0.0287
   52DOPC   C1B  621  19.580   2.169  14.292  0.0189 -0.2647 -0.0730
   52DOPC   D2B  622  19.186   2.274  14.097 -0.1010 -0.0162 -0.3541
   52DOPC   C3B  623  19.200   2.081  13.627 -0.0353  0.0937 -0.2477
   52DOPC   C4B  624  19.059   1.977  13.140  0.0918 -0.0097 -0.2182
   53DOPC   NC3  625   2.207   0.784  16.241  0.4338  0.4797 -0.2655
   53DOPC   PO4  626   2.111   0.945  15.881  0.0444  0.1842 -0.0379
   53DOPC   GL1  627   2.225   0.902  15.527  0.0238  0.2077 -0.2834
   53DOPC   GL2  628   2.193   1.227  15.495 -0.0412  0.1548 -0.0616
   53DOPC   C1A  629   2.491   0.756  15.262  0.1070 -0.0630 -0.1893
   53DOPC   D2A  630   2.791   0.790  14.905  0.2971  0.1214 -0.0231
   53DOPC   C3A  631   2.906   0.965  14.511  0.0594 -0.0295  0.1063
   53DOPC   C4A  632   2.915   1.149  14.078 -0.1340  0.2064 -0.3493
   53DOPC   C1B  633   2.136   1.354  15.082  0.2763 -0.3132 -0.2338
   53DOPC   D2B  634   1.950   1.272  14.666  0.2015  0.1071 -0.0732
   53DOPC   C3B  635   1.950   1.329  14.154  0.4518  0.2570 -0.3360
   53DOPC   C4B  636   2.183   1.434  13.774  0.0980 -0.0860  0.1350
   54DOPC   NC3  637  13.737   2.738  15.169  0.1776 -0.0092 -0.0508
   54DOPC   PO4  638  13.795   2.436  14.887  0.3431 -0.2100 -0.1002
   54DOPC   GL1  639  14.000   2.554  14.471 -0.1189 -0.3975  0.4549
   54DOPC   GL2  640  14.072   2.773  14.725  0.0742  0.0262 -0.0949
   54DOPC   C1A  641  13.826   2.762  14.108  0.0485  0.0362 -0.1782
   54DOPC   D2A  642  13.550   2.877  13.746 -0.4463  0.2464 -0.0186
   54DOPC   C3A  643  13.864   2.741  13.371  0.0212 -0.1087  0.1337
   54DOPC   C4A  644  13.937   2.501  12.925 -0.0723 -0.0474  0.1343
   54DOPC   C1B  645  13.965   3.168  14.560  0.0358  0.1809  0.0699
   54DOPC   D2B  646  13.815   3.625  14.367  0.2450  0.3356  0.2068
   54DOPC   C3B  647  13.772   3.613  13.914  0.1774 -0.2741 -0.0241
   54DOPC   C4B  648  13.729   3.397  13.418  0.2204 -0.3010  0.0239
   55DOPC   NC3  649  13.924   5.436  15.109  0.0092  0.2243  0.0446
   55DOPC   PO4  650  13.860   5.794  15.161  0.4104  0.0352  0.1393
   55DOPC   GL1  651  13.890   5.777  14.769  0.4226  0.1079 -0.0138
   55DOPC   GL2  652  13.743   5.484  14.706 -0.3634 -0.0882  0.5182
   55DOPC   C1A  653  13.724   5.806  14.375  0.3017  0.3445  0.0774
   55DOPC   D2A  654  13.440   5.945  14.038  0.1198  0.2890  0.2447
   55DOPC   C3A  655  13.480   6.063  13.577  0.4589  0.1300  0.2981
   55DOPC   C4A  656  13.257   6.269  13.269  0.0999  0.3995  0.1597
   55DOPC   C1B  657  13.860   5.325  14.353 -0.2007  0.0503 -0.0267
   55DOPC   D2B  658  13.887   5.075  13.821  0.0528  0.0849 -0.2241
   55DOPC   C3B  659  14.040   5.186  13.372  0.2238  0.1931  0.1243
   55DOPC   C4B  660  14.201   5.453  13.005 -0.0114 -0.2564  0.1033
   56DOPC   NC3  661  26.704   5.492  14.886 -0.0094 -0.0979 -0.2297
   56DOPC   PO4  662  26.840   5.829  14.958  0.0984  0.3720  0.0866
   56DOPC   GL1  663  27.028   5.907  14.544 -0.2184 -0.3078 -0.3187
   56DOPC   GL2  664  26.788   5.775  14.466 -0.2665  0.1194 -0.0607
   56DOPC   C1A  665  27.203   6.064  14.212 -0.1544  0.3520  0.0573
   56DOPC   D2A  666  27.333   6.521  13.965  0.0845 -0.0453 -0.1774
   56DOPC   C3A  667  27.380   7.000  13.922 -0.1333 -0.1305  0.0899
   56DOPC   C4A  668  27.561   7.012  13.445 -0.1435  0.1285 -0.1912
   56DOPC   C1B  669  26.699   5.336  14.313 -0.0320 -0.1268  0.0011
   56DOPC   D2B  670  26.521   4.882  14.352  0.1900  0.2084 -0.3229
   56DOPC   C3B  671  26.730   4.695  13.977 -0.0063 -0.0657  0.0717
   56DOPC   C4B  672  27.093   4.657  13.691  0.2069  0.1778 -0.0737
   57DOPC   NC3  673  10.704   2.922  15.391  0.1991  0.0456 -0.1617
   57DOPC   PO4  674  10.624   2.518  15.259 -0.0481 -0.1802 -0.0578
   57DOPC   GL1  675  10.712   2.743  14.892  0.0472  0.2520  0.0224
   57DOPC   GL2  676  10.887   2.878  14.952 -0.2190 -0.1248 -0.2068
   57DOPC   C1A  677  10.822   2.482  14.463  0.2537 -0.0849  0.0177
   57DOPC   D2A  678  11.087   2.200  14.161 -0.2318 -0.0159 -0.1755
   57DOPC   C3A  679  10.970   2.121  13.703  0.2944 -0.0945 -0.1255
   57DOPC   C4A  680  10.797   2.174  13.268  0.0196  0.1555  0.0329
   57DOPC   C1B  681  11.265   2.919  14.735  0.1074 -0.3256 -0.0998
   57DOPC   D2B  682  11.654   2.850  14.430 -0.0106  0.0389 -0.1551
   57DOPC   C3B  683  11.451   3.074  14.073 -0.1217  0.1543  0.0387
   57DOPC   C4B  684  11.359   3.086  13.622  0.0176 -0.2679  0.3244
   58DOPC   NC3  685   1.659   2.328  15.887  0.0848  0.0140  0.0123
   58DOPC   PO4  686   1.687   2.004  15.668  0.0160  0.0968  0.1710
   58DOPC   GL1  687   1.708   2.066  15.256 -0.4937  0.1597 -0.4072
   58DOPC   GL2  688   1.866   2.280  15.257  0.1835  0.2134 -0.1323
   58DOPC   C1A  689   1.793   1.920  14.889 -0.1031  0.2088 -0.1456
   58DOPC   D2A  690   1.826   1.759  14.495 -0.2491 -0.0206 -0.1154
   58DOPC   C3A  691   1.755   1.812  14.049 -0.0254  0.1128  0.0871
   58DOPC   C4A  692   1.693   1.538  13.639 -0.2049 -0.1324  0.2787
   58DOPC   C1B  693   1.877   2.412  14.850  0.0524 -0.0154  0.2788
   58DOPC   D2B  694   1.738   2.229  14.428  0.0619  0.0472  0.1392
   58DOPC   C3B  695   1.312   2.292  14.314  0.1791 -0.0164 -0.0294
   58DOPC   C4B  696   1.032   2.712  14.354 -0.4988 -0.0187  0.3781
   59DOPC   NC3  697  25.343   3.840  14.756  0.2872  0.1126 -0.0341
   59DOPC   PO4  698  25.566   3.528  14.824 -0.1365  0.1147  0.0084
   59DOPC   GL1  699  25.517   3.452  14.438 -0.0233 -0.3403 -0.2581
   59DOPC   GL2  700  25.849   3.457  14.385  0.2606  0.0335  0.0592
   59DOPC   C1A  701  25.190   3.580  14.167  0.0261 -0.0420 -0.1335
   59DOPC   D2A  702  25.084   3.719  13.644 -0.0296  0.0646  0.2400
   59DOPC   C3A  703  25.172   3.428  13.375  0.1242  0.1153  0.1474
   59DOPC   C4A  704  25.174   3.089  12.990 -0.1375  0.0198  0.0700
   59DOPC   C1B  705  26.067   3.379  14.057 -0.0529  0.0854 -0.1871
   59DOPC   D2B  706  26.056   3.167  13.551  0.1732 -0.0995  0.1590
   59DOPC   C3B  707  26.489   3.157  13.354 -0.0772  0.3661  0.0722
   59DOPC   C4B  708  26.924   2.927  13.341 -0.0514 -0.0167  0.3138
   60DOPC   NC3  709  11.916   1.284  14.709 -0.3721  0.0379 -0.2080
   60DOPC   PO4  710  11.972   1.674  14.891 -0.0456  0.0010  0.0227
   60DOPC   GL1  711  11.666   1.834  14.656 -0.0512 -0.1462 -0.1260
   60DOPC   GL2  712  11.881   1.947  14.485 -0.2960 -0.1653  0.4792
   60DOPC   C1A  713  11.254   1.885  14.594 -0.1084 -0.0813  0.4063
   60DOPC   D2A  714  10.762   1.883  14.422  0.1902  0.0164 -0.0352
   60DOPC   C3A  715  10.726   1.792  13.981  0.2286  0.2557  0.1276
   60DOPC   C4A  716  10.764   1.718  13.487 -0.0190  0.2232 -0.1482
   60DOPC   C1B  717  11.611   2.026  14.127 -0.1325 -0.0978  0.0435
   60DOPC   D2B  718  11.650   1.956  13.617 -0.2326  0.2054 -0.0320
   60DOPC   C3B  719  11.915   2.127  13.296  0.0285 -0.0522  0.0307
   60DOPC   C4B  720  11.725   2.196  12.828 -0.1013  0.0047 -0.1738
   61DOPC   NC3  721  19.808   5.187  14.614 -0.0209 -0.2092 -0.4153
   61DOPC   PO4  722  20.202   5.226  14.645 -0.0050  0.0888  0.1437
   61DOPC   GL1  723  20.395   5.028  14.395  0.0217 -0.1301  0.0976
   61DOPC   GL2  724  20.427   5.336  14.260 -0.1593 -0.0495 -0.0606
   61DOPC   C1A  725  20.170   4.943  14.108  0.3133  0.2374 -0.0553
   61DOPC   D2A  726  19.925   4.989  13.683  0.1097 -0.0698  0.0129
   61DOPC   C3A  727  19.960   5.095  13.231  0.1268 -0.2164  0.2809
   61DOPC   C4A  728  20.199   5.239  12.870 -0.1368  0.0768 -0.0150
   61DOPC   C1B  729  20.281   5.408  13.827  0.0767  0.3402 -0.1413
   61DOPC   D2B  730  20.132   5.512  13.365  0.0272 -0.0783  0.1206
   61DOPC   C3B  731  19.820   5.530  13.020  0.0589  0.0359  0.1437
   61DOPC   C4B  732  19.560   5.639  12.639  0.0536  0.1136  0.0316
   62DOPC   NC3  733  23.325   2.173  15.156 -0.4938 -0.2576 -0.0339
   62DOPC   PO4  734  23.653   2.037  14.963  0.0265  0.0305  0.2081
   62DOPC   GL1  735  23.817   2.016  14.577  0.1646  0.0947  0.1733
   62DOPC   GL2  736  24.002   2.275  14.535 -0.1694  0.2043  0.2516
   62DOPC   C1A  737  23.743   1.771  14.209  0.2424 -0.1092 -0.0812
   62DOPC   D2A  738  23.754   1.621  13.728 -0.0780 -0.0273  0.0117
   62DOPC   C3A  739  23.960   1.263  13.481  0.2121  0.0178 -0.0196
   62DOPC   C4A  740  23.974   0.815  13.144  0.2806 -0.1914 -0.3039
   62DOPC   C1B  741  24.187   2.177  14.184 -0.1523 -0.4374 -0.3185
   62DOPC   D2B  742  24.272   2.097  13.685  0.1454 -0.2748 -0.0072
   62DOPC   C3B  743  24.686   2.291  13.464 -0.0001 -0.0055  0.1501
   62DOPC   C4B  744  25.045   2.353  13.205 -0.0712 -0.0578  0.0891
   63DOPC   NC3  745  14.180   0.419  15.399  0.0714  0.2102 -0.2237
   63DOPC   PO4  746  14.050   0.169  15.094 -0.1353 -0.0841  0.2055
   63DOPC   GL1  747  14.220  -0.264  14.878 -0.1826 -0.3878  0.0488
   63DOPC   GL2  748  13.966  -0.179  14.706 -0.1135  0.1015 -0.2165
   63DOPC   C1A  749  14.567  -0.378  14.584 -0.0180 -0.0372  0.0663
   63DOPC   D2A  750  14.851  -0.391  14.166  0.1118 -0.0865 -0.0547
   63DOPC   C3A  751  14.800  -0.473  13.711 -0.1668  0.0291 -0.0728
   63DOPC   C4A  752  14.736  -0.637  13.230 -0.0826 -0.1683  0.4454
   63DOPC   C1B  753  13.875  -0.282  14.301 -0.0301  0.0904 -0.2150
   63DOPC   D2B  754  13.914  -0.421  13.790 -0.1273  0.0443  0.1835
   63DOPC   C3B  755  14.360  -0.383  13.549  0.4310  0.1354 -0.0630
   63DOPC   C4B  756  14.477  -0.214  13.102 -0.0556 -0.0623  0.3465
   64DOPC   NC3  757  15.409   2.636  14.891 -0.0121  0.1497 -0.0361
   64DOPC   PO4  758  15.363   2.245  14.937  0.1529  0.1975 -0.0239
   64DOPC   GL1  759  15.125   2.282  14.535 -0.1611  0.5224  0.0363
   64DOPC   GL2  760  15.328   2.479  14.473 -0.4964  0.2143 -0.2559
   64DOPC   C1A  761  14.913   1.950  14.241  0.1937 -0.2413 -0.0172
   64DOPC   D2A  762  14.842   1.720  13.838 -0.1970 -0.1962  0.0916
   64DOPC   C3A  763  15.148   1.481  13.513 -0.1391 -0.2143  0.3060
   64DOPC   C4A  764  15.480   1.290  13.166 -0.0819  0.0872 -0.4488
   64DOPC   C1B  765  15.433   2.631  14.036 -0.0941  0.1161  0.0329
   64DOPC   D2B  766  15.497   2.510  13.657 -0.0196  0.2761  0.2243
   64DOPC   C3B  767  15.704   2.142  13.770 -0.1173  0.0605  0.0978
   64DOPC   C4B  768  16.082   1.849  13.758  0.0357 -0.3204  0.1928
   65DOPC   NC3  769  29.391   0.422  15.692  0.0287  0.1132 -0.0672
   65DOPC   PO4  770  29.444   0.070  15.472  0.2309  0.2884  0.0331
   65DOPC   GL1  771  29.346   0.008  15.072  0.4378  0.0839 -0.2383
   65DOPC   GL2  772  29.588  -0.102  15.008  0.0414 -0.0268 -0.1187
   65DOPC   C1A  773  29.290   0.031  14.664 -0.2859  0.2025  0.1962
   65DOPC   D2A  774  29.371   0.129  14.200 -0.1492  0.1360  0.0049
   65DOPC   C3A  775  29.468   0.535  13.919 -0.0127  0.0318  0.1398
   65DOPC   C4A  776  29.785   0.893  13.685  0.3969 -0.0309  0.0128
   65DOPC   C1B  777  29.800  -0.143  14.626  0.0916 -0.0314 -0.2435
   65DOPC   D2B  778  29.881  -0.261  14.185  0.0462 -0.0053 -0.0415
   65DOPC   C3B  779  29.523  -0.155  13.818 -0.0965  0.1084 -0.0329
   65DOPC   C4B  780  29.331  -0.363  13.378 -0.3527 -0.2560 -0.2168
   66DOPC   NC3  781  25.848   0.425  14.886 -0.1295 -0.2074 -0.0165
   66DOPC   PO4  782  26.229   0.270  14.942 -0.0937 -0.2441 -0.1460
   66DOPC   GL1  783  26.458   0.106  14.549  0.1968 -0.0711 -0.4469
   66DOPC   GL2  784  26.414   0.388  14.474 -0.0484  0.1974 -0.0246
   66DOPC   C1A  785  26.443  -0.210  14.294  0.0081 -0.1843  0.0269
   66DOPC   D2A  786  26.379  -0.438  13.902 -0.0573 -0.0499 -0.0271
   66DOPC   C3A  787  26.080  -0.264  13.541 -0.2839  0.1193 -0.1033
   66DOPC   C4A  788  25.709  -0.004  13.368  0.0376  0.0614 -0.1756
   66DOPC   C1B  789  26.648   0.458  14.135 -0.2003 -0.0531 -0.1465
   66DOPC   D2B  790  26.985   0.308  13.843  0.0620  0.0842 -0.0525
   66DOPC   C3B  791  27.061   0.346  13.342  0.0326  0.1866  0.0398
   66DOPC   C4B  792  27.538   0.673  13.289  0.0030 -0.0218 -0.0773
   67DOPC   NC3  793   7.919   3.909  15.004  0.2201  0.0429 -0.2348
   67DOPC   PO4  794   8.117   4.264  14.991 -0.0061  0.3287 -0.0527
   67DOPC   GL1  795   8.355   4.326  14.678 -0.4277  0.0885 -0.1052
   67DOPC   GL2  796   8.501   4.147  14.572  0.1786 -0.2843  0.2777
   67DOPC   C1A  797   8.289   4.658  14.363 -0.0745 -0.0908 -0.1260
   67DOPC   D2A  798   7.985   4.908  14.061 -0.0721 -0.2653 -0.1126
   67DOPC   C3A  799   7.982   4.956  13.599  0.3496 -0.3880  0.0660
   67DOPC   C4A  800   7.656   5.014  13.249  0.0670 -0.0464  0.0758
   67DOPC   C1B  801   8.473   4.184  14.097 -0.2328  0.0042 -0.1638
   67DOPC   D2B  802   8.159   4.398  13.747 -0.1491  0.0071  0.1228
   67DOPC   C3B  803   8.281   4.580  13.323 -0.1180  0.1283  0.0613
   67DOPC   C4B  804   8.464   4.835  12.931 -0.2337  0.3319 -0.1554
   68DOPC   NC3  805   5.194   3.532  15.678 -0.0481 -0.0290 -0.0853
   68DOPC   PO4  806   5.152   3.871  15.448  0.1314  0.0984 -0.1697
   68DOPC   GL1  807   5.079   3.973  15.103 -0.1759  0.1658  0.1418
   68DOPC   GL2  808   4.934   3.702  15.106  0.0634  0.2327  0.0276
   68DOPC   C1A  809   5.369   4.226  14.788  0.3374 -0.1073 -0.3950
   68DOPC   D2A  810   5.684   4.562  14.735 -0.0199 -0.0330  0.1074
   68DOPC   C3A  811   5.522   4.599  14.294 -0.0474  0.0348 -0.0040
   68DOPC   C4A  812   5.177   4.612  13.921 -0.2218  0.2888 -0.1889
   68DOPC   C1B  813   4.779   3.772  14.709  0.0281 -0.0383 -0.0225
   68DOPC   D2B  814   4.665   3.544  14.323  0.1911  0.1145  0.1542
   68DOPC   C3B  815   4.322   3.324  14.067  0.2205 -0.2343 -0.1845
   68DOPC   C4B  816   4.254   3.136  13.658 -0.3083  0.1061  0.1975
   69DOPC   NC3  817  22.713   1.304  14.483  0.0871 -0.0704 -0.2909
   69DOPC   PO4  818  22.825   1.540  14.793 -0.0420 -0.1612  0.0649
   69DOPC   GL1  819  23.101   1.744  14.418 -0.4020 -0.0912 -0.0849
   69DOPC   GL2  820  22.830   1.779  14.509  0.2227  0.1305 -0.2435
   69DOPC   C1A  821  23.370   2.081  14.361  0.0584  0.2526 -0.2419
   69DOPC   D2A  822  23.717   2.385  14.207 -0.0150  0.0078 -0.0245
   69DOPC   C3A  823  23.803   2.446  13.773  0.3165 -0.0816  0.1721
   69DOPC   C4A  824  23.752   2.471  13.248  0.0403 -0.0167 -0.0740
   69DOPC   C1B  825  22.772   1.611  14.072 -0.1445 -0.0812 -0.2904
   69DOPC   D2B  826  22.828   1.350  13.724  0.0967  0.2284  0.0272
   69DOPC   C3B  827  22.692   1.290  13.274 -0.0495 -0.0298  0.3376
   69DOPC   C4B  828  22.563   1.509  12.946  0.2753  0.0792 -0.4109
   70DOPC   NC3  829  22.664   4.963  14.898 -0.1658  0.1743 -0.1623
   70DOPC   PO4  830  22.298   4.862  14.855  0.3213  0.0417 -0.0918
   70DOPC   GL1  831  22.324   4.648  14.532 -0.4032 -0.1807 -0.2087
   70DOPC   GL2  832  22.377   4.979  14.350  0.2536  0.1952 -0.3017
   70DOPC   C1A  833  22.234   4.255  14.438  0.2270 -0.2844 -0.0622
   70DOPC   D2A  834  21.975   3.912  14.177 -0.1577  0.2895  0.3090
   70DOPC   C3A  835  21.737   3.924  13.805 -0.0573  0.2018 -0.1264
   70DOPC   C4A  836  21.591   4.130  13.364 -0.4525  0.1813  0.0715
   70DOPC   C1B  837  22.347   5.123  13.899  0.0695  0.1188 -0.2468
   70DOPC   D2B  838  22.201   5.367  13.460  0.1198  0.0922 -0.1810
   70DOPC   C3B  839  22.520   5.087  13.352  0.0578 -0.3548  0.0024
   70DOPC   C4B  840  22.909   4.697  13.353  0.2260  0.0972  0.3354
   71DOPC   NC3  841   8.612   6.098  15.171  0.2790  0.1175 -0.3003
   71DOPC   PO4  842   8.836   5.857  14.955  0.1016  0.0420  0.2352
   71DOPC   GL1  843   8.663   6.118  14.661 -0.2144  0.3534  0.0070
   71DOPC   GL2  844   8.522   5.872  14.599  0.0163 -0.4405  0.0983
   71DOPC   C1A  845   8.821   6.079  14.195 -0.0473  0.0966 -0.4087
   71DOPC   D2A  846   9.125   5.895  13.839  0.4219 -0.3055 -0.1990
   71DOPC   C3A  847   9.322   6.002  13.416  0.0644 -0.0081 -0.2309
   71DOPC   C4A  848   9.486   6.172  12.984  0.0909  0.0841  0.1880
   71DOPC   C1B  849   8.487   5.756  14.229  0.1983  0.0451  0.1053
   71DOPC   D2B  850   8.529   5.739  13.701 -0.0472 -0.1597  0.0550
   71DOPC   C3B  851   8.839   5.814  13.365 -0.1176  0.1926 -0.1165
   71DOPC   C4B  852   8.970   6.145  13.074  0.1664  0.1746 -0.1346
   72DOPC   NC3  853  25.478   7.317  14.984  0.0539  0.1475  0.1047
   72DOPC   PO4  854  25.093   7.331  14.906  0.0025 -0.1844  0.1487
   72DOPC   GL1  855  25.126   7.577  14.526  0.0399  0.0346  0.2534
   72DOPC   GL2  856  25.371   7.384  14.513  0.3698 -0.3827  0.0027
   72DOPC   C1A  857  24.881   7.596  14.188 -0.0408 -0.1393  0.0434
   72DOPC   D2A  858  24.668   7.558  13.742 -0.2269 -0.0513 -0.1582
   72DOPC   C3A  859  24.297   7.878  13.680 -0.1027 -0.1193  0.1926
   72DOPC   C4A  860  24.142   8.300  13.915 -0.1642  0.1060  0.0558
   72DOPC   C1B  861  25.475   7.342  14.068  0.1954 -0.1550  0.0141
   72DOPC   D2B  862  25.617   7.400  13.624  0.0457  0.0792  0.0629
   72DOPC   C3B  863  25.410   7.332  13.197 -0.2159  0.0353  0.2498
   72DOPC   C4B  864  25.078   7.537  12.888 -0.0594  0.2921  0.0778
   73DOPC   NC3  865  27.426   4.790  14.962  0.1935 -0.1114  0.0499
   73DOPC   PO4  866  27.335   4.470  14.778  0.1480  0.1168 -0.1010
   73DOPC   GL1  867  27.422   4.392  14.399 -0.0649 -0.1929  0.0703
   73DOPC   GL2  868  27.543   4.150  14.435  0.2055  0.3616  0.1340
   73DOPC   C1A  869  27.479   4.564  13.978 -0.1251 -0.4235 -0.0405
   73DOPC   D2A  870  27.517   4.713  13.485 -0.2269  0.0101 -0.1216
   73DOPC   C3A  871  27.652   4.368  13.250 -0.1898  0.0888  0.3516
   73DOPC   C4A  872  27.995   4.059  13.076 -0.0111 -0.0338 -0.1897
   73DOPC   C1B  873  27.429   3.837  14.123 -0.0930  0.2675 -0.2953
   73DOPC   D2B  874  27.281   3.699  13.684  0.2927  0.0446  0.0284
   73DOPC   C3B  875  27.241   3.318  13.333 -0.2815 -0.1213  0.4586
   73DOPC   C4B  876  27.233   2.957  12.931  0.0785  0.0814 -0.0380
   74DOPC   NC3  877  10.427   5.367  14.840  0.1647 -0.1186 -0.3834
   74DOPC   PO4  878  10.378   5.041  14.616  0.0928 -0.1523 -0.2059
   74DOPC   GL1  879  10.199   5.039  14.252 -0.2630 -0.1150  0.0818
   74DOPC   GL2  880  10.494   5.100  14.142  0.1011 -0.2012  0.1612
   74DOPC   C1A  881   9.816   5.008  14.148  0.1553 -0.1723 -0.1403
   74DOPC   D2A  882   9.440   5.189  13.865  0.3134 -0.1105 -0.0495
   74DOPC   C3A  883   8.981   5.037  13.728  0.0208 -0.0611 -0.0752
   74DOPC   C4A  884   8.799   4.791  13.322  0.1243  0.1514  0.1741
   74DOPC   C1B  885  10.704   4.854  13.875 -0.1272  0.1212  0.0653
   74DOPC   D2B  886  10.683   4.491  13.543  0.2138 -0.4321  0.1401
   74DOPC   C3B  887  10.842   4.587  13.149 -0.2246  0.1169  0.0572
   74DOPC   C4B  888  10.959   4.788  12.715  0.1559  0.0606  0.0827
   75DOPC   NC3  889  20.824   5.996  14.684  0.0270  0.2041 -0.2344
   75DOPC   PO4  890  21.140   5.795  14.645  0.3063 -0.0077  0.1470
   75DOPC   GL1  891  21.272   5.693  14.218  0.2302  0.0088 -0.0070
   75DOPC   GL2  892  21.530   5.623  14.278  0.1290 -0.0719 -0.1260
   75DOPC   C1A  893  21.296   5.886  13.883  0.1863 -0.0529  0.0400
   75DOPC   D2A  894  21.354   6.084  13.436 -0.2434 -0.0449 -0.0618
   75DOPC   C3A  895  21.329   6.084  13.018 -0.1312 -0.0172  0.0660
   75DOPC   C4A  896  21.554   6.279  12.584 -0.1354 -0.1419  0.1029
   75DOPC   C1B  897  21.733   5.598  13.877 -0.0507 -0.1537 -0.0743
   75DOPC   D2B  898  21.833   5.699  13.397 -0.2165 -0.1318  0.0576
   75DOPC   C3B  899  21.790   5.986  13.056  0.2438  0.0631 -0.1675
   75DOPC   C4B  900  21.618   6.470  13.093 -0.0598  0.0434  0.4313
   76DOPS   CNO  901  21.950   2.713  15.195  0.1279  0.0317 -0.0060
   76DOPS   PO4  902  21.613   2.748  15.047  0.0090  0.1329  0.0636
   76DOPS   GL1  903  21.664   2.829  14.600  0.1925 -0.0409  0.1427
   76DOPS   GL2  904  21.540   3.045  14.597  0.1058 -0.1072  0.4000
   76DOPS   C1A  905  21.815   2.564  14.295 -0.0906 -0.0345 -0.2118
   76DOPS   D2A  906  22.015   2.471  13.855  0.5199  0.0982 -0.0725
   76DOPS   C3A  907  21.997   2.512  13.405 -0.1653 -0.2981  0.1939
   76DOPS   C4A  908  22.223   2.380  13.006  0.0208 -0.1427  0.0744
   76DOPS   C1B  909  21.669   3.318  14.286 -0.0022  0.1537 -0.0092
   76DOPS   D2B  910  21.822   3.424  13.827 -0.0762 -0.1720 -0.1741
   76DOPS   C3B  911  21.930   3.677  13.444  0.0780  0.0250 -0.0296
   76DOPS   C4B  912  22.323   3.565  13.108  0.0599 -0.0654 -0.5323
   77DOPS   CNO  913   5.551   4.682  15.281  0.3567  0.2427  0.0493
   77DOPS   PO4  914   5.908   4.727  15.270 -0.0166  0.0410 -0.0729
   77DOPS   GL1  915   5.923   4.941  14.922 -0.3170  0.3326 -0.0270
   77DOPS   GL2  916   6.192   5.069  15.019 -0.1164 -0.0285 -0.1562
   77DOPS   C1A  917   6.042   4.820  14.515 -0.0636 -0.0389  0.2887
   77DOPS   D2A  918   6.260   5.069  14.079 -0.1142 -0.0821  0.1394
   77DOPS   C3A  919   6.077   5.076  13.625 -0.1033  0.0549  0.2271
   77DOPS   C4A  920   5.910   5.180  13.174 -0.2782 -0.2663 -0.1496
   77DOPS   C1B  921   6.274   5.504  14.835  0.1272 -0.1293  0.1245
   77DOPS   D2B  922   6.364   5.956  14.718 -0.1159 -0.3559 -0.0689
   77DOPS   C3B  923   6.189   6.329  14.525 -0.0982 -0.2682 -0.1243
   77DOPS   C4B  924   6.109   6.520  14.115 -0.0448  0.0224 -0.0081
   78DOPS   CNO  925  13.818   3.985  15.046 -0.0548 -0.0437 -0.0688
   78DOPS   PO4  926  14.015   3.711  14.881  0.1592  0.1142  0.0036
   78DOPS   GL1  927  14.091   3.939  14.551  0.1365 -0.2786  0.0340
   78DOPS   GL2  928  14.222   4.152  14.643  0.1771  0.2561  0.2840
   78DOPS   C1A  929  14.156   3.839  14.141 -0.0726 -0.2187 -0.2462
   78DOPS   D2A  930  14.457   3.718  13.742 -0.0233 -0.3000  0.1827
   78DOPS   C3A  931  14.586   3.530  13.318 -0.0620 -0.0636  0.1755
   78DOPS   C4A  932  14.727   3.299  12.972  0.2248 -0.2060 -0.0473
   78DOPS   C1B  933  14.377   4.354  14.251 -0.0305 -0.1132 -0.0491
   78DOPS   D2B  934  14.352   4.240  13.809  0.0157  0.1875  0.4006
   78DOPS   C3B  935  13.999   4.125  13.471 -0.1083  0.0798 -0.2272
   78DOPS   C4B  936  13.633   4.475  13.362 -0.0050  0.0061  0.0034
   79DOPS   CNO  937  12.372   2.672  15.558 -0.1531  0.2455  0.0764
   79DOPS   PO4  938  12.411   2.437  15.307 -0.0156  0.3370 -0.1187
   79DOPS   GL1  939  12.550   2.591  14.901 -0.1427  0.2608  0.4316
   79DOPS   GL2  940  12.816   2.555  14.914  0.1392 -0.0937 -0.0227
   79DOPS   C1A  941  12.451   2.478  14.508  0.0482  0.0068  0.3157
   79DOPS   D2A  942  12.441   2.390  13.973  0.2678  0.4058  0.2112
   79DOPS   C3A  943  12.287   2.561  13.556  0.1111  0.2112 -0.2018
   79DOPS   C4A  944  11.975   2.564  13.187  0.1598 -0.1640  0.2497
   79DOPS   C1B  945  12.931   2.495  14.515  0.0499  0.0785 -0.1251
   79DOPS   D2B  946  12.988   2.386  14.018 -0.0723  0.0627  0.4344
   79DOPS   C3B  947  13.448   2.405  13.923 -0.1042  0.1500  0.0580
   79DOPS   C4B  948  13.891   2.313  13.668 -0.0680  0.1157 -0.1785
   80DOPS   CNO  949   3.248   2.694  15.943  0.2556  0.1125 -0.0517
   80DOPS   PO4  950   3.545   2.718  15.697  0.3018 -0.1530 -0.0087
   80DOPS   GL1  951   3.472   2.610  15.284  0.0108 -0.0834 -0.1054
   80DOPS   GL2  952   3.229   2.776  15.222 -0.2894 -0.1508  0.0676
   80DOPS   C1A  953   3.800   2.560  15.002 -0.0222  0.1736 -0.0009
   80DOPS   D2A  954   4.103   2.693  14.556  0.1436 -0.1148 -0.0356
   80DOPS   C3A  955   4.280   2.828  14.170 -0.0425  0.2971  0.0441
   80DOPS   C4A  956   4.266   2.541  13.774 -0.3976 -0.2916 -0.1581
   80DOPS   C1B  957   3.362   2.795  14.761  0.1119  0.0685 -0.2561
   80DOPS   D2B  958   3.431   2.860  14.293  0.1212 -0.0041 -0.0913
   80DOPS   C3B  959   3.140   2.745  13.930  0.1921  0.0755  0.0379
   80DOPS   C4B  960   2.937   2.408  13.675 -0.0268  0.2160 -0.1593
   81DOPS   CNO  961  24.144   4.922  15.673  0.2104 -0.0010  0.2921
   81DOPS   PO4  962  23.872   5.015  15.429  0.0895 -0.2435 -0.0269
   81DOPS   GL1  963  24.053   4.958  15.095 -0.0437 -0.1696  0.0634
   81DOPS   GL2  964  23.909   5.102  14.915  0.3244  0.1000 -0.1523
   81DOPS   C1A  965  24.335   4.747  14.899  0.0344 -0.1411  0.2509
   81DOPS   D2A  966  24.842   4.666  14.767 -0.2551  0.0105 -0.0729
   81DOPS   C3A  967  25.152   4.347  14.625 -0.0999 -0.0512  0.0196
   81DOPS   C4A  968  25.426   4.077  14.322  0.2729  0.0299  0.1142
   81DOPS   C1B  969  23.962   4.801  14.546 -0.1958 -0.0854 -0.4290
   81DOPS   D2B  970  24.203   4.634  14.099  0.1258  0.2114 -0.0811
   81DOPS   C3B  971  24.102   4.807  13.693 -0.0108  0.2428  0.0661
   81DOPS   C4B  972  24.069   5.023  13.261 -0.0344  0.3155  0.1617
   82DOPS   CNO  973  10.776   6.833  14.974 -0.0714  0.3827  0.0019
   82DOPS   PO4  974  10.886   6.866  14.602  0.3177  0.0666  0.5051
   82DOPS   GL1  975  10.735   6.746  14.293  0.0343 -0.0624 -0.0637
   82DOPS   GL2  976  10.583   6.997  14.266  0.1711 -0.2454 -0.0355
   82DOPS   C1A  977  10.856   6.582  13.968 -0.0410  0.2259  0.1523
   82DOPS   D2A  978  10.980   6.316  13.578  0.1628  0.0798  0.1286
   82DOPS   C3A  979  10.807   6.198  13.176  0.0600  0.4294  0.0289
   82DOPS   C4A  980  10.817   5.847  12.838  0.1843 -0.1892  0.2121
   82DOPS   C1B  981  10.512   7.135  13.800  0.1392 -0.0211  0.1372
   82DOPS   D2B  982  10.496   7.241  13.298  0.1798  0.1905  0.1466
   82DOPS   C3B  983  10.612   7.344  12.846 -0.1102  0.0468 -0.3638
   82DOPS   C4B  984  10.653   7.309  12.335  0.0263 -0.1415 -0.0781
   83DOPS   CNO  985  15.809   5.933  15.240 -0.1676  0.1634  0.0397
   83DOPS   PO4  986  16.075   5.842  14.984 -0.1056 -0.2124 -0.0067
   83DOPS   GL1  987  15.898   5.935  14.643 -0.1297 -0.0671  0.0888
   83DOPS   GL2  988  16.034   6.234  14.616  0.0317 -0.4078  0.0096
   83DOPS   C1A  989  15.659   5.855  14.287 -0.2336 -0.3453  0.1152
   83DOPS   D2A  990  15.595   5.740  13.828  0.0601 -0.1035  0.0281
   83DOPS   C3A  991  15.428   6.065  13.593  0.0001 -0.0191  0.4640
   83DOPS   C4A  992  15.190   6.196  13.143  0.0646 -0.0921 -0.1338
   83DOPS   C1B  993  15.926   6.343  14.193 -0.1574 -0.1277 -0.0907
   83DOPS   D2B  994  15.928   6.186  13.757 -0.0165  0.1490 -0.2229
   83DOPS   C3B  995  15.727   6.339  13.360  0.1520 -0.0422 -0.3020
   83DOPS   C4B  996  15.603   6.444  12.897  0.4594  0.1344 -0.0753
   84DOPS   CNO  997  26.174   7.050  15.040 -0.0891 -0.3093 -0.3782
   84DOPS   PO4  998  25.950   7.220  14.816  0.6326 -0.1138  0.0974
   84DOPS   GL1  999  26.086   7.188  14.361 -0.0471 -0.1001 -0.1675
   84DOPS   GL2 1000  26.376   7.102  14.490  0.1819 -0.0526  0.1354
   84DOPS   C1A 1001  25.990   7.054  13.937  0.0972  0.1961  0.1351
   84DOPS   D2A 1002  25.876   7.002  13.472 -0.0100  0.0079  0.0877
   84DOPS   C3A 1003  25.651   6.843  13.064  0.1979 -0.0532  0.4364
   84DOPS   C4A 1004  25.386   6.590  12.762  0.3355  0.1873 -0.0599
   84DOPS   C1B 1005  26.682   7.019  14.248 -0.1537 -0.3134  0.0152
   84DOPS   D2B 1006  26.952   7.109  13.797  0.1914 -0.2211 -0.1434
   84DOPS   C3B 1007  27.050   6.767  13.510  0.1784  0.0606  0.1007
   84DOPS   C4B 1008  27.400   6.384  13.409  0.0161 -0.3711  0.1877
   85DOPS   CNO 1009  14.742   7.491  15.583 -0.1133  0.2057 -0.1346
   85DOPS   PO4 1010  14.991   7.617  15.341 -0.2863  0.2627 -0.1471
   85DOPS   GL1 1011  14.920   7.520  14.919 -0.0256  0.0784  0.1923
   85DOPS   GL2 1012  14.836   7.754  14.904 -0.0239 -0.0935  0.3356
   85DOPS   C1A 1013  14.932   7.122  14.700  0.1166  0.0979  0.2504
   85DOPS   D2A 1014  14.930   6.686  14.607 -0.2363 -0.1721 -0.0514
   85DOPS   C3A 1015  15.238   6.617  14.262 -0.0449  0.1336  0.0166
   85DOPS   C4A 1016  15.575   6.734  13.935 -0.0975  0.1516  0.0973
   85DOPS   C1B 1017  14.896   7.871  14.455 -0.0516 -0.1793  0.0734
   85DOPS   D2B 1018  15.122   8.011  14.025  0.1054 -0.3133  0.0221
   85DOPS   C3B 1019  15.200   8.154  13.621  0.2489 -0.0708  0.0888
   85DOPS   C4B 1020  15.335   8.371  13.221  0.0756 -0.4053  0.1864
   86DOPS   CNO 1021  30.190   0.726  15.963  0.0953 -0.2227 -0.2151
   86DOPS   PO4 1022  30.010   0.914  15.712  0.1699  0.1717  0.1251
   86DOPS   GL1 1023  30.094   0.954  15.332  0.0737  0.3722  0.1643
   86DOPS   GL2 1024  29.984   0.771  15.100  0.4802  0.2332  0.1858
   86DOPS   C1A 1025  30.155   1.169  14.904  0.3534 -0.1646  0.0467
   86DOPS   D2A 1026  30.071   1.246  14.401 -0.2186  0.0824  0.0123
   86DOPS   C3A 1027  30.120   0.831  14.129  0.2471  0.2275  0.0114
   86DOPS   C4A 1028  30.336   0.433  13.838 -0.3157 -0.2103  0.2008
   86DOPS   C1B 1029  30.197   0.703  14.736 -0.2678 -0.1474  0.2185
   86DOPS   D2B 1030  30.517   0.485  14.327  0.1629  0.1523  0.1314
   86DOPS   C3B 1031  30.901   0.475  14.060 -0.1395 -0.0096 -0.3000
   86DOPS   C4B 1032  31.049   0.178  13.726  0.1833 -0.2287  0.0229
   87DOPS   CNO 1033  12.795   4.231  15.379  0.1055 -0.0287  0.0251
   87DOPS   PO4 1034  12.939   3.899  15.270 -0.0179 -0.0052 -0.0145
   87DOPS   GL1 1035  13.073   3.905  14.851  0.1486 -0.0677 -0.0314
   87DOPS   GL2 1036  13.374   3.912  14.906 -0.0293  0.4911 -0.5227
   87DOPS   C1A 1037  13.203   3.807  14.446 -0.0757 -0.1817  0.1078
   87DOPS   D2A 1038  13.320   3.779  13.947  0.1293 -0.3996  0.0060
   87DOPS   C3A 1039  13.207   3.642  13.473  0.2683 -0.0448 -0.1860
   87DOPS   C4A 1040  12.918   3.952  13.206  0.0144 -0.0801  0.0111
   87DOPS   C1B 1041  13.620   4.051  14.524  0.0908  0.0525 -0.0281
   87DOPS   D2B 1042  13.733   4.109  14.014 -0.0361 -0.3488  0.2640
   87DOPS   C3B 1043  13.473   4.134  13.618 -0.2035  0.1937 -0.0979
   87DOPS   C4B 1044  13.157   4.402  13.373 -0.0407  0.1014  0.2595
   88DOPS   CNO 1045  12.989   0.471  14.705  0.1250 -0.2662 -0.2497
   88DOPS   PO4 1046  12.854   0.855  14.694  0.1891 -0.0574  0.1903
   88DOPS   GL1 1047  12.939   0.772  14.322 -0.0610 -0.0614  0.0182
   88DOPS   GL2 1048  12.748   1.039  14.179 -0.0783 -0.1797 -0.2169
   88DOPS   C1A 1049  12.860   0.466  14.030  0.1069 -0.2373 -0.0790
   88DOPS   D2A 1050  12.744   0.361  13.565 -0.0147 -0.0124 -0.1243
   88DOPS   C3A 1051  12.900   0.251  13.115 -0.0046 -0.0660  0.0971
   88DOPS   C4A 1052  13.136   0.318  12.673  0.0404  0.0427  0.0419
   88DOPS   C1B 1053  12.958   1.006  13.822  0.0693  0.1374 -0.2141
   88DOPS   D2B 1054  13.325   0.968  13.507  0.0722  0.2890  0.3097
   88DOPS   C3B 1055  13.194   1.073  13.109  0.1351 -0.1813  0.0985
   88DOPS   C4B 1056  13.189   0.862  12.680  0.0775  0.1841 -0.3194
   89DOPS   CNO 1057  10.429   6.387  14.961  0.2373 -0.0713  0.1548
   89DOPS   PO4 1058  10.679   6.388  14.661  0.0079 -0.2873  0.5977
   89DOPS   GL1 1059  10.467   6.399  14.256 -0.0998  0.3338  0.3695
   89DOPS   GL2 1060  10.295   6.288  14.413 -0.1366  0.0313  0.2009
   89DOPS   C1A 1061  10.560   6.235  13.825  0.4051  0.0907 -0.0645
   89DOPS   D2A 1062  10.341   6.266  13.392 -0.1086 -0.0300 -0.0629
   89DOPS   C3A 1063  10.361   6.030  13.001  0.2129  0.0151  0.0322
   89DOPS   C4A 1064  10.324   5.862  12.517  0.0379 -0.0974 -0.4910
   89DOPS   C1B 1065  10.107   6.001  14.126 -0.1656 -0.0303 -0.1279
   89DOPS   D2B 1066  10.078   5.965  13.661  0.2728 -0.0176 -0.4984
   89DOPS   C3B 1067   9.829   5.896  13.250  0.3636 -0.3426 -0.0238
   89DOPS   C4B 1068   9.898   5.939  12.784 -0.1758  0.0020 -0.0645
   90DOPS   CNO 1069   1.150   4.195  15.677 -0.1994  0.1151 -0.0530
   90DOPS   PO4 1070   0.979   4.014  15.372 -0.1311 -0.2363  0.1402
   90DOPS   GL1 1071   0.672   4.136  15.071  0.0967  0.1373  0.2962
   90DOPS   GL2 1072   0.831   3.861  14.953 -0.2053  0.0880 -0.1095
   90DOPS   C1A 1073   0.931   4.229  14.719 -0.0026 -0.1664  0.2237
   90DOPS   D2A 1074   1.309   4.394  14.446 -0.1906  0.0042  0.3663
   90DOPS   C3A 1075   1.240   4.776  14.189  0.1781  0.1290  0.0805
   90DOPS   C4A 1076   1.091   5.093  13.844 -0.1434 -0.0578  0.2860
   90DOPS   C1B 1077   0.815   3.709  14.552 -0.1613 -0.2869  0.0335
   90DOPS   D2B 1078   0.520   3.505  14.252  0.0765 -0.1766  0.4161
   90DOPS   C3B 1079   0.138   3.564  13.981  0.4002 -0.2218 -0.0517
   90DOPS   C4B 1080  -0.183   3.859  13.734  0.1104  0.2552  0.0911
   91DOPS   CNO 1081  13.169   7.149  15.217  0.2202  0.0989 -0.1249
   91DOPS   PO4 1082  12.960   7.481  15.231 -0.0067 -0.0420  0.3149
   91DOPS   GL1 1083  12.918   7.772  14.872 -0.3604  0.1925  0.2162
   91DOPS   GL2 1084  13.237   7.669  14.859 -0.1141 -0.2892  0.1845
   91DOPS   C1A 1085  12.858   7.748  14.436  0.0272  0.1000  0.4458
   91DOPS   D2A 1086  12.700   7.846  13.923 -0.1949  0.0176 -0.2032
   91DOPS   C3A 1087  12.803   7.726  13.483 -0.1066  0.0335  0.0739
   91DOPS   C4A 1088  12.996   7.624  13.034 -0.0846  0.2405  0.3007
   91DOPS   C1B 1089  13.371   7.776  14.419 -0.1157 -0.1418 -0.3784
   91DOPS   D2B 1090  13.235   7.883  13.952  0.1565  0.0497 -0.4283
   91DOPS   C3B 1091  13.643   7.869  13.695  0.2633  0.0731 -0.1502
   91DOPS   C4B 1092  14.059   7.845  13.400 -0.1947 -0.3042 -0.0067
   92DOPS   CNO 1093  12.075   2.988  15.291 -0.2997 -0.1296 -0.3404
   92DOPS   PO4 1094  11.854   3.283  15.419  0.2615 -0.0221 -0.2072
   92DOPS   GL1 1095  11.600   3.503  15.035  0.3854 -0.0709  0.2619
   92DOPS   GL2 1096  11.858   3.682  15.030  0.0636 -0.2408  0.0579
   92DOPS   C1A 1097  11.480   3.415  14.643  0.3639  0.0687  0.1415
   92DOPS   D2A 1098  11.213   3.471  14.206 -0.0497 -0.0430  0.0369
   92DOPS   C3A 1099  10.859   3.565  13.863 -0.0410 -0.0764 -0.0538
   92DOPS   C4A 1100  10.623   3.602  13.389 -0.1220  0.2117  0.0193
   92DOPS   C1B 1101  11.974   3.518  14.626 -0.0898  0.0197 -0.0845
   92DOPS   D2B 1102  11.866   3.319  14.231  0.0787  0.2510  0.3227
   92DOPS   C3B 1103  11.885   3.474  13.828  0.0112  0.1118 -0.0078
   92DOPS   C4B 1104  11.757   3.574  13.372 -0.1872 -0.0986  0.2414
   93DOPS   CNO 1105   8.031   0.038  14.571  0.2100  0.0445 -0.1796
   93DOPS   PO4 1106   7.819   0.271  14.814  0.1942 -0.0177  0.0399
   93DOPS   GL1 1107   7.573   0.241  14.475  0.4835 -0.0179  0.1654
   93DOPS   GL2 1108   7.396   0.409  14.422 -0.1211 -0.1314  0.2056
   93DOPS   C1A 1109   7.638  -0.042  14.192 -0.1131 -0.2893 -0.2000
   93DOPS   D2A 1110   7.747  -0.492  14.042 -0.0559  0.0430  0.1207
   93DOPS   C3A 1111   8.167  -0.367  13.825 -0.1667 -0.3057  0.1675
   93DOPS   C4A 1112   8.503  -0.008  13.781 -0.0240  0.0778 -0.0992
   93DOPS   C1B 1113   7.189   0.180  14.118 -0.0077  0.0416 -0.0750
   93DOPS   D2B 1114   7.195  -0.213  13.877 -0.1334  0.2338 -0.2919
   93DOPS   C3B 1115   7.377  -0.566  13.650 -0.0187  0.2600 -0.0473
   93DOPS   C4B 1116   7.483  -0.836  13.238  0.3232 -0.2461 -0.2748
   94DOPS   CNO 1117  13.701   0.302  14.746 -0.0855  0.1440 -0.1562
   94DOPS   PO4 1118  13.526   0.642  14.799  0.2560 -0.0044  0.1890
   94DOPS   GL1 1119  13.670   0.681  14.369 -0.2406  0.0670 -0.4041
   94DOPS   GL2 1120  13.394   0.664  14.306 -0.4771  0.2091  0.3308
   94DOPS   C1A 1121  13.767   0.779  13.969 -0.2535  0.3442  0.0792
   94DOPS   D2A 1122  13.871   0.467  13.550  0.4187 -0.0476  0.1031
   94DOPS   C3A 1123  13.802   0.315  13.094 -0.2738 -0.0523 -0.2120
   94DOPS   C4A 1124  14.050   0.313  12.637 -0.1982 -0.1217  0.2962
   94DOPS   C1B 1125  13.310   0.623  13.871  0.0134  0.2828 -0.0586
   94DOPS   D2B 1126  13.219   0.317  13.461 -0.2670 -0.1555  0.1217
   94DOPS   C3B 1127  13.364   0.582  13.074  0.2320  0.0213  0.0559
   94DOPS   C4B 1128  13.661   0.725  12.667  0.1008  0.0882  0.1125
   95DOPS   CNO 1129  10.539   4.598  15.512 -0.0753  0.1173 -0.0717
   95DOPS   PO4 1130  10.778   4.655  15.255  0.0550 -0.1208 -0.0267
   95DOPS   GL1 1131  11.084   4.583  14.887  0.1745 -0.0226 -0.0465
   95DOPS   GL2 1132  10.844   4.679  14.736 -0.1315  0.1660  0.1685
   95DOPS   C1A 1133  11.313   4.348  14.652 -0.0767  0.0827  0.1250
   95DOPS   D2A 1134  11.433   4.141  14.215 -0.0446  0.0701 -0.0021
   95DOPS   C3A 1135  11.479   3.773  13.872  0.2154 -0.1294 -0.2454
   95DOPS   C4A 1136  11.145   3.777  13.485  0.1902 -0.1539  0.0021
   95DOPS   C1B 1137  10.885   4.512  14.259 -0.0088 -0.0664 -0.2762
   95DOPS   D2B 1138  11.093   4.614  13.836 -0.0988  0.0642 -0.0386
   95DOPS   C3B 1139  11.146   4.309  13.471 -0.0435 -0.1833  0.1924
   95DOPS   C4B 1140  11.596   4.075  13.351  0.0143 -0.1530 -0.0199
   96DOPS   CNO 1141  23.661   4.107  15.808  0.0753 -0.0735  0.1360
   96DOPS   PO4 1142  23.939   4.108  15.513 -0.0516 -0.0563  0.0387
   96DOPS   GL1 1143  23.864   3.872  15.155  0.0753 -0.4264 -0.0343
   96DOPS   GL2 1144  23.821   4.147  15.066 -0.1139 -0.0581  0.2229
   96DOPS   C1A 1145  23.787   3.418  15.023  0.0456  0.1120 -0.2035
   96DOPS   D2A 1146  23.950   2.963  14.925 -0.0211  0.4142 -0.1062
   96DOPS   C3A 1147  24.063   2.747  14.593 -0.0755 -0.0593  0.1341
   96DOPS   C4A 1148  24.128   2.689  14.132  0.3033  0.0232  0.0569
   96DOPS   C1B 1149  23.884   4.325  14.672  0.1165 -0.0842  0.0032
   96DOPS   D2B 1150  23.801   4.369  14.143 -0.2036  0.2207  0.2401
   96DOPS   C3B 1151  24.113   4.222  13.894 -0.1231  0.2114  0.0286
   96DOPS   C4B 1152  24.516   4.088  13.973 -0.1726 -0.0483 -0.1704
   97DOPS   CNO 1153  17.150   5.102  15.388 -0.0260 -0.1590  0.1459
   97DOPS   PO4 1154  16.876   5.194  15.157  0.1978 -0.2297  0.0263
   97DOPS   GL1 1155  16.877   5.242  14.762  0.1015  0.1888 -0.0221
   97DOPS   GL2 1156  17.185   5.285  14.699  0.1332 -0.0170 -0.0810
   97DOPS   C1A 1157  16.511   5.238  14.463  0.0197 -0.1620 -0.1039
   97DOPS   D2A 1158  16.326   5.404  14.075  0.3183 -0.0439  0.1613
   97DOPS   C3A 1159  16.268   5.901  14.032  0.0097 -0.0640  0.0957
   97DOPS   C4A 1160  16.410   6.243  14.249  0.1240 -0.3454 -0.0779
   97DOPS   C1B 1161  17.286   5.336  14.296  0.0725 -0.0438  0.1499
   97DOPS   D2B 1162  17.106   5.107  13.925  0.0610 -0.4036 -0.0975
   97DOPS   C3B 1163  17.181   5.173  13.470 -0.0927 -0.2110 -0.2723
   97DOPS   C4B 1164  17.275   5.121  13.024  0.1152 -0.2049  0.0137
   98DOPS   CNO 1165   6.706   3.123  15.564 -0.1781  0.1243  0.0165
   98DOPS   PO4 1166   6.966   3.044  15.296 -0.1917 -0.0088  0.1831
   98DOPS   GL1 1167   6.881   3.135  14.827 -0.0176 -0.2023 -0.2590
   98DOPS   GL2 1168   6.779   2.934  14.865 -0.0235  0.2270  0.0985
   98DOPS   C1A 1169   6.892   3.217  14.377 -0.1018  0.3289  0.2410
   98DOPS   D2A 1170   6.831   3.340  13.855  0.1963  0.0146  0.0137
   98DOPS   C3A 1171   6.402   3.473  13.656  0.1202  0.0223 -0.0045
   98DOPS   C4A 1172   6.162   3.811  13.368 -0.1133  0.2373  0.2155
   98DOPS   C1B 1173   6.901   2.760  14.506  0.0593 -0.2222  0.1678
   98DOPS   D2B 1174   6.821   2.628  13.999 -0.0240  0.1545  0.2221
   98DOPS   C3B 1175   6.440   2.379  13.796 -0.0913 -0.1820  0.1331
   98DOPS   C4B 1176   6.146   2.171  13.489  0.0920  0.2957  0.0704
   99DOPS   CNO 1177  31.306   1.394  15.546 -0.2794  0.3650  0.0840
   99DOPS   PO4 1178  30.926   1.299  15.581 -0.0054  0.3122 -0.0981
   99DOPS   GL1 1179  30.952   1.371  15.203 -0.0868 -0.1470 -0.3466
   99DOPS   GL2 1180  31.044   1.674  15.128  0.1713 -0.3142 -0.0769
   99DOPS   C1A 1181  30.857   1.204  14.788  0.4351  0.1883 -0.0094
   99DOPS   D2A 1182  30.529   1.033  14.404 -0.2094  0.0773  0.2359
   99DOPS   C3A 1183  30.632   0.846  13.962 -0.1254  0.0749 -0.1221
   99DOPS   C4A 1184  30.716   0.537  13.612  0.2235 -0.3041 -0.2969
   99DOPS   C1B 1185  31.103   1.612  14.674 -0.1020  0.1062 -0.0940
   99DOPS   D2B 1186  31.219   1.764  14.231  0.1118 -0.0270  0.2775
   99DOPS   C3B 1187  31.616   2.016  14.169  0.0820  0.0026  0.1111
   99DOPS   C4B 1188  31.902   2.206  13.782 -0.3750 -0.1595 -0.1050
  100DOPS   CNO 1189  16.493   0.862  15.241 -0.1491  0.0073 -0.0380
  100DOPS   PO4 1190  16.822   0.860  15.060  0.2599  0.1015 -0.2021
  100DOPS   GL1 1191  16.781   0.856  14.603  0.0684  0.2677  0.1596
  100DOPS   GL2 1192  16.735   1.191  14.646 -0.3081 -0.0838  0.3105
  100DOPS   C1A 1193  16.906   0.587  14.276 -0.1598  0.0023  0.0495
  100DOPS   D2A 1194  16.763   0.398  13.853  0.0965  0.0728 -0.2288
  100DOPS   C3A 1195  16.632   0.467  13.380  0.0013 -0.1144 -0.2186
  100DOPS   C4A 1196  16.201   0.487  13.242  0.1665  0.0692  0.3540
  100DOPS   C1B 1197  16.475   1.352  14.290 -0.1448  0.1653 -0.0880
  100DOPS   D2B 1198  16.200   1.406  13.888 -0.1930 -0.2356  0.4937
  100DOPS   C3B 1199  16.391   1.525  13.428  0.2188 -0.1488  0.1485
  100DOPS   C4B 1200  16.724   1.327  13.097  0.0012 -0.0226  0.0064
  101DOPC   NC3 1201  24.562   4.201  10.894  0.1448 -0.0069 -0.0135
  101DOPC   PO4 1202  24.772   4.099  11.232  0.4125  0.1025 -0.0392
  101DOPC   GL1 1203  24.651   4.312  11.589  0.0609 -0.3593 -0.2495
  101DOPC   GL2 1204  24.643   4.011  11.727  0.1618  0.1778 -0.0856
  101DOPC   C1A 1205  24.590   4.500  11.965 -0.0819 -0.1945  0.1219
  101DOPC   D2A 1206  24.524   4.576  12.440  0.1323 -0.1938  0.0158
  101DOPC   C3A 1207  24.916   4.770  12.634 -0.0089 -0.2295  0.2879
  101DOPC   C4A 1208  25.170   5.132  12.667 -0.1585 -0.0602  0.2193
  101DOPC   C1B 1209  24.708   3.996  12.162  0.0720 -0.0162 -0.1959
  101DOPC   D2B 1210  24.569   4.037  12.621  0.1529 -0.0361 -0.3045
  101DOPC   C3B 1211  24.541   4.453  12.912 -0.1660  0.1607  0.2959
  101DOPC   C4B 1212  24.388   4.682  13.274  0.0472  0.0443 -0.2374
  102DOPC   NC3 1213  30.614   3.458  11.436  0.0196 -0.1479 -0.0196
  102DOPC   PO4 1214  30.591   3.067  11.437 -0.1222  0.1890 -0.1133
  102DOPC   GL1 1215  30.385   2.885  11.809  0.0519 -0.0968  0.0924
  102DOPC   GL2 1216  30.560   3.110  11.908  0.1006 -0.0968 -0.1479
  102DOPC   C1A 1217  30.286   2.475  12.045 -0.1435 -0.0349 -0.1641
  102DOPC   D2A 1218  30.012   2.202  12.288 -0.0285 -0.3359  0.1847
  102DOPC   C3A 1219  29.920   1.932  12.701  0.1555 -0.0750 -0.0369
  102DOPC   C4A 1220  29.931   1.619  13.108 -0.1641  0.0431  0.0020
  102DOPC   C1B 1221  30.419   3.503  12.090  0.1698 -0.2193 -0.0937
  102DOPC   D2B 1222  30.253   3.635  12.532 -0.1412  0.0126  0.1125
  102DOPC   C3B 1223  30.148   3.294  12.779  0.0947 -0.1589 -0.2930
  102DOPC   C4B 1224  30.012   2.888  13.093 -0.2157  0.0600 -0.1421
  103DOPC   NC3 1225   2.122   7.712  11.405 -0.0064 -0.1358 -0.2157
  103DOPC   PO4 1226   2.167   8.024  11.644  0.3385  0.3061 -0.0990
  103DOPC   GL1 1227   1.958   8.064  12.035 -0.0038 -0.0934  0.0637
  103DOPC   GL2 1228   1.888   8.322  11.938 -0.0918 -0.0018  0.2736
  103DOPC   C1A 1229   2.091   8.044  12.424  0.2044 -0.0097  0.3892
  103DOPC   D2A 1230   2.468   8.124  12.775 -0.2654  0.0410  0.0769
  103DOPC   C3A 1231   2.663   7.907  13.100  0.0701  0.1259 -0.1159
  103DOPC   C4A 1232   2.979   7.639  13.323  0.1840 -0.0033  0.1705
  103DOPC   C1B 1233   1.634   8.389  12.336 -0.0937  0.1268 -0.0163
  103DOPC   D2B 1234   1.790   8.180  12.779 -0.1667  0.0203 -0.0953
  103DOPC   C3B 1235   1.606   8.309  13.146  0.1434 -0.1689 -0.2057
  103DOPC   C4B 1236   1.163   8.391  13.346  0.2093  0.2621 -0.2227
  104DOPC   NC3 1237   1.168   0.887  11.626 -0.2183 -0.0967  0.1183
  104DOPC   PO4 1238   0.874   0.633  11.657 -0.1341  0.1952 -0.0541
  104DOPC   GL1 1239   0.809   0.653  11.983 -0.0259 -0.2280 -0.0674
  104DOPC   GL2 1240   0.588   0.556  12.147 -0.1870 -0.1315  0.3498
  104DOPC   C1A 1241   1.137   0.790  12.214 -0.0715 -0.0109 -0.0338
  104DOPC   D2A 1242   1.447   0.955  12.619 -0.1105 -0.0736 -0.1663
  104DOPC   C3A 1243   1.754   0.929  12.994 -0.2626  0.3235  0.5893
  104DOPC   C4A 1244   2.129   0.988  13.300  0.0137  0.2276 -0.0237
  104DOPC   C1B 1245   0.799   0.530  12.531  0.1137 -0.0103 -0.3167
  104DOPC   D2B 1246   0.784   0.405  13.060  0.0030 -0.0008 -0.0556
  104DOPC   C3B 1247   0.705   0.767  13.397 -0.0605 -0.1979  0.0240
  104DOPC   C4B 1248   0.569   0.939  13.807  0.0720 -0.0322 -0.0466
  105DOPC   NC3 1249  17.256   4.817  10.296 -0.2220  0.0526  0.0710
  105DOPC   PO4 1250  17.453   5.150  10.453  0.0100  0.1247  0.1739
  105DOPC   GL1 1251  17.813   5.166  10.797 -0.1533 -0.1700  0.0334
  105DOPC   GL2 1252  17.548   5.149  11.018 -0.1157 -0.2352 -0.0712
  105DOPC   C1A 1253  18.026   4.977  11.215  0.0406  0.1065  0.1348
  105DOPC   D2A 1254  18.388   4.672  11.302 -0.1098  0.1450 -0.1596
  105DOPC   C3A 1255  18.516   4.639  11.787  0.0387  0.2305  0.2581
  105DOPC   C4A 1256  18.392   4.579  12.299 -0.0595  0.2279  0.0205
  105DOPC   C1B 1257  17.803   5.420  11.291 -0.1882 -0.0270 -0.1428
  105DOPC   D2B 1258  18.004   5.539  11.727 -0.2765  0.0797  0.2726
  105DOPC   C3B 1259  17.890   5.678  12.211 -0.0998 -0.0057  0.0427
  105DOPC   C4B 1260  17.862   5.725  12.712  0.0257 -0.1333 -0.0804
  106DOPC   NC3 1261   4.211   4.556  11.552  0.0873 -0.0167 -0.0413
  106DOPC   PO4 1262   4.506   4.814  11.539 -0.1033  0.1428  0.1783
  106DOPC   GL1 1263   4.608   4.900  11.880 -0.1589  0.0957 -0.1544
  106DOPC   GL2 1264   4.892   4.753  11.906 -0.1489  0.0783  0.3471
  106DOPC   C1A 1265   4.452   5.073  12.272  0.0414 -0.1470 -0.2896
  106DOPC   D2A 1266   4.114   5.156  12.629 -0.0606 -0.3584  0.3587
  106DOPC   C3A 1267   3.624   4.991  12.610 -0.2813 -0.2742  0.1996
  106DOPC   C4A 1268   3.168   4.791  12.702 -0.3027  0.1675 -0.1168
  106DOPC   C1B 1269   4.973   4.888  12.343  0.3926  0.0067 -0.2289
  106DOPC   D2B 1270   5.118   5.029  12.777 -0.1787 -0.1707 -0.0796
  106DOPC   C3B 1271   5.462   5.029  13.138 -0.0670 -0.1568 -0.0009
  106DOPC   C4B 1272   5.494   5.006  13.651  0.3659 -0.3217 -0.0539
  107DOPC   NC3 1273  21.816   3.138  10.664  0.3228 -0.0859 -0.4507
  107DOPC   PO4 1274  21.952   3.503  10.729 -0.0291 -0.2494 -0.0765
  107DOPC   GL1 1275  22.149   3.493  11.093  0.3497 -0.0667  0.0725
  107DOPC   GL2 1276  22.223   3.205  11.119 -0.1494  0.0995  0.1284
  107DOPC   C1A 1277  22.332   3.673  11.500  0.0795  0.0159  0.0186
  107DOPC   D2A 1278  22.484   3.555  11.988  0.0813  0.0647 -0.2338
  107DOPC   C3A 1279  22.493   3.481  12.417  0.1138 -0.1586  0.3762
  107DOPC   C4A 1280  22.552   3.876  12.739 -0.1854  0.2154  0.1557
  107DOPC   C1B 1281  22.157   2.934  11.445  0.0327  0.1407  0.3640
  107DOPC   D2B 1282  21.903   2.527  11.613  0.2403 -0.0149  0.2279
  107DOPC   C3B 1283  21.912   2.365  12.114  0.0578 -0.1613  0.0220
  107DOPC   C4B 1284  22.002   2.153  12.550  0.2828 -0.1463 -0.0891
  108DOPC   NC3 1285   5.935   6.911  11.088  0.3018 -0.0839 -0.1736
  108DOPC   PO4 1286   6.281   7.055  11.226  0.0537  0.0195 -0.0113
  108DOPC   GL1 1287   6.601   6.763  11.411  0.1958  0.1274 -0.1002
  108DOPC   GL2 1288   6.748   7.008  11.327 -0.0757 -0.1653 -0.2088
  108DOPC   C1A 1289   6.612   6.537  11.817  0.2424 -0.2314  0.0479
  108DOPC   D2A 1290   6.610   6.487  12.352 -0.0727 -0.1139  0.2082
  108DOPC   C3A 1291   6.543   6.534  12.820  0.2486  0.1231  0.0973
  108DOPC   C4A 1292   6.309   6.602  13.210  0.2277 -0.0692 -0.0564
  108DOPC   C1B 1293   6.860   7.152  11.700  0.1087  0.2802  0.3385
  108DOPC   D2B 1294   6.742   7.478  12.108  0.3183  0.1865  0.0519
  108DOPC   C3B 1295   7.132   7.794  12.128  0.2487  0.6330  0.0493
  108DOPC   C4B 1296   7.357   8.145  12.299 -0.1659 -0.0082 -0.1091
  109DOPC   NC3 1297  27.660   7.788  10.488  0.3233 -0.3319  0.0149
  109DOPC   PO4 1298  27.395   7.774  10.819  0.0548  0.2515  0.1508
  109DOPC   GL1 1299  27.273   7.943  11.186 -0.1704  0.0318 -0.0921
  109DOPC   GL2 1300  27.420   7.721  11.358 -0.0721  0.1411  0.1606
  109DOPC   C1A 1301  27.261   8.259  11.480 -0.0778 -0.0547 -0.3552
  109DOPC   D2A 1302  27.361   8.550  11.906  0.0907 -0.0229  0.0105
  109DOPC   C3A 1303  27.283   8.455  12.362 -0.0409  0.0838 -0.1156
  109DOPC   C4A 1304  27.471   8.513  12.827 -0.0878 -0.1843  0.0903
  109DOPC   C1B 1305  27.373   7.719  11.733 -0.2338 -0.0281 -0.0784
  109DOPC   D2B 1306  27.256   7.605  12.228 -0.0660  0.1612  0.0141
  109DOPC   C3B 1307  27.321   7.855  12.594 -0.0695 -0.1019 -0.1794
  109DOPC   C4B 1308  27.470   7.946  13.101 -0.0367  0.3572 -0.1751
  110DOPC   NC3 1309  30.805   0.266  11.447  0.2478  0.0772 -0.5601
  110DOPC   PO4 1310  30.444   0.288  11.653  0.3574  0.1349 -0.0611
  110DOPC   GL1 1311  30.533   0.256  12.102 -0.4678  0.1087 -0.4905
  110DOPC   GL2 1312  30.240   0.323  12.122  0.1403  0.1706 -0.3451
  110DOPC   C1A 1313  30.645   0.029  12.513  0.0371 -0.1743  0.0041
  110DOPC   D2A 1314  30.613  -0.163  12.997  0.5666  0.4176  0.1691
  110DOPC   C3A 1315  31.082  -0.224  13.179  0.1659  0.2929 -0.0290
  110DOPC   C4A 1316  31.482  -0.347  13.316 -0.3010  0.1025  0.2434
  110DOPC   C1B 1317  30.079   0.144  12.367  0.1408  0.0601 -0.3048
  110DOPC   D2B 1318  29.814  -0.032  12.728  0.2129 -0.0735  0.2127
  110DOPC   C3B 1319  29.699   0.004  13.219 -0.2614  0.2114 -0.1885
  110DOPC   C4B 1320  29.697   0.228  13.597  0.1246  0.1177 -0.1258
  111DOPC   NC3 1321  12.860   6.725  11.057 -0.1514  0.1551 -0.2050
  111DOPC   PO4 1322  13.072   6.819  10.750  0.1219  0.1371 -0.1123
  111DOPC   GL1 1323  13.398   6.770  10.950 -0.0059  0.1420  0.0122
  111DOPC   GL2 1324  13.405   6.456  11.029 -0.0102 -0.3409 -0.1604
  111DOPC   C1A 1325  13.327   7.055  11.347  0.0472  0.2138  0.0102
  111DOPC   D2A 1326  13.357   7.275  11.785  0.0026  0.0468  0.2167
  111DOPC   C3A 1327  13.377   7.314  12.277 -0.0350 -0.1342  0.0174
  111DOPC   C4A 1328  13.787   7.367  12.568  0.0885  0.0782 -0.2070
  111DOPC   C1B 1329  13.191   6.180  11.271  0.0859  0.0153 -0.0038
  111DOPC   D2B 1330  12.843   5.983  11.601 -0.0141  0.0066 -0.0789
  111DOPC   C3B 1331  12.931   5.741  11.898  0.2136 -0.1085  0.2128
  111DOPC   C4B 1332  12.572   5.457  12.128 -0.0564 -0.2645 -0.1738
  112DOPC   NC3 1333  23.147   6.465  10.841 -0.0197  0.0270 -0.0650
  112DOPC   PO4 1334  23.150   6.876  10.862 -0.1066  0.0487  0.3035
  112DOPC   GL1 1335  22.919   7.106  11.169  0.1326 -0.5658 -0.4408
  112DOPC   GL2 1336  23.162   7.320  11.099  0.1786  0.0460  0.0444
  112DOPC   C1A 1337  22.717   6.896  11.531 -0.0393 -0.0158  0.1134
  112DOPC   D2A 1338  22.662   6.466  11.794 -0.3464 -0.0538  0.0219
  112DOPC   C3A 1339  22.442   6.237  12.153 -0.1337  0.0437 -0.2331
  112DOPC   C4A 1340  22.258   6.317  12.567  0.0400 -0.0641 -0.1455
  112DOPC   C1B 1341  23.179   7.213  11.540 -0.2535 -0.0279 -0.2071
  112DOPC   D2B 1342  23.235   7.257  11.997  0.2120  0.0194  0.0229
  112DOPC   C3B 1343  23.161   7.438  12.426  0.1449  0.1823 -0.0767
  112DOPC   C4B 1344  23.168   7.451  12.916  0.0916 -0.0889 -0.0132
  113DOPC   NC3 1345  30.588   4.244  11.687 -0.0706  0.2802  0.2047
  113DOPC   PO4 1346  30.720   3.858  11.665  0.1466 -0.3615  0.0409
  113DOPC   GL1 1347  30.957   3.635  11.903 -0.0458 -0.1701  0.2475
  113DOPC   GL2 1348  31.286   3.750  11.895 -0.0305  0.1147 -0.1296
  113DOPC   C1A 1349  31.084   3.612  12.304  0.2931 -0.1631  0.2343
  113DOPC   D2A 1350  30.723   3.546  12.641  0.0755 -0.1182  0.0327
  113DOPC   C3A 1351  30.721   3.623  13.073  0.2521 -0.2122 -0.3472
  113DOPC   C4A 1352  30.697   3.620  13.535 -0.2950  0.1084 -0.7534
  113DOPC   C1B 1353  31.509   3.868  12.211  0.2023 -0.1447 -0.0680
  113DOPC   D2B 1354  31.803   3.644  12.536 -0.0687  0.0325  0.3557
  113DOPC   C3B 1355  31.865   3.511  12.987  0.2976  0.0705  0.2417
  113DOPC   C4B 1356  31.906   3.283  13.427 -0.0785  0.2547  0.0746
  114DOPC   NC3 1357  31.208   3.992  11.535  0.1236 -0.1743  0.1232
  114DOPC   PO4 1358  31.101   4.227  11.864 -0.3251  0.2144 -0.0225
  114DOPC   GL1 1359  31.008   4.409  12.261 -0.0562  0.1731  0.0714
  114DOPC   GL2 1360  30.966   4.126  12.330  0.3689  0.1559  0.2828
  114DOPC   C1A 1361  31.082   4.561  12.689 -0.1199 -0.0151 -0.0317
  114DOPC   D2A 1362  31.223   4.663  13.157  0.0459 -0.0554 -0.1679
  114DOPC   C3A 1363  31.100   4.808  13.577 -0.0488  0.3837  0.1837
  114DOPC   C4A 1364  30.875   5.023  13.922  0.1471  0.0779  0.1308
  114DOPC   C1B 1365  30.889   4.075  12.686  0.4632 -0.0057 -0.0544
  114DOPC   D2B 1366  31.090   4.114  13.119 -0.2443  0.1383  0.2705
  114DOPC   C3B 1367  31.199   3.683  13.224 -0.0677 -0.2730 -0.1699
  114DOPC   C4B 1368  31.450   3.291  13.113 -0.0113 -0.2544 -0.3869
  115DOPC   NC3 1369   7.459   4.127  10.613 -0.1145 -0.0545 -0.1231
  115DOPC   PO4 1370   7.412   3.930  10.960  0.2172  0.1013 -0.4535
  115DOPC   GL1 1371   7.476   3.856  11.393  0.0375 -0.1999  0.1062
  115DOPC   GL2 1372   7.223   3.921  11.354  0.1271 -0.6622 -0.2349
  115DOPC   C1A 1373   7.743   3.656  11.642  0.0563 -0.0918 -0.0485
  115DOPC   D2A 1374   7.905   3.369  12.038 -0.0169  0.1021 -0.0100
  115DOPC   C3A 1375   7.802   3.526  12.445  0.2740  0.1647 -0.1626
  115DOPC   C4A 1376   7.691   3.760  12.898  0.0008  0.1034 -0.4259
  115DOPC   C1B 1377   6.959   4.024  11.747 -0.3596 -0.0775 -0.0629
  115DOPC   D2B 1378   6.835   3.844  12.172  0.0832  0.3180 -0.3678
  115DOPC   C3B 1379   6.607   3.776  12.635 -0.1431 -0.0305  0.2312
  115DOPC   C4B 1380   6.649   3.716  13.050 -0.4404  0.0203 -0.0156
  116DOPC   NC3 1381  14.804   6.155  10.745  0.0128  0.0137  0.1166
  116DOPC   PO4 1382  14.896   5.942  11.080 -0.1330 -0.4342  0.2241
  116DOPC   GL1 1383  14.660   5.941  11.464 -0.0980 -0.0981  0.2115
  116DOPC   GL2 1384  14.961   5.881  11.534  0.2831 -0.0570 -0.0164
  116DOPC   C1A 1385  14.363   6.012  11.696 -0.1166  0.2599  0.1918
  116DOPC   D2A 1386  13.947   6.095  11.931 -0.4614 -0.0590  0.2622
  116DOPC   C3A 1387  13.872   5.839  12.314  0.0147 -0.2436  0.0539
  116DOPC   C4A 1388  13.798   5.665  12.751 -0.1065 -0.2339  0.0117
  116DOPC   C1B 1389  14.809   5.832  11.928 -0.0366  0.0825 -0.2102
  116DOPC   D2B 1390  14.661   5.869  12.428 -0.0846 -0.3445 -0.4281
  116DOPC   C3B 1391  14.684   5.552  12.757  0.0419 -0.0932 -0.1233
  116DOPC   C4B 1392  14.811   5.210  13.029 -0.0621  0.3083  0.0338
  117DOPC   NC3 1393  28.240   0.102  11.018 -0.1725  0.1691 -0.2560
  117DOPC   PO4 1394  28.607   0.217  11.026  0.0633 -0.1983  0.2018
  117DOPC   GL1 1395  28.570   0.186  11.394  0.4140  0.0237 -0.3629
  117DOPC   GL2 1396  28.667  -0.049  11.304 -0.2049  0.0914 -0.0543
  117DOPC   C1A 1397  28.151   0.218  11.560 -0.2128  0.3272  0.0223
  117DOPC   D2A 1398  27.679   0.359  11.702  0.3474  0.3468  0.0591
  117DOPC   C3A 1399  27.498   0.260  12.082 -0.0922  0.2361  0.0764
  117DOPC   C4A 1400  27.717   0.396  12.486 -0.3224  0.0313  0.0210
  117DOPC   C1B 1401  28.422  -0.280  11.593 -0.2448  0.0072 -0.1961
  117DOPC   D2B 1402  28.307  -0.389  12.089 -0.1661  0.0187 -0.1147
  117DOPC   C3B 1403  28.517  -0.644  12.388 -0.2115 -0.1504  0.2522
  117DOPC   C4B 1404  28.936  -0.920  12.371 -0.0933  0.0743  0.2234
  118DOPC   NC3 1405  22.680   3.200  10.886 -0.1343  0.1019 -0.0730
  118DOPC   PO4 1406  22.483   3.506  10.791  0.2290 -0.1639  0.1124
  118DOPC   GL1 1407  22.626   3.562  11.170 -0.1698 -0.3155 -0.1557
  118DOPC   GL2 1408  22.943   3.631  11.102 -0.2428 -0.1148 -0.2813
  118DOPC   C1A 1409  22.591   3.270  11.511 -0.5128  0.0036 -0.2727
  118DOPC   D2A 1410  22.498   3.040  11.886  0.0391 -0.0657 -0.0587
  118DOPC   C3A 1411  22.671   2.824  12.267  0.0105 -0.0512  0.3546
  118DOPC   C4A 1412  22.941   2.546  12.605 -0.2162 -0.1207 -0.1193
  118DOPC   C1B 1413  22.931   3.748  11.496 -0.0525 -0.3514  0.0434
  118DOPC   D2B 1414  22.901   3.812  11.986  0.1678 -0.0928 -0.0970
  118DOPC   C3B 1415  22.938   3.660  12.408 -0.3895 -0.1297 -0.0528
  118DOPC   C4B 1416  22.762   3.423  12.886 -0.2600  0.0127 -0.1639
  119DOPC   NC3 1417   6.663   0.186  10.954 -0.1894 -0.1166 -0.5310
  119DOPC   PO4 1418   6.243   0.111  11.006 -0.2732  0.1942  0.0595
  119DOPC   GL1 1419   6.043   0.041  11.328 -0.0288  0.0424  0.1813
  119DOPC   GL2 1420   6.196  -0.260  11.393  0.0904 -0.1370 -0.1550
  119DOPC   C1A 1421   6.114   0.063  11.793 -0.1308 -0.1580 -0.2473
  119DOPC   D2A 1422   6.406   0.015  12.233  0.0098 -0.0637 -0.2196
  119DOPC   C3A 1423   6.805   0.219  12.403  0.1050 -0.0192 -0.1398
  119DOPC   C4A 1424   7.108   0.458  12.756  0.0578  0.0192  0.0849
  119DOPC   C1B 1425   6.340  -0.437  11.801  0.2558 -0.2126  0.0033
  119DOPC   D2B 1426   6.188  -0.449  12.269 -0.2988  0.3809 -0.2757
  119DOPC   C3B 1427   6.462  -0.254  12.638 -0.0625 -0.1057  0.2632
  119DOPC   C4B 1428   6.565  -0.244  13.105 -0.0198  0.2407  0.0066
  120DOPC   NC3 1429  22.650   4.379  10.490  0.3227  0.2144  0.0079
  120DOPC   PO4 1430  22.577   4.485  10.844  0.0692  0.2558 -0.0618
  120DOPC   GL1 1431  22.205   4.415  11.079  0.1139 -0.0873 -0.4093
  120DOPC   GL2 1432  22.137   4.683  11.167 -0.0740  0.5016  0.0175
  120DOPC   C1A 1433  22.098   4.155  11.424 -0.1162  0.1191  0.0780
  120DOPC   D2A 1434  21.945   3.909  11.858  0.1373 -0.1738 -0.1062
  120DOPC   C3A 1435  21.666   3.922  12.154  0.0573 -0.0316 -0.1878
  120DOPC   C4A 1436  21.377   3.692  12.482 -0.2914 -0.1049  0.0347
  120DOPC   C1B 1437  21.861   4.563  11.476 -0.0813 -0.4121 -0.1920
  120DOPC   D2B 1438  21.438   4.374  11.591  0.2650  0.0305  0.1917
  120DOPC   C3B 1439  21.666   4.396  11.945 -0.1045  0.0029  0.0971
  120DOPC   C4B 1440  21.811   4.369  12.359  0.2647 -0.2824 -0.1162
  121DOPC   NC3 1441   0.554   1.105  11.668  0.0089 -0.0785  0.2388
  121DOPC   PO4 1442   0.159   1.118  11.643  0.1892 -0.2790  0.0537
  121DOPC   GL1 1443  -0.162   1.137  11.835 -0.0098 -0.3190 -0.0410
  121DOPC   GL2 1444  -0.376   1.315  11.701 -0.4303 -0.1262  0.1083
  121DOPC   C1A 1445  -0.377   0.999  12.178  0.2792  0.1100  0.0716
  121DOPC   D2A 1446  -0.754   0.981  12.501  0.1679  0.0679 -0.2055
  121DOPC   C3A 1447  -0.937   0.787  12.897  0.2603  0.1360 -0.0794
  121DOPC   C4A 1448  -1.171   0.596  13.310 -0.0419 -0.1734 -0.1426
  121DOPC   C1B 1449  -0.715   1.382  11.967 -0.2334 -0.0368  0.0787
  121DOPC   D2B 1450  -1.132   1.130  12.201  0.0886  0.2306  0.0693
  121DOPC   C3B 1451  -1.294   1.023  12.611  0.3057 -0.1137  0.1132
  121DOPC   C4B 1452  -1.538   1.051  13.015 -0.0844 -0.2550 -0.1545
  122DOPC   NC3 1453   9.894   1.659  10.807  0.0170 -0.2177  0.3048
  122DOPC   PO4 1454   9.972   2.094  10.807 -0.0741  0.0673 -0.0311
  122DOPC   GL1 1455   9.862   2.334  11.251  0.4679  0.1796 -0.0541
  122DOPC   GL2 1456  10.142   2.277  11.195 -0.0371 -0.3266  0.1110
  122DOPC   C1A 1457   9.823   2.256  11.694 -0.3108 -0.2373  0.0271
  122DOPC   D2A 1458   9.708   2.397  12.213  0.1375 -0.0442 -0.0713
  122DOPC   C3A 1459   9.571   2.228  12.585  0.1412  0.1363  0.1598
  122DOPC   C4A 1460   9.374   2.041  12.998  0.0032  0.0104 -0.1373
  122DOPC   C1B 1461  10.338   2.302  11.594 -0.2653 -0.1381  0.2209
  122DOPC   D2B 1462  10.599   2.332  12.004 -0.1602  0.1653  0.0916
  122DOPC   C3B 1463  10.568   2.419  12.456 -0.3113 -0.1038  0.1614
  122DOPC   C4B 1464  10.545   2.457  12.931 -0.0066  0.2381 -0.1427
  123DOPC   NC3 1465  11.807   5.643  10.713  0.1126 -0.2005 -0.3143
  123DOPC   PO4 1466  11.651   6.000  10.775 -0.1633 -0.0673  0.1529
  123DOPC   GL1 1467  11.635   6.174  11.113 -0.1549 -0.0671  0.0774
  123DOPC   GL2 1468  11.373   6.281  11.118  0.0484 -0.1328  0.1297
  123DOPC   C1A 1469  11.837   6.159  11.482 -0.0232 -0.2444 -0.1076
  123DOPC   D2A 1470  11.881   6.297  11.973  0.2269  0.2163  0.0170
  123DOPC   C3A 1471  11.998   6.169  12.381 -0.2199  0.4135  0.0859
  123DOPC   C4A 1472  12.271   6.212  12.846  0.0153  0.1613 -0.4083
  123DOPC   C1B 1473  11.355   6.473  11.501  0.1087  0.0543  0.0560
  123DOPC   D2B 1474  11.471   6.574  12.020 -0.2225 -0.1653 -0.2039
  123DOPC   C3B 1475  11.537   6.398  12.503  0.0028 -0.1415  0.0563
  123DOPC   C4B 1476  11.704   6.200  12.878 -0.0853 -0.2875  0.0147
  124DOPC   NC3 1477   0.121   2.799  11.147  0.2731 -0.0635  0.0884
  124DOPC   PO4 1478  -0.265   2.867  11.223 -0.0138 -0.0234 -0.2285
  124DOPC   GL1 1479  -0.223   2.892  11.641 -0.1942 -0.2974  0.0007
  124DOPC   GL2 1480   0.061   2.781  11.650  0.4169  0.2221  0.1572
  124DOPC   C1A 1481  -0.423   2.704  11.960  0.3334 -0.2256 -0.0209
  124DOPC   D2A 1482  -0.660   2.573  12.358  0.1334  0.1245 -0.0778
  124DOPC   C3A 1483  -0.563   2.525  12.804 -0.0118  0.0126  0.2030
  124DOPC   C4A 1484  -0.783   2.246  13.223  0.1688  0.4926  0.0512
  124DOPC   C1B 1485   0.106   2.834  12.038  0.0309  0.0808 -0.2240
  124DOPC   D2B 1486  -0.087   2.871  12.547  0.0337 -0.2252 -0.0775
  124DOPC   C3B 1487  -0.188   2.817  13.007  0.2363 -0.1379 -0.1801
  124DOPC   C4B 1488   0.052   2.668  13.432 -0.1629 -0.3841  0.1595
  125DOPC   NC3 1489  11.952   0.880  10.769  0.1313  0.0306  0.1619
  125DOPC   PO4 1490  12.153   0.572  10.799  0.2610 -0.0367 -0.2024
  125DOPC   GL1 1491  12.313   0.453  11.215  0.2535  0.3827  0.4574
  125DOPC   GL2 1492  12.242   0.134  11.114  0.0240  0.1276 -0.3142
  125DOPC   C1A 1493  12.358   0.634  11.601  0.1369  0.1308 -0.1951
  125DOPC   D2A 1494  12.351   0.802  12.050  0.1936  0.0178 -0.0252
  125DOPC   C3A 1495  12.334   0.864  12.528 -0.0126 -0.2241 -0.3348
  125DOPC   C4A 1496  12.453   0.982  12.988  0.1969  0.0756  0.0526
  125DOPC   C1B 1497  11.989  -0.098  11.436 -0.0131  0.0190 -0.2964
  125DOPC   D2B 1498  11.764  -0.445  11.753 -0.2253 -0.1905 -0.0409
  125DOPC   C3B 1499  11.655  -0.149  12.123 -0.0655 -0.0688  0.2114
  125DOPC   C4B 1500  11.658   0.254  12.441 -0.1958  0.0769  0.0446
  126DOPC   NC3 1501   4.022   0.926  11.680  0.0146  0.2133 -0.3152
  126DOPC   PO4 1502   3.731   1.097  11.934  0.2802  0.1125  0.2352
  126DOPC   GL1 1503   3.719   1.282  12.222 -0.0816 -0.0010  0.5204
  126DOPC   GL2 1504   3.976   1.118  12.316  0.0938 -0.1742 -0.1175
  126DOPC   C1A 1505   3.422   1.369  12.463 -0.0747 -0.2295 -0.2270
  126DOPC   D2A 1506   2.984   1.545  12.771  0.0871 -0.1098  0.1364
  126DOPC   C3A 1507   2.960   1.580  13.217 -0.1484 -0.1291 -0.2789
  126DOPC   C4A 1508   3.141   1.476  13.718 -0.0242  0.1197 -0.0331
  126DOPC   C1B 1509   3.966   1.252  12.736 -0.1739  0.0753  0.1288
  126DOPC   D2B 1510   3.899   1.619  12.948  0.1064 -0.0331  0.0272
  126DOPC   C3B 1511   4.121   1.786  13.369  0.1882 -0.0571  0.4249
  126DOPC   C4B 1512   4.365   1.928  13.750 -0.3129  0.1324 -0.1685
  127DOPC   NC3 1513   8.691   3.897  10.800  0.0200  0.2226  0.1022
  127DOPC   PO4 1514   8.387   3.655  10.796  0.1703 -0.4668  0.1194
  127DOPC   GL1 1515   8.264   3.584  11.219 -0.0883 -0.0907 -0.2251
  127DOPC   GL2 1516   8.426   3.629  11.368 -0.1057 -0.0882 -0.3489
  127DOPC   C1A 1517   8.113   3.245  11.433  0.1558 -0.0074  0.0798
  127DOPC   D2A 1518   7.934   2.894  11.754  0.0269 -0.1634 -0.1309
  127DOPC   C3A 1519   8.035   2.791  12.227 -0.1800 -0.0938  0.0423
  127DOPC   C4A 1520   8.269   2.658  12.659 -0.2428 -0.1169 -0.0861
  127DOPC   C1B 1521   8.407   3.507  11.757 -0.2706 -0.1818  0.1429
  127DOPC   D2B 1522   8.390   3.383  12.198  0.0664 -0.0968  0.1747
  127DOPC   C3B 1523   8.748   3.768  12.297 -0.2467 -0.1623  0.3468
  127DOPC   C4B 1524   9.085   4.115  12.384 -0.1637 -0.0228  0.3773
  128DOPC   NC3 1525   9.156   1.150  10.948  0.1998  0.1388 -0.0492
  128DOPC   PO4 1526   8.739   1.075  11.043 -0.3010 -0.2700  0.1103
  128DOPC   GL1 1527   8.795   1.050  11.549  0.0335  0.1353 -0.0441
  128DOPC   GL2 1528   8.544   0.923  11.455  0.2793 -0.2564  0.1302
  128DOPC   C1A 1529   8.905   1.291  11.932  0.1787 -0.2414  0.2092
  128DOPC   D2A 1530   9.012   1.685  11.959  0.3832 -0.0483 -0.0199
  128DOPC   C3A 1531   9.411   1.886  11.776 -0.0808  0.0768 -0.0544
  128DOPC   C4A 1532   9.423   2.265  11.413 -0.2297 -0.1794  0.0030
  128DOPC   C1B 1533   8.150   1.071  11.597 -0.0220 -0.0458 -0.0449
  128DOPC   D2B 1534   7.628   1.005  11.607  0.0673 -0.0774 -0.1504
  128DOPC   C3B 1535   7.539   0.893  12.039  0.2535 -0.2463  0.0576
  128DOPC   C4B 1536   7.534   0.781  12.500  0.1467  0.1210  0.0118
  129DOPC   NC3 1537  13.607   3.275  11.244  0.1089  0.0975  0.1643
  129DOPC   PO4 1538  13.899   3.542  11.200 -0.1360 -0.0039 -0.1882
  129DOPC   GL1 1539  13.982   3.409  11.624  0.2935  0.2496 -0.0858
  129DOPC   GL2 1540  14.155   3.662  11.512  0.0651 -0.2873  0.0002
  129DOPC   C1A 1541  14.033   3.449  12.078 -0.0825  0.0561 -0.0227
  129DOPC   D2A 1542  14.058   3.675  12.512  0.1024 -0.0765  0.2469
  129DOPC   C3A 1543  14.318   3.385  12.703 -0.2176  0.1667  0.0807
  129DOPC   C4A 1544  14.680   3.148  12.536 -0.1003 -0.0717  0.0716
  129DOPC   C1B 1545  14.325   3.927  11.805  0.0429  0.1995  0.1350
  129DOPC   D2B 1546  14.478   4.078  12.237 -0.0483  0.2665  0.2947
  129DOPC   C3B 1547  14.563   4.428  12.560  0.1402 -0.1841  0.0974
  129DOPC   C4B 1548  14.823   4.634  12.884 -0.0850 -0.2759 -0.0360
  130DOPC   NC3 1549  19.824   3.780  10.920 -0.1464  0.0028  0.2175
  130DOPC   PO4 1550  20.163   3.794  10.674  0.1512  0.0195 -0.1128
  130DOPC   GL1 1551  20.431   3.996  10.924 -0.1605 -0.2760  0.0928
  130DOPC   GL2 1552  20.634   3.861  11.039  0.1271 -0.1600 -0.2904
  130DOPC   C1A 1553  20.405   4.211  11.282  0.3043 -0.2230  0.3033
  130DOPC   D2A 1554  20.528   4.497  11.643 -0.2018  0.0112  0.1458
  130DOPC   C3A 1555  20.699   4.215  11.913  0.0403  0.1626 -0.0549
  130DOPC   C4A 1556  20.856   3.925  12.352  0.0744  0.1869  0.2631
  130DOPC   C1B 1557  20.670   3.615  11.325  0.0884 -0.1177  0.0363
  130DOPC   D2B 1558  20.487   3.334  11.754  0.1047 -0.0838  0.1398
  130DOPC   C3B 1559  20.491   3.236  12.210 -0.0469  0.0978 -0.1726
  130DOPC   C4B 1560  20.797   2.946  12.512 -0.1432 -0.1646  0.0172
  131DOPC   NC3 1561   0.425   2.452  11.424 -0.0578 -0.1964 -0.1025
  131DOPC   PO4 1562   0.804   2.548  11.607 -0.1088  0.0454  0.0531
  131DOPC   GL1 1563   0.814   2.576  12.101  0.2473  0.1677 -0.0738
  131DOPC   GL2 1564   0.548   2.695  11.997  0.0051  0.0005  0.0185
  131DOPC   C1A 1565   0.808   2.499  12.545  0.3120 -0.2050  0.0944
  131DOPC   D2A 1566   0.874   2.467  13.004 -0.2485  0.4179  0.0333
  131DOPC   C3A 1567   0.946   2.338  13.423 -0.0885 -0.0076 -0.0579
  131DOPC   C4A 1568   1.199   2.470  13.795  0.0121  0.1942 -0.0141
  131DOPC   C1B 1569   0.709   3.032  12.218 -0.4218 -0.1148  0.1275
  131DOPC   D2B 1570   0.907   3.064  12.676  0.1387  0.1172  0.0467
  131DOPC   C3B 1571   0.699   2.901  13.121 -0.0467  0.0151 -0.0222
  131DOPC   C4B 1572   0.543   2.811  13.572  0.0793  0.4073 -0.2235
  132DOPC   NC3 1573  24.425   2.735  10.482 -0.2084  0.0201  0.0896
  132DOPC   PO4 1574  24.231   2.562  10.838  0.0599  0.2956 -0.0166
  132DOPC   GL1 1575  24.242   2.659  11.234 -0.2419  0.2211  0.1302
  132DOPC   GL2 1576  24.018   2.803  11.327 -0.0675 -0.3670 -0.1564
  132DOPC   C1A 1577  24.366   2.573  11.653  0.0389  0.2080 -0.1045
  132DOPC   D2A 1578  24.376   2.404  12.077 -0.1287  0.0392  0.3507
  132DOPC   C3A 1579  24.201   2.391  12.471 -0.1918  0.0314  0.0263
  132DOPC   C4A 1580  24.080   2.273  12.923  0.0662 -0.0304 -0.0359
  132DOPC   C1B 1581  23.928   2.694  11.770  0.3040  0.4478 -0.4005
  132DOPC   D2B 1582  23.735   2.323  12.083  0.1527  0.0465 -0.4067
  132DOPC   C3B 1583  23.608   2.267  12.546 -0.0851 -0.1289  0.2152
  132DOPC   C4B 1584  23.714   1.904  12.824  0.0086 -0.1554 -0.0835
  133DOPC   NC3 1585   8.434   1.842  10.829 -0.1923  0.3325  0.0441
  133DOPC   PO4 1586   8.533   1.460  10.791  0.2705  0.2630 -0.1700
  133DOPC   GL1 1587   8.520   1.436  11.237  0.1115 -0.2108  0.0159
  133DOPC   GL2 1588   8.778   1.616  11.169 -0.3936 -0.0166  0.0705
  133DOPC   C1A 1589   8.486   1.445  11.676  0.2365 -0.1469  0.0607
  133DOPC   D2A 1590   8.454   1.422  12.249 -0.1026  0.1814 -0.4413
  133DOPC   C3A 1591   8.680   1.350  12.671 -0.0332 -0.2913 -0.1387
  133DOPC   C4A 1592   8.738   1.171  13.181  0.0213 -0.1389  0.0317
  133DOPC   C1B 1593   8.998   1.565  11.509  0.2701 -0.3413 -0.2923
  133DOPC   D2B 1594   9.364   1.385  11.712 -0.0328  0.0497 -0.3173
  133DOPC   C3B 1595   9.527   1.453  12.133  0.0008  0.1120 -0.3233
  133DOPC   C4B 1596   9.589   1.584  12.562 -0.2838 -0.0628  0.0193
  134DOPC   NC3 1597  30.279   7.253  11.824  0.4914 -0.1275  0.3255
  134DOPC   PO4 1598  30.519   6.901  11.808 -0.1498 -0.2631 -0.1203
  134DOPC   GL1 1599  30.709   6.951  12.187  0.1618 -0.2101 -0.0445
  134DOPC   GL2 1600  30.651   7.243  12.162  0.2037  0.2939  0.1005
  134DOPC   C1A 1601  30.750   6.660  12.563  0.1021 -0.2062 -0.2260
  134DOPC   D2A 1602  30.689   6.269  12.884 -0.0458  0.0487 -0.2293
  134DOPC   C3A 1603  30.953   6.176  13.233  0.2027 -0.0866  0.2656
  134DOPC   C4A 1604  31.369   5.982  13.289  0.2444  0.2566  0.1583
  134DOPC   C1B 1605  30.648   7.305  12.616  0.1851 -0.0139 -0.0099
  134DOPC   D2B 1606  30.644   7.187  13.059 -0.0043 -0.1551 -0.2494
  134DOPC   C3B 1607  30.591   6.770  13.312 -0.0181 -0.3142  0.2880
  134DOPC   C4B 1608  30.475   6.498  13.786 -0.4846  0.2701  0.2330
  135DOPC   NC3 1609  15.474   0.346  10.430 -0.1629 -0.2790  0.0083
  135DOPC   PO4 1610  15.589   0.025  10.656  0.0548 -0.2621  0.2545
  135DOPC   GL1 1611  15.699   0.092  11.078  0.1381  0.1276  0.1348
  135DOPC   GL2 1612  15.783  -0.103  11.142 -0.1275  0.3756 -0.4202
  135DOPC   C1A 1613  15.623   0.387  11.374  0.0785  0.0015  0.0643
  135DOPC   D2A 1614  15.838   0.422  11.828  0.0026 -0.1994 -0.0105
  135DOPC   C3A 1615  15.653   0.353  12.190  0.2753  0.2523  0.0357
  135DOPC   C4A 1616  15.507   0.107  12.618  0.0496  0.0005  0.2578
  135DOPC   C1B 1617  15.916  -0.007  11.552  0.1306 -0.1056 -0.1700
  135DOPC   D2B 1618  15.988  -0.001  12.030 -0.0385  0.0246 -0.0179
  135DOPC   C3B 1619  15.945  -0.039  12.499  0.3810 -0.0109 -0.2235
  135DOPC   C4B 1620  16.123   0.171  12.818 -0.1943  0.0719 -0.0104
  136DOPC   NC3 1621  30.877   5.915  11.961  0.1522 -0.0086  0.2207
  136DOPC   PO4 1622  30.894   5.557  11.841 -0.1553  0.2726 -0.0172
  136DOPC   GL1 1623  30.996   5.307  12.151 -0.1058  0.0587 -0.0701
  136DOPC   GL2 1624  30.810   5.134  12.085 -0.3651 -0.0526 -0.0274
  136DOPC   C1A 1625  31.212   4.981  12.359  0.1708 -0.0072 -0.1158
  136DOPC   D2A 1626  31.617   4.611  12.515  0.0372 -0.0451  0.0079
  136DOPC   C3A 1627  31.390   4.193  12.576  0.1165  0.1506  0.1890
  136DOPC   C4A 1628  31.290   3.758  12.744  0.0035  0.1805 -0.1921
  136DOPC   C1B 1629  30.735   4.815  12.315  0.0691  0.0787 -0.0373
  136DOPC   D2B 1630  30.563   4.463  12.600  0.0183 -0.0903 -0.1170
  136DOPC   C3B 1631  30.423   4.583  13.057 -0.0096 -0.0545  0.1613
  136DOPC   C4B 1632  30.286   5.000  13.350 -0.3436 -0.0522 -0.2333
  137DOPC   NC3 1633  26.253   2.552  11.025 -0.2181  0.2111  0.0265
  137DOPC   PO4 1634  26.031   2.370  11.288 -0.1262 -0.0514 -0.1915
  137DOPC   GL1 1635  25.837   2.401  11.658  0.2606  0.1188  0.1374
  137DOPC   GL2 1636  25.659   2.674  11.523 -0.0975 -0.0352 -0.0007
  137DOPC   C1A 1637  25.872   2.107  12.059  0.2959 -0.0833 -0.0081
  137DOPC   D2A 1638  25.821   2.240  12.519 -0.0173 -0.2242 -0.3876
  137DOPC   C3A 1639  25.851   2.510  12.858  0.2071 -0.0940 -0.1719
  137DOPC   C4A 1640  25.507   2.716  13.175 -0.1287 -0.0438 -0.0775
  137DOPC   C1B 1641  25.253   2.714  11.716  0.2277 -0.1175  0.1093
  137DOPC   D2B 1642  24.821   2.743  11.952 -0.0924 -0.2503  0.1616
  137DOPC   C3B 1643  24.886   2.604  12.376  0.0180 -0.2323  0.2324
  137DOPC   C4B 1644  24.972   2.644  12.828 -0.0973  0.1823  0.2753
  138DOPC   NC3 1645  31.037   0.965  11.369  0.0506 -0.2919  0.1672
  138DOPC   PO4 1646  31.171   0.618  11.451 -0.1686 -0.0758  0.3310
  138DOPC   GL1 1647  31.256   0.739  11.804  0.0502  0.1886  0.1300
  138DOPC   GL2 1648  30.902   0.652  11.814  0.0031  0.0360 -0.3312
  138DOPC   C1A 1649  31.436   0.714  12.174  0.0453  0.0670  0.2905
  138DOPC   D2A 1650  31.274   0.645  12.595 -0.3457  0.0323 -0.1477
  138DOPC   C3A 1651  31.002   0.965  12.776 -0.1851  0.0077  0.1817
  138DOPC   C4A 1652  30.732   1.326  12.869 -0.2345 -0.0569 -0.0575
  138DOPC   C1B 1653  30.877   0.530  12.260  0.1006  0.1414  0.0635
  138DOPC   D2B 1654  30.763   0.573  12.735 -0.4171  0.0146  0.0608
  138DOPC   C3B 1655  30.666   0.317  13.093 -0.0765  0.0641  0.1109
  138DOPC   C4B 1656  30.700  -0.028  13.470 -0.3596 -0.0710 -0.1572
  139DOPC   NC3 1657   8.283   2.349  10.082 -0.1795  0.1046  0.0247
  139DOPC   PO4 1658   8.341   2.282  10.479  0.2106 -0.1777  0.0942
  139DOPC   GL1 1659   8.398   2.308  10.880  0.1546 -0.0515  0.1327
  139DOPC   GL2 1660   8.602   2.302  10.973 -0.0968  0.0321  0.0213
  139DOPC   C1A 1661   8.200   2.269  11.285  0.0516  0.0629  0.0815
  139DOPC   D2A 1662   8.024   1.927  11.644 -0.0274 -0.2274  0.0331
  139DOPC   C3A 1663   8.087   1.887  12.086  0.1662  0.2906  0.0473
  139DOPC   C4A 1664   8.124   1.570  12.521 -0.0635  0.3831 -0.3412
  139DOPC   C1B 1665   8.700   2.404  11.384  0.1232 -0.1076  0.1984
  139DOPC   D2B 1666   8.707   2.551  11.837  0.0047  0.2278  0.0471
  139DOPC   C3B 1667   8.993   2.922  11.908 -0.0897  0.0837 -0.0566
  139DOPC   C4B 1668   9.286   3.214  11.677 -0.1386  0.2804  0.2328
  140DOPC   NC3 1669   1.938   5.004  11.714 -0.0312 -0.1685 -0.0794
  140DOPC   PO4 1670   2.176   4.695  11.604 -0.0347  0.0163  0.2999
  140DOPC   GL1 1671   2.304   4.517  11.975  0.0954 -0.1555  0.4384
  140DOPC   GL2 1672   2.100   4.742  12.096 -0.3187  0.0645 -0.0175
  140DOPC   C1A 1673   2.581   4.315  12.191 -0.1378 -0.3036 -0.0203
  140DOPC   D2A 1674   2.679   4.139  12.650 -0.2029  0.1269  0.0793
  140DOPC   C3A 1675   2.316   3.939  12.903  0.1465 -0.2593 -0.0292
  140DOPC   C4A 1676   2.382   3.570  13.185  0.0262 -0.2766  0.2077
  140DOPC   C1B 1677   2.297   5.129  12.050 -0.2319 -0.1014  0.1879
  140DOPC   D2B 1678   2.539   5.564  12.041 -0.0833 -0.3314  0.1673
  140DOPC   C3B 1679   3.077   5.532  12.177 -0.0174  0.0723  0.4024
  140DOPC   C4B 1680   3.529   5.530  12.272  0.1055  0.0072  0.1348
  141DOPC   NC3 1681  15.690   0.723  10.852 -0.2226  0.1024 -0.0048
  141DOPC   PO4 1682  15.914   0.413  10.742 -0.2030  0.1687 -0.2952
  141DOPC   GL1 1683  16.046   0.554  11.110 -0.0093 -0.1642  0.1156
  141DOPC   GL2 1684  16.108   0.302  11.269 -0.0663  0.0216 -0.3097
  141DOPC   C1A 1685  15.954   0.798  11.484 -0.1071  0.1379  0.3265
  141DOPC   D2A 1686  15.972   1.057  11.897 -0.1067  0.2462  0.0729
  141DOPC   C3A 1687  15.978   1.043  12.384  0.0013  0.2358  0.1205
  141DOPC   C4A 1688  15.952   1.213  12.845  0.1383  0.2194  0.1760
  141DOPC   C1B 1689  16.277   0.374  11.608  0.1103 -0.2282 -0.1088
  141DOPC   D2B 1690  16.283   0.485  12.110 -0.2386  0.3367  0.1302
  141DOPC   C3B 1691  16.033   0.528  12.477 -0.0462  0.1032 -0.2775
  141DOPC   C4B 1692  15.711   0.524  12.830  0.1657  0.1437 -0.1514
  142DOPC   NC3 1693  23.148   5.885  10.934  0.1708 -0.1936 -0.0501
  142DOPC   PO4 1694  22.810   6.027  11.062 -0.0171  0.3456  0.1714
  142DOPC   GL1 1695  22.632   6.160  11.465 -0.1961 -0.3394  0.0039
  142DOPC   GL2 1696  22.771   6.018  11.590 -0.2449 -0.1650 -0.5009
  142DOPC   C1A 1697  22.268   6.160  11.634  0.3828 -0.0648 -0.1458
  142DOPC   D2A 1698  22.017   5.842  11.834  0.2071 -0.0646 -0.1769
  142DOPC   C3A 1699  22.256   5.405  11.882  0.0994  0.0299  0.3566
  142DOPC   C4A 1700  22.472   5.005  11.975  0.0755  0.2911 -0.1570
  142DOPC   C1B 1701  22.567   5.812  11.893  0.3642  0.1000  0.2673
  142DOPC   D2B 1702  22.296   5.650  12.308 -0.3210 -0.0047  0.2319
  142DOPC   C3B 1703  22.556   5.684  12.630  0.2497 -0.0563  0.0573
  142DOPC   C4B 1704  22.833   5.595  13.036 -0.0972 -0.2190  0.0665
  143DOPC   NC3 1705   3.638   6.957  11.779 -0.0820  0.1328  0.2229
  143DOPC   PO4 1706   3.319   7.211  11.723 -0.3800  0.3741  0.1731
  143DOPC   GL1 1707   3.123   7.242  12.065  0.5526 -0.0582 -0.2662
  143DOPC   GL2 1708   2.999   7.003  12.093 -0.4932 -0.0019 -0.2178
  143DOPC   C1A 1709   3.341   7.343  12.435  0.1680 -0.1108  0.1730
  143DOPC   D2A 1710   3.575   7.162  12.789  0.0364  0.1390 -0.0085
  143DOPC   C3A 1711   3.926   7.103  13.093 -0.1128 -0.1345 -0.0062
  143DOPC   C4A 1712   4.338   6.941  13.333  0.0579  0.1863 -0.1407
  143DOPC   C1B 1713   2.939   6.695  12.389  0.1581  0.2402  0.2429
  143DOPC   D2B 1714   3.000   6.285  12.624  0.3026  0.2585 -0.1527
  143DOPC   C3B 1715   2.562   6.130  12.788 -0.2133  0.0260 -0.1182
  143DOPC   C4B 1716   2.190   5.834  12.780  0.0862  0.0381  0.0339
  144DOPC   NC3 1717  18.408   7.309  10.309  0.1846  0.2536 -0.2011
  144DOPC   PO4 1718  18.548   7.632  10.478  0.0892  0.1363 -0.3383
  144DOPC   GL1 1719  18.738   7.626  10.871  0.2173  0.2390  0.3195
  144DOPC   GL2 1720  18.451   7.698  11.016 -0.0130  0.1817 -0.1630
  144DOPC   C1A 1721  18.882   7.364  11.226 -0.1423 -0.0257 -0.2379
  144DOPC   D2A 1722  19.243   7.140  11.493 -0.1562 -0.0312  0.1146
  144DOPC   C3A 1723  19.393   7.045  11.922 -0.2007 -0.1288 -0.2104
  144DOPC   C4A 1724  19.569   6.599  12.222 -0.2575  0.2440 -0.0526
  144DOPC   C1B 1725  18.501   7.633  11.443  0.2215  0.0139  0.1525
  144DOPC   D2B 1726  18.502   7.692  11.934  0.2051 -0.1616  0.2093
  144DOPC   C3B 1727  18.770   7.843  12.285  0.2459  0.0224  0.1543
  144DOPC   C4B 1728  18.971   8.238  12.500  0.0008 -0.1452  0.2624
  145DOPC   NC3 1729  30.503   7.641  11.166  0.2196 -0.1200  0.1236
  145DOPC   PO4 1730  30.192   7.672  11.404 -0.0378 -0.1249  0.0838
  145DOPC   GL1 1731  30.168   7.722  11.793  0.2976  0.1013 -0.1075
  145DOPC   GL2 1732  30.056   7.960  11.799  0.2740 -0.0875 -0.2499
  145DOPC   C1A 1733  29.853   7.462  12.038  0.3314  0.1894  0.0142
  145DOPC   D2A 1734  29.641   7.338  12.464  0.2741  0.1968 -0.1870
  145DOPC   C3A 1735  29.758   7.234  12.834  0.2249 -0.1447  0.0611
  145DOPC   C4A 1736  29.948   6.974  13.227 -0.2985 -0.1198  0.1000
  145DOPC   C1B 1737  29.701   8.002  12.008 -0.2024  0.1937  0.0189
  145DOPC   D2B 1738  29.454   8.112  12.385 -0.1078 -0.3111 -0.1078
  145DOPC   C3B 1739  29.235   8.134  12.849 -0.3255  0.4822 -0.2437
  145DOPC   C4B 1740  29.224   7.881  13.211 -0.0210 -0.0183 -0.1356
  146DOPC   NC3 1741  17.290   2.983  10.428 -0.2143 -0.0144 -0.0672
  146DOPC   PO4 1742  17.543   2.849  10.683 -0.1194 -0.0497  0.1483
  146DOPC   GL1 1743  17.567   2.668  11.044  0.2878  0.0542  0.0264
  146DOPC   GL2 1744  17.300   2.726  11.048 -0.0175 -0.1434  0.0053
  146DOPC   C1A 1745  17.587   2.610  11.472  0.0342 -0.0667 -0.1721
  146DOPC   D2A 1746  17.764   2.243  11.824 -0.2299  0.0514  0.1651
  146DOPC   C3A 1747  17.818   2.480  12.215  0.0721  0.0066  0.0473
  146DOPC   C4A 1748  17.968   2.373  12.638  0.0645 -0.1459  0.3938
  146DOPC   C1B 1749  17.043   2.472  11.296  0.1379 -0.0478 -0.1063
  146DOPC   D2B 1750  16.861   2.335  11.753  0.0018  0.1441  0.0515
  146DOPC   C3B 1751  16.892   2.380  12.247 -0.3518 -0.1253 -0.2325
  146DOPC   C4B 1752  17.029   2.719  12.620  0.0182 -0.0256 -0.0189
  147DOPC   NC3 1753  17.534   1.549  10.573  0.0054  0.1028  0.0995
  147DOPC   PO4 1754  17.916   1.725  10.657  0.2126 -0.2686  0.0492
  147DOPC   GL1 1755  18.001   1.778  11.000 -0.5513 -0.1337  0.0100
  147DOPC   GL2 1756  17.964   2.092  11.017 -0.0409 -0.2209  0.1295
  147DOPC   C1A 1757  18.106   1.574  11.350  0.1286  0.1040 -0.0306
  147DOPC   D2A 1758  18.153   1.307  11.828  0.0417  0.0754 -0.1723
  147DOPC   C3A 1759  18.528   1.311  12.129 -0.0867 -0.0099  0.0264
  147DOPC   C4A 1760  18.816   1.326  12.514 -0.1044  0.2815  0.0851
  147DOPC   C1B 1761  17.988   2.396  11.261  0.0771 -0.2557 -0.2075
  147DOPC   D2B 1762  18.009   2.663  11.682  0.0435  0.1827  0.1440
  147DOPC   C3B 1763  17.689   2.862  11.900 -0.1176 -0.2741  0.0857
  147DOPC   C4B 1764  17.709   2.893  12.441 -0.1596 -0.3916 -0.1014
  148DOPC   NC3 1765   1.228   3.553  11.379 -0.0905 -0.2716 -0.2177
  148DOPC   PO4 1766   1.321   3.332  11.664 -0.0744  0.0337 -0.0128
  148DOPC   GL1 1767   1.081   3.143  11.893  0.0051 -0.0388  0.4971
  148DOPC   GL2 1768   1.006   2.946  11.811 -0.1282 -0.2379  0.2912
  148DOPC   C1A 1769   1.135   3.369  12.349 -0.3239  0.0748  0.2012
  148DOPC   D2A 1770   1.397   3.549  12.670 -0.1813 -0.0058 -0.2402
  148DOPC   C3A 1771   1.417   3.844  13.041  0.1786  0.0729 -0.0218
  148DOPC   C4A 1772   1.362   3.755  13.523 -0.0793 -0.2333 -0.0246
  148DOPC   C1B 1773   1.163   2.865  12.220 -0.2431  0.1150  0.1626
  148DOPC   D2B 1774   1.527   3.058  12.493  0.1820  0.0986  0.4917
  148DOPC   C3B 1775   1.816   3.126  12.888 -0.1927 -0.0363  0.1507
  148DOPC   C4B 1776   2.092   3.008  13.274  0.0405 -0.1018  0.2388
  149DOPC   NC3 1777   6.695   1.430  10.942 -0.0162  0.0230  0.0900
  149DOPC   PO4 1778   6.745   1.800  10.970  0.1265  0.3022 -0.1274
  149DOPC   GL1 1779   6.812   2.000  11.359  0.2033  0.1938  0.1516
  149DOPC   GL2 1780   7.074   1.774  11.387 -0.3801  0.0305  0.1138
  149DOPC   C1A 1781   6.717   2.453  11.478 -0.0084  0.0120 -0.1581
  149DOPC   D2A 1782   6.473   2.793  11.715  0.0004 -0.1462  0.1566
  149DOPC   C3A 1783   6.697   2.598  12.072  0.1589  0.0232  0.0560
  149DOPC   C4A 1784   6.877   2.608  12.526 -0.1062 -0.1043  0.3145
  149DOPC   C1B 1785   7.072   1.745  11.814 -0.0166  0.1774  0.0224
  149DOPC   D2B 1786   7.159   1.731  12.325  0.0937 -0.1413  0.3539
  149DOPC   C3B 1787   7.268   1.942  12.731  0.0427  0.0629 -0.0385
  149DOPC   C4B 1788   7.538   1.946  13.091  0.1710  0.1899  0.1513
  150DOPC   NC3 1789  20.383   3.158  11.307 -0.0196  0.0337  0.0726
  150DOPC   PO4 1790  20.673   2.992  11.054  0.0558 -0.0036  0.2371
  150DOPC   GL1 1791  20.847   2.930  11.383 -0.0634  0.0420 -0.1883
  150DOPC   GL2 1792  20.848   3.225  11.403  0.0840 -0.0132 -0.1683
  150DOPC   C1A 1793  21.161   2.758  11.576  0.0534 -0.0535 -0.2292
  150DOPC   D2A 1794  21.481   2.625  11.949 -0.2150 -0.0264  0.0182
  150DOPC   C3A 1795  21.499   2.568  12.403 -0.1572  0.0609  0.1828
  150DOPC   C4A 1796  21.649   2.490  12.828 -0.1242  0.2551  0.3569
  150DOPC   C1B 1797  21.133   3.318  11.695  0.2337  0.1055 -0.0016
  150DOPC   D2B 1798  21.463   3.413  12.110 -0.0477 -0.1539 -0.1334
  150DOPC   C3B 1799  21.676   3.071  12.341 -0.2779 -0.0686 -0.0369
  150DOPC   C4B 1800  21.998   2.705  12.544 -0.0130 -0.0718  0.2056
  151DOPC   NC3 1801  10.435   7.060  10.664 -0.0500  0.1574 -0.2844
  151DOPC   PO4 1802  10.720   7.324  10.848  0.0716 -0.0397  0.3418
  151DOPC   GL1 1803  10.631   7.452  11.260 -0.1225 -0.2382  0.2479
  151DOPC   GL2 1804  10.840   7.199  11.265 -0.1628  0.2012 -0.2178
  151DOPC   C1A 1805  10.728   7.585  11.714  0.1233 -0.2417  0.2143
  151DOPC   D2A 1806  10.603   7.748  12.189 -0.1425  0.1870 -0.0177
  151DOPC   C3A 1807  10.213   7.658  12.438  0.1298 -0.0603  0.2032
  151DOPC   C4A 1808  10.025   7.520  12.883  0.0350 -0.0844  0.3019
  151DOPC   C1B 1809  10.617   7.033  11.576 -0.1414  0.0373 -0.0857
  151DOPC   D2B 1810  10.536   6.900  12.076 -0.3247  0.2188 -0.1516
  151DOPC   C3B 1811  10.194   6.789  12.368 -0.1348 -0.3520 -0.0006
  151DOPC   C4B 1812   9.845   6.736  12.694  0.0081 -0.1470 -0.3444
  152DOPC   NC3 1813  23.782   2.431  11.009  0.2181 -0.0876  0.0076
  152DOPC   PO4 1814  23.409   2.470  10.866  0.1758 -0.2844  0.1456
  152DOPC   GL1 1815  23.344   2.299  11.224 -0.1555 -0.1977 -0.6150
  152DOPC   GL2 1816  23.154   2.443  11.332  0.0539  0.5822  0.1094
  152DOPC   C1A 1817  23.648   2.241  11.607  0.0195  0.2601 -0.0525
  152DOPC   D2A 1818  23.743   1.826  11.866  0.1266 -0.1687  0.1506
  152DOPC   C3A 1819  23.586   1.811  12.319 -0.0710  0.1301  0.1784
  152DOPC   C4A 1820  23.219   1.760  12.712  0.0164  0.1560 -0.3529
  152DOPC   C1B 1821  23.159   2.140  11.653 -0.1813  0.2616  0.1904
  152DOPC   D2B 1822  22.915   1.860  11.997 -0.0994 -0.0561 -0.1995
  152DOPC   C3B 1823  22.816   2.004  12.459  0.1196 -0.1514  0.0625
  152DOPC   C4B 1824  22.700   2.057  12.912  0.1215  0.1615 -0.2547
  153DOPC   NC3 1825  17.282   5.969  10.544 -0.0288  0.1781 -0.0124
  153DOPC   PO4 1826  17.097   5.926  10.882  0.1835  0.1135  0.3336
  153DOPC   GL1 1827  17.275   5.907  11.217 -0.2158 -0.1132 -0.0285
  153DOPC   GL2 1828  17.416   5.681  11.087  0.4438  0.0366 -0.1717
  153DOPC   C1A 1829  17.042   5.934  11.520  0.1275 -0.2373 -0.3452
  153DOPC   D2A 1830  16.722   6.133  11.878 -0.1765 -0.2237 -0.0419
  153DOPC   C3A 1831  16.700   6.366  12.277  0.2259 -0.1742  0.0928
  153DOPC   C4A 1832  16.945   6.512  12.717  0.0412 -0.0422 -0.0247
  153DOPC   C1B 1833  17.384   5.583  11.506 -0.0513 -0.1932  0.1024
  153DOPC   D2B 1834  17.324   5.701  11.982  0.0883 -0.2189 -0.1049
  153DOPC   C3B 1835  17.185   5.389  12.308 -0.1160 -0.2350 -0.2117
  153DOPC   C4B 1836  17.034   5.026  12.611  0.3197 -0.0835  0.1315
  154DOPC   NC3 1837  27.082   6.629  11.156  0.1440 -0.1873 -0.0652
  154DOPC   PO4 1838  27.371   6.929  11.185 -0.0337  0.1933 -0.1895
  154DOPC   GL1 1839  27.543   7.009  11.505  0.0731  0.0405  0.0726
  154DOPC   GL2 1840  27.357   7.275  11.525  0.2538 -0.1356 -0.3999
  154DOPC   C1A 1841  27.396   6.876  11.858 -0.0135 -0.0003  0.0855
  154DOPC   D2A 1842  27.083   6.816  12.160 -0.2050  0.1059  0.1129
  154DOPC   C3A 1843  27.163   6.811  12.579 -0.0116 -0.0563  0.1496
  154DOPC   C4A 1844  27.139   6.877  13.052 -0.1722  0.1334 -0.0644
  154DOPC   C1B 1845  27.065   7.301  11.837  0.1912  0.2602 -0.3239
  154DOPC   D2B 1846  26.777   7.285  12.269  0.0264 -0.2601  0.0220
  154DOPC   C3B 1847  27.020   7.253  12.665  0.2114 -0.0968  0.0474
  154DOPC   C4B 1848  27.366   7.453  12.952  0.0101 -0.1453  0.0010
  155DOPC   NC3 1849   7.303   0.574  10.559 -0.0976 -0.1811 -0.1568
  155DOPC   PO4 1850   7.212   0.395  10.954  0.0506  0.1583 -0.2339
  155DOPC   GL1 1851   7.356   0.354  11.318  0.1784 -0.3492  0.0587
  155DOPC   GL2 1852   7.471   0.056  11.369  0.2026 -0.0828  0.4495
  155DOPC   C1A 1853   7.311   0.689  11.604  0.1300  0.1863 -0.1734
  155DOPC   D2A 1854   6.893   0.754  11.734 -0.0361  0.0445 -0.1515
  155DOPC   C3A 1855   6.779   1.129  12.022 -0.1794  0.0294  0.2572
  155DOPC   C4A 1856   6.522   1.193  12.423 -0.1547  0.3061  0.0953
  155DOPC   C1B 1857   7.742  -0.141  11.667  0.2865 -0.1673  0.4599
  155DOPC   D2B 1858   7.683  -0.107  12.133  0.2824  0.0010 -0.0635
  155DOPC   C3B 1859   7.419  -0.287  12.480 -0.0589  0.2479 -0.0877
  155DOPC   C4B 1860   7.427  -0.303  12.922  0.4505 -0.0668 -0.2228
  156DOPC   NC3 1861   9.868   4.272  10.766 -0.2030 -0.1388 -0.1704
  156DOPC   PO4 1862  10.148   4.010  10.846  0.0604 -0.0402 -0.1674
  156DOPC   GL1 1863  10.313   4.058  11.226  0.0953  0.0468 -0.2766
  156DOPC   GL2 1864  10.218   4.312  11.269 -0.1324 -0.0394 -0.1994
  156DOPC   C1A 1865  10.105   3.992  11.603 -0.1005  0.1558 -0.2190
  156DOPC   D2A 1866   9.920   4.006  12.043 -0.3299 -0.0919 -0.1802
  156DOPC   C3A 1867   9.984   3.746  12.403  0.2135 -0.1598 -0.2331
  156DOPC   C4A 1868  10.176   3.385  12.519  0.1015 -0.1384  0.0504
  156DOPC   C1B 1869  10.388   4.469  11.661 -0.4202 -0.1238  0.0675
  156DOPC   D2B 1870  10.365   4.350  12.175 -0.0164 -0.2954 -0.0032
  156DOPC   C3B 1871  10.240   4.150  12.571 -0.0153  0.0941  0.0571
  156DOPC   C4B 1872  10.243   3.821  13.014 -0.1685 -0.3130  0.1250
  157DOPC   NC3 1873  20.590   1.227  10.692 -0.0383 -0.1853 -0.0567
  157DOPC   PO4 1874  20.545   1.575  10.787  0.0954 -0.5497 -0.2418
  157DOPC   GL1 1875  20.573   1.662  11.135 -0.1243 -0.1096  0.0850
  157DOPC   GL2 1876  20.774   1.879  11.150  0.1800  0.0983  0.4672
  157DOPC   C1A 1877  20.225   1.509  11.450 -0.2227 -0.0767  0.0412
  157DOPC   D2A 1878  20.175   1.288  11.864 -0.0477 -0.0131  0.1281
  157DOPC   C3A 1879  19.936   1.112  12.193 -0.2474  0.3872  0.1801
  157DOPC   C4A 1880  19.679   0.895  12.536  0.0823 -0.3298  0.0831
  157DOPC   C1B 1881  21.004   1.840  11.404 -0.3125 -0.0058 -0.4968
  157DOPC   D2B 1882  21.524   1.713  11.588  0.6505 -0.0424 -0.2005
  157DOPC   C3B 1883  21.595   1.480  11.995 -0.1257 -0.1329 -0.2809
  157DOPC   C4B 1884  21.553   1.219  12.459  0.0775  0.1839 -0.0683
  158DOPC   NC3 1885  13.068   5.469  10.558 -0.0442 -0.1717  0.0379
  158DOPC   PO4 1886  12.864   5.801  10.698  0.0881  0.1535  0.2033
  158DOPC   GL1 1887  12.920   5.863  11.098 -0.0194  0.0203 -0.4286
  158DOPC   GL2 1888  12.590   5.953  11.105 -0.1860 -0.0540  0.2342
  158DOPC   C1A 1889  13.216   5.706  11.451 -0.0269  0.0492 -0.0521
  158DOPC   D2A 1890  13.452   5.674  11.880  0.2266  0.0639  0.1023
  158DOPC   C3A 1891  13.401   5.846  12.335 -0.2283 -0.0912 -0.0703
  158DOPC   C4A 1892  13.354   5.886  12.797 -0.0011 -0.0938 -0.0446
  158DOPC   C1B 1893  12.397   6.170  11.369  0.1266 -0.0595  0.0734
  158DOPC   D2B 1894  12.212   6.507  11.617 -0.2722  0.0385 -0.3433
  158DOPC   C3B 1895  12.285   6.515  12.047 -0.0343  0.0255  0.3183
  158DOPC   C4B 1896  12.014   6.706  12.445 -0.0300 -0.1902 -0.2649
  159DOPC   NC3 1897   3.314   0.719  11.388  0.1632 -0.0993 -0.0729
  159DOPC   PO4 1898   3.523   0.685  11.708  0.0220  0.0377 -0.1043
  159DOPC   GL1 1899   3.413   0.827  12.117  0.1603 -0.2792  0.0006
  159DOPC   GL2 1900   3.186   0.625  12.169  0.2759 -0.0069  0.0881
  159DOPC   C1A 1901   3.531   0.895  12.516 -0.0160 -0.1444  0.0651
  159DOPC   D2A 1902   3.643   0.890  12.934 -0.0535  0.0325 -0.2978
  159DOPC   C3A 1903   3.685   0.754  13.365 -0.0198 -0.3798  0.1428
  159DOPC   C4A 1904   3.552   0.519  13.840  0.1675 -0.1426  0.0714
  159DOPC   C1B 1905   3.194   0.456  12.514  0.3089  0.0599 -0.0309
  159DOPC   D2B 1906   3.321   0.436  13.017  0.0994  0.1864 -0.0620
  159DOPC   C3B 1907   2.912   0.562  13.203 -0.1892  0.3555 -0.2587
  159DOPC   C4B 1908   2.528   0.675  13.408  0.0667  0.2232  0.0653
  160DOPC   NC3 1909  16.846   0.611  10.710 -0.4578 -0.2344 -0.3046
  160DOPC   PO4 1910  16.929   0.307  10.910 -0.0680 -0.1094  0.0331
  160DOPC   GL1 1911  17.225   0.378  11.188  0.1898 -0.3259 -0.0673
  160DOPC   GL2 1912  17.048   0.514  11.422 -0.0550 -0.0776 -0.2702
  160DOPC   C1A 1913  17.554   0.299  11.394  0.2664 -0.0179 -0.0918
  160DOPC   D2A 1914  17.984   0.057  11.428 -0.0589 -0.0530 -0.0499
  160DOPC   C3A 1915  18.008  -0.272  11.725 -0.0055 -0.0529 -0.0965
  160DOPC   C4A 1916  17.708  -0.694  11.846  0.0492  0.1350 -0.0868
  160DOPC   C1B 1917  17.093   0.760  11.841  0.0482 -0.1528 -0.2052
  160DOPC   D2B 1918  17.036   0.959  12.260  0.1214 -0.5122 -0.0810
  160DOPC   C3B 1919  16.854   0.804  12.617  0.0518  0.1060 -0.0941
  160DOPC   C4B 1920  16.497   0.643  12.891  0.1203 -0.2823  0.0401
  161DOPC   NC3 1921   2.686   4.636  11.224  0.0917  0.0014 -0.2802
  161DOPC   PO4 1922   2.707   4.258  11.153  0.2578  0.0498  0.0035
  161DOPC   GL1 1923   3.021   4.192  11.418 -0.2907  0.2132  0.0507
  161DOPC   GL2 1924   2.944   4.002  11.636  0.0521 -0.2576 -0.0734
  161DOPC   C1A 1925   3.224   4.454  11.779  0.0107  0.4162  0.0808
  161DOPC   D2A 1926   3.557   4.734  12.059 -0.0353 -0.0855  0.0232
  161DOPC   C3A 1927   3.805   5.089  12.172  0.0376 -0.2659  0.1912
  161DOPC   C4A 1928   4.041   5.531  12.260  0.3468  0.2693  0.0292
  161DOPC   C1B 1929   3.338   3.955  11.846 -0.2917  0.0786  0.0851
  161DOPC   D2B 1930   3.592   4.185  12.170 -0.1586 -0.4038  0.1487
  161DOPC   C3B 1931   3.562   4.440  12.531 -0.2104  0.0749  0.1063
  161DOPC   C4B 1932   3.642   4.518  12.936  0.3002 -0.0530 -0.3037
  162DOPC   NC3 1933   7.779   3.283  10.324 -0.0354 -0.0746  0.1000
  162DOPC   PO4 1934   7.886   3.117  10.683  0.0239  0.0497  0.1322
  162DOPC   GL1 1935   7.827   3.047  11.125 -0.0582 -0.3279 -0.2172
  162DOPC   GL2 1936   8.001   2.839  11.189 -0.1763 -0.2224  0.2528
  162DOPC   C1A 1937   7.467   3.309  11.352 -0.1079  0.0110 -0.0147
  162DOPC   D2A 1938   7.223   3.534  11.698  0.0083 -0.0592  0.0952
  162DOPC   C3A 1939   7.432   3.583  12.076 -0.4724  0.1523 -0.1011
  162DOPC   C4A 1940   7.297   3.726  12.557 -0.1290  0.1301  0.1368
  162DOPC   C1B 1941   8.321   2.771  11.412  0.3635  0.3588 -0.0285
  162DOPC   D2B 1942   8.170   2.406  11.783 -0.0406 -0.1545 -0.0660
  162DOPC   C3B 1943   8.334   2.342  12.219  0.0513 -0.0371  0.1963
  162DOPC   C4B 1944   8.318   2.117  12.571  0.0135  0.4253 -0.2608
  163DOPC   NC3 1945  29.797   3.157  11.219  0.2169 -0.0815 -0.2313
  163DOPC   PO4 1946  29.690   2.796  11.423  0.1253  0.0170  0.1261
  163DOPC   GL1 1947  29.531   2.797  11.842  0.1989 -0.3722 -0.2035
  163DOPC   GL2 1948  29.760   2.681  11.906 -0.0385  0.1985 -0.1827
  163DOPC   C1A 1949  29.257   2.872  12.140  0.0548 -0.0647 -0.1563
  163DOPC   D2A 1950  29.143   3.175  12.514  0.3023 -0.0187  0.4059
  163DOPC   C3A 1951  29.194   3.225  12.969  0.0332  0.0124 -0.1688
  163DOPC   C4A 1952  29.087   3.552  13.320  0.0044 -0.0881 -0.1055
  163DOPC   C1B 1953  29.727   2.690  12.315  0.0175  0.0618 -0.0728
  163DOPC   D2B 1954  29.790   2.382  12.743  0.0158 -0.2802  0.0143
  163DOPC   C3B 1955  29.997   2.401  13.101  0.0283 -0.1503  0.0368
  163DOPC   C4B 1956  30.142   2.153  13.519  0.2675  0.2136 -0.2592
  164DOPC   NC3 1957  16.313   6.275  11.427 -0.5693  0.4207  0.0087
  164DOPC   PO4 1958  15.929   6.335  11.300 -0.0498 -0.0217  0.1095
  164DOPC   GL1 1959  15.887   6.649  11.501 -0.1675 -0.1917 -0.2306
  164DOPC   GL2 1960  15.963   6.515  11.781  0.2479 -0.1005  0.0043
  164DOPC   C1A 1961  15.619   6.956  11.744 -0.1289  0.0868 -0.2209
  164DOPC   D2A 1962  15.145   7.121  11.902 -0.0655 -0.1951 -0.0874
  164DOPC   C3A 1963  14.861   6.833  12.225 -0.0747  0.0251 -0.0686
  164DOPC   C4A 1964  14.645   6.452  12.538  0.2808 -0.0591 -0.1057
  164DOPC   C1B 1965  15.721   6.617  12.088  0.3640 -0.0627  0.1614
  164DOPC   D2B 1966  15.436   6.427  12.441 -0.3197 -0.0641 -0.2223
  164DOPC   C3B 1967  15.084   6.558  12.739  0.0532  0.2507  0.0071
  164DOPC   C4B 1968  15.004   7.062  12.725  0.0365  0.1484  0.0093
  165DOPC   NC3 1969  13.063   1.660  10.510 -0.1078  0.1425 -0.4208
  165DOPC   PO4 1970  13.403   1.775  10.714 -0.1287  0.0830 -0.1290
  165DOPC   GL1 1971  13.455   2.040  11.055  0.1951  0.1163 -0.0393
  165DOPC   GL2 1972  13.777   2.053  10.986  0.0938  0.1374 -0.0932
  165DOPC   C1A 1973  13.336   2.041  11.488 -0.0072 -0.1675  0.0793
  165DOPC   D2A 1974  13.281   2.106  11.962  0.1067  0.1126  0.0970
  165DOPC   C3A 1975  13.451   2.415  12.265  0.0921  0.1456 -0.0246
  165DOPC   C4A 1976  13.560   2.795  12.483 -0.3116  0.0938 -0.0755
  165DOPC   C1B 1977  13.838   1.935  11.335  0.1416  0.0865 -0.3487
  165DOPC   D2B 1978  14.226   1.893  11.719  0.3053 -0.0306  0.0626
  165DOPC   C3B 1979  14.060   2.086  12.071 -0.1945 -0.0123 -0.2291
  165DOPC   C4B 1980  13.819   2.202  12.502  0.1449  0.0967  0.2453
  166DOPC   NC3 1981   9.443   3.604  10.650 -0.3349  0.1176  0.2221
  166DOPC   PO4 1982   9.608   3.877  10.865 -0.0729 -0.0635  0.0853
  166DOPC   GL1 1983   9.703   3.931  11.203 -0.2748  0.0315 -0.2377
  166DOPC   GL2 1984   9.780   4.206  11.280 -0.2582  0.0343  0.0129
  166DOPC   C1A 1985   9.720   3.652  11.555 -0.1838 -0.1112 -0.0465
  166DOPC   D2A 1986   9.708   3.552  11.984 -0.1764  0.1949 -0.1790
  166DOPC   C3A 1987   9.773   3.200  12.203  0.0653  0.3333  0.0101
  166DOPC   C4A 1988   9.777   2.782  12.495 -0.1274 -0.3200 -0.1184
  166DOPC   C1B 1989   9.585   4.229  11.631  0.2086 -0.0191  0.1820
  166DOPC   D2B 1990   9.432   4.259  12.100  0.0857 -0.0853  0.2021
  166DOPC   C3B 1991   8.992   4.099  11.920 -0.1148 -0.4083 -0.1698
  166DOPC   C4B 1992   8.643   3.891  11.597  0.0206  0.0593 -0.2179
  167DOPC   NC3 1993  19.799   5.415  10.327  0.1915  0.0032 -0.2107
  167DOPC   PO4 1994  19.426   5.386  10.439  0.2720 -0.0383 -0.1917
  167DOPC   GL1 1995  19.214   5.382  10.821  0.1039 -0.1647 -0.0816
  167DOPC   GL2 1996  18.977   5.465  10.821 -0.2138 -0.3819  0.1156
  167DOPC   C1A 1997  19.246   5.221  11.212 -0.4211 -0.0423  0.0243
  167DOPC   D2A 1998  19.285   5.359  11.676  0.1180  0.1082 -0.1170
  167DOPC   C3A 1999  19.143   5.643  12.029 -0.0527  0.4220  0.4227
  167DOPC   C4A 2000  19.114   5.712  12.447  0.2574 -0.2711 -0.2303
  167DOPC   C1B 2001  18.919   5.657  11.217  0.0808  0.0405 -0.4391
  167DOPC   D2B 2002  18.700   5.677  11.703  0.0973 -0.0335  0.1163
  167DOPC   C3B 2003  18.440   5.565  12.066  0.1877 -0.2783  0.3905
  167DOPC   C4B 2004  18.238   5.415  12.486 -0.1559 -0.1187  0.0049
  168DOPC   NC3 2005  29.151   2.047  11.082  0.3044  0.3605 -0.0612
  168DOPC   PO4 2006  28.784   2.224  11.104  0.1903  0.0437 -0.1710
  168DOPC   GL1 2007  28.464   2.291  11.442 -0.2300 -0.2292 -0.3158
  168DOPC   GL2 2008  28.589   2.044  11.443 -0.3462  0.1956 -0.4820
  168DOPC   C1A 2009  28.503   2.440  11.832  0.1876  0.0134 -0.0479
  168DOPC   D2A 2010  28.505   2.363  12.293  0.1062 -0.0071  0.0943
  168DOPC   C3A 2011  28.343   2.637  12.645  0.1762  0.0972 -0.3366
  168DOPC   C4A 2012  28.279   2.828  13.103 -0.3069 -0.0024 -0.1000
  168DOPC   C1B 2013  28.592   1.935  11.859 -0.0466 -0.1253 -0.0174
  168DOPC   D2B 2014  28.806   1.908  12.351 -0.0985  0.1820 -0.0160
  168DOPC   C3B 2015  28.744   1.503  12.589 -0.1445 -0.0224 -0.2830
  168DOPC   C4B 2016  28.703   1.319  13.059 -0.1341 -0.1295  0.3718
  169DOPC   NC3 2017   2.799   2.243  10.810 -0.0162 -0.1534 -0.1714
  169DOPC   PO4 2018   3.028   2.311  11.113  0.0771 -0.0904  0.0493
  169DOPC   GL1 2019   2.975   2.250  11.543  0.0484 -0.1567  0.3447
  169DOPC   GL2 2020   2.894   2.583  11.543 -0.0945  0.0123 -0.3316
  169DOPC   C1A 2021   2.809   1.999  11.865  0.1117  0.3846  0.2010
  169DOPC   D2A 2022   2.456   1.687  11.966  0.1575 -0.2866 -0.0912
  169DOPC   C3A 2023   2.488   1.449  12.396 -0.0912 -0.1408  0.0254
  169DOPC   C4A 2024   2.529   1.502  12.902  0.3045  0.2770 -0.0545
  169DOPC   C1B 2025   2.621   2.543  11.938 -0.0946 -0.0533 -0.2843
  169DOPC   D2B 2026   2.524   2.127  12.206  0.1532 -0.3972 -0.0356
  169DOPC   C3B 2027   2.420   1.914  12.590  0.0876  0.1524 -0.0661
  169DOPC   C4B 2028   2.246   2.030  13.042  0.3656 -0.1738  0.2424
  170DOPC   NC3 2029  11.262   2.086  11.230 -0.2547 -0.2556 -0.1721
  170DOPC   PO4 2030  11.657   2.217  11.155  0.1932 -0.2977 -0.0948
  170DOPC   GL1 2031  11.836   2.280  11.467 -0.1685 -0.0510 -0.0523
  170DOPC   GL2 2032  11.577   2.381  11.553 -0.1067  0.1228  0.0188
  170DOPC   C1A 2033  12.018   2.399  11.779 -0.2088 -0.1617 -0.1744
  170DOPC   D2A 2034  12.240   2.079  12.109 -0.1100  0.2027  0.1294
  170DOPC   C3A 2035  12.197   1.818  12.462 -0.1414  0.0915 -0.0993
  170DOPC   C4A 2036  11.988   1.739  12.929  0.0075 -0.2931  0.0534
  170DOPC   C1B 2037  11.536   2.663  11.868  0.0973  0.2870 -0.1531
  170DOPC   D2B 2038  11.518   2.970  12.246 -0.0919 -0.1348 -0.0443
  170DOPC   C3B 2039  11.750   3.122  12.603  0.1248  0.0528 -0.1304
  170DOPC   C4B 2040  12.014   3.340  12.986 -0.1291 -0.2830  0.0741
  171DOPC   NC3 2041   6.199   1.903  10.854 -0.3222 -0.1775  0.0158
  171DOPC   PO4 2042   6.160   1.508  11.044  0.1423  0.2147  0.0344
  171DOPC   GL1 2043   6.080   1.399  11.449  0.1623  0.0708 -0.1377
  171DOPC   GL2 2044   6.287   1.280  11.477 -0.3290  0.1047 -0.2808
  171DOPC   C1A 2045   5.981   1.730  11.750 -0.1731  0.2973 -0.0848
  171DOPC   D2A 2046   5.968   2.147  12.094 -0.0745  0.0644  0.2281
  171DOPC   C3A 2047   5.920   2.395  12.503 -0.0980 -0.1131 -0.1311
  171DOPC   C4A 2048   5.781   2.568  12.911  0.2806 -0.1310  0.1217
  171DOPC   C1B 2049   6.249   0.917  11.718  0.2566  0.0264  0.0168
  171DOPC   D2B 2050   6.219   0.525  12.026 -0.1622  0.1733 -0.1967
  171DOPC   C3B 2051   6.246   0.516  12.526  0.2727 -0.0453 -0.1386
  171DOPC   C4B 2052   6.521   0.265  12.813  0.1920  0.2846  0.1466
  172DOPC   NC3 2053  19.451   3.133  11.335 -0.3554 -0.2048  0.0585
  172DOPC   PO4 2054  19.440   3.430  11.105 -0.0714 -0.1611  0.1515
  172DOPC   GL1 2055  19.500   3.804  11.313  0.0841 -0.1624 -0.1500
  172DOPC   GL2 2056  19.370   3.821  11.562 -0.2349  0.1906  0.1237
  172DOPC   C1A 2057  19.809   3.836  11.633 -0.1422  0.1423 -0.1095
  172DOPC   D2A 2058  20.026   4.072  12.051 -0.0434  0.1593  0.2099
  172DOPC   C3A 2059  20.095   4.125  12.495  0.2305  0.0652  0.1062
  172DOPC   C4A 2060  20.429   4.005  12.804  0.1514  0.1665 -0.2096
  172DOPC   C1B 2061  19.483   3.550  11.860 -0.2498  0.1783  0.3489
  172DOPC   D2B 2062  19.651   3.272  12.235 -0.5035 -0.0020  0.1705
  172DOPC   C3B 2063  19.719   2.801  12.275 -0.2820  0.2143  0.0461
  172DOPC   C4B 2064  19.618   2.347  12.298  0.2532  0.1412 -0.0518
  173DOPC   NC3 2065   7.364   1.991  10.479  0.1583  0.0395 -0.2230
  173DOPC   PO4 2066   7.614   1.860  10.762  0.2656  0.1319  0.1870
  173DOPC   GL1 2067   7.593   2.004  11.130  0.2114  0.1281 -0.1882
  173DOPC   GL2 2068   7.777   2.096  11.275  0.1952 -0.1612  0.1755
  173DOPC   C1A 2069   7.523   1.742  11.460 -0.1985  0.0248 -0.2995
  173DOPC   D2A 2070   7.649   1.505  11.842 -0.4648  0.0373  0.1882
  173DOPC   C3A 2071   7.944   1.269  12.083  0.0542 -0.1329 -0.2796
  173DOPC   C4A 2072   8.141   0.859  12.256  0.0768 -0.2285 -0.2307
  173DOPC   C1B 2073   7.576   2.256  11.652 -0.1244  0.0791  0.0602
  173DOPC   D2B 2074   7.503   1.959  11.986 -0.0311 -0.0609  0.2652
  173DOPC   C3B 2075   7.708   1.812  12.380  0.0168 -0.3133 -0.3109
  173DOPC   C4B 2076   7.706   1.528  12.827 -0.3415 -0.2403  0.0477
  174DOPC   NC3 2077  23.498   4.292  10.658 -0.1794  0.0156  0.0580
  174DOPC   PO4 2078  23.502   4.382  11.085 -0.0464  0.2282 -0.1250
  174DOPC   GL1 2079  23.400   4.477  11.533 -0.2155  0.2833  0.0540
  174DOPC   GL2 2080  23.329   4.726  11.592 -0.0583  0.1739  0.3571
  174DOPC   C1A 2081  23.213   4.376  11.939  0.2134  0.0044  0.0509
  174DOPC   D2A 2082  23.104   4.379  12.389 -0.0964  0.0200 -0.0462
  174DOPC   C3A 2083  23.117   4.102  12.825 -0.2373  0.2060  0.0603
  174DOPC   C4A 2084  22.961   3.744  13.170  0.0453  0.0048  0.2429
  174DOPC   C1B 2085  23.226   4.899  12.013  0.0491 -0.0007  0.1539
  174DOPC   D2B 2086  23.102   5.073  12.469 -0.1515 -0.3340 -0.2632
  174DOPC   C3B 2087  22.793   5.207  12.787  0.0276 -0.0607 -0.0570
  174DOPC   C4B 2088  22.341   5.340  12.970  0.4408 -0.0132  0.1603
  175DOPC   NC3 2089  28.680   5.681  11.039 -0.1220  0.0194  0.2583
  175DOPC   PO4 2090  28.565   6.043  11.097  0.0694  0.1492  0.0364
  175DOPC   GL1 2091  28.322   6.141  11.415 -0.1490 -0.2080 -0.1047
  175DOPC   GL2 2092  28.218   5.866  11.473 -0.0768 -0.0724 -0.0423
  175DOPC   C1A 2093  28.378   6.375  11.779 -0.0938 -0.1010 -0.0506
  175DOPC   D2A 2094  28.172   6.550  12.210 -0.0031 -0.1908 -0.0805
  175DOPC   C3A 2095  28.395   6.744  12.590  0.4037  0.2293 -0.1541
  175DOPC   C4A 2096  28.692   7.070  12.861 -0.0087  0.1299  0.2351
  175DOPC   C1B 2097  27.946   5.794  11.822 -0.1970 -0.1636  0.1364
  175DOPC   D2B 2098  27.596   5.833  12.149  0.0780  0.1129  0.0823
  175DOPC   C3B 2099  27.487   5.738  12.599 -0.1672 -0.3781 -0.2762
  175DOPC   C4B 2100  27.475   5.867  13.130  0.0043 -0.0022  0.0803
  176DOPS   CNO 2101  14.695   5.314  10.562  0.2267  0.0633 -0.1899
  176DOPS   PO4 2102  14.874   5.509  10.794  0.2504 -0.4021  0.0118
  176DOPS   GL1 2103  14.991   5.516  11.190  0.0011 -0.0109 -0.2689
  176DOPS   GL2 2104  14.637   5.550  11.222  0.0624 -0.3222  0.2171
  176DOPS   C1A 2105  15.190   5.344  11.503  0.1568  0.1261  0.0149
  176DOPS   D2A 2106  15.502   5.077  11.841  0.0678  0.1006 -0.0042
  176DOPS   C3A 2107  15.340   5.127  12.281 -0.1571  0.0904 -0.0789
  176DOPS   C4A 2108  15.134   4.844  12.588  0.2537  0.1401  0.1091
  176DOPS   C1B 2109  14.631   5.460  11.598 -0.0121  0.0588  0.0098
  176DOPS   D2B 2110  14.369   5.611  12.015 -0.0712  0.1155  0.2422
  176DOPS   C3B 2111  14.256   5.536  12.472 -0.0478  0.0041 -0.4052
  176DOPS   C4B 2112  13.950   5.150  12.683 -0.1255  0.1072 -0.0511
  177DOPS   CNO 2113   2.309   7.112  11.840  0.0353 -0.2225 -0.2005
  177DOPS   PO4 2114   2.662   7.284  11.949  0.2262 -0.0837  0.1031
  177DOPS   GL1 2115   2.706   7.610  12.202  0.1757  0.1369  0.2419
  177DOPS   GL2 2116   2.879   7.474  12.339 -0.1040  0.1902 -0.2681
  177DOPS   C1A 2117   2.520   7.699  12.591  0.0581 -0.1457  0.0125
  177DOPS   D2A 2118   2.214   7.708  12.954  0.1954 -0.1624  0.0935
  177DOPS   C3A 2119   2.394   7.527  13.339 -0.2799 -0.0336  0.0869
  177DOPS   C4A 2120   2.738   7.326  13.673 -0.1657  0.1850  0.5129
  177DOPS   C1B 2121   2.867   7.155  12.568  0.3424  0.1411 -0.1309
  177DOPS   D2B 2122   2.752   6.668  12.816 -0.0670  0.0865  0.0799
  177DOPS   C3B 2123   2.626   6.432  13.204 -0.0931 -0.2381 -0.3368
  177DOPS   C4B 2124   2.299   6.063  13.215  0.1497 -0.3978 -0.0640
  178DOPS   CNO 2125   3.710   3.781  10.766  0.1064  0.1739 -0.2066
  178DOPS   PO4 2126   3.519   4.008  10.982 -0.0769  0.0030  0.2348
  178DOPS   GL1 2127   3.477   4.205  11.423  0.2273 -0.1503 -0.0484
  178DOPS   GL2 2128   3.734   4.066  11.397 -0.0482 -0.0140 -0.0016
  178DOPS   C1A 2129   3.708   4.597  11.582 -0.2634  0.1958  0.0599
  178DOPS   D2A 2130   4.022   4.680  11.985 -0.3459  0.3165 -0.1405
  178DOPS   C3A 2131   4.056   4.704  12.496 -0.2257  0.1024  0.1760
  178DOPS   C4A 2132   4.129   4.650  12.967 -0.0395 -0.2081 -0.0316
  178DOPS   C1B 2133   3.940   4.033  11.779 -0.1490 -0.0592 -0.0558
  178DOPS   D2B 2134   4.135   4.244  12.212 -0.1276 -0.0283 -0.2097
  178DOPS   C3B 2135   3.980   4.241  12.645  0.0124  0.2429 -0.2574
  178DOPS   C4B 2136   4.037   4.158  13.131 -0.1665 -0.0177 -0.1644
  179DOPS   CNO 2137  30.355   0.665  11.354 -0.0391  0.0521 -0.0084
  179DOPS   PO4 2138  30.577   0.911  11.561  0.2400 -0.1720 -0.1462
  179DOPS   GL1 2139  30.503   0.682  12.041 -0.2138  0.2052  0.2948
  179DOPS   GL2 2140  30.214   0.643  11.846 -0.2652  0.1121 -0.0316
  179DOPS   C1A 2141  30.344   0.533  12.479 -0.1309  0.0650 -0.0153
  179DOPS   D2A 2142  30.251   0.174  12.831 -0.0653 -0.2614 -0.0611
  179DOPS   C3A 2143  30.194   0.109  13.291  0.1375 -0.2648 -0.2221
  179DOPS   C4A 2144  30.088  -0.066  13.759  0.1652  0.1291 -0.1814
  179DOPS   C1B 2145  29.890   0.600  12.193 -0.2136  0.1191  0.0102
  179DOPS   D2B 2146  29.839   0.490  12.635 -0.0686  0.0387  0.1503
  179DOPS   C3B 2147  29.634   0.536  13.032  0.1279 -0.1283 -0.2095
  179DOPS   C4B 2148  29.320   0.712  13.378  0.0748  0.0476 -0.1339
  180DOPS   CNO 2149   3.774   6.852  11.252 -0.0856 -0.3403  0.0096
  180DOPS   PO4 2150   4.058   6.884  11.517 -0.0829  0.2517 -0.1889
  180DOPS   GL1 2151   4.078   6.799  11.925 -0.1169  0.2630 -0.0636
  180DOPS   GL2 2152   4.166   7.108  11.926 -0.2197  0.4008  0.1512
  180DOPS   C1A 2153   3.875   6.637  12.275 -0.3206 -0.1260 -0.1822
  180DOPS   D2A 2154   3.968   6.361  12.699 -0.2992  0.2503  0.0954
  180DOPS   C3A 2155   4.297   6.166  12.997 -0.0179  0.1718  0.0975
  180DOPS   C4A 2156   4.257   6.076  13.487 -0.1699  0.3237  0.1720
  180DOPS   C1B 2157   4.323   7.364  12.250  0.0071  0.0133 -0.0672
  180DOPS   D2B 2158   4.609   7.755  12.378 -0.3101  0.1673 -0.2205
  180DOPS   C3B 2159   4.500   7.696  12.878 -0.2447 -0.0692  0.0092
  180DOPS   C4B 2160   4.466   7.947  13.313 -0.4657 -0.1393 -0.0867
  181DOPS   CNO 2161  30.219   3.912  11.409 -0.0433 -0.0079 -0.1326
  181DOPS   PO4 2162  30.154   4.263  11.559  0.4997  0.0412 -0.0777
  181DOPS   GL1 2163  30.293   4.075  11.934  0.3302  0.1645 -0.4211
  181DOPS   GL2 2164  30.179   3.819  11.860 -0.4042 -0.0975  0.2778
  181DOPS   C1A 2165  30.472   4.021  12.323  0.0152  0.3651 -0.1156
  181DOPS   D2A 2166  30.420   4.028  12.787  0.0073 -0.1959 -0.0325
  181DOPS   C3A 2167  30.041   4.221  13.026 -0.0773  0.0825 -0.4085
  181DOPS   C4A 2168  29.932   4.662  13.182  0.0086  0.0383  0.1696
  181DOPS   C1B 2169  29.865   3.741  12.142  0.2597  0.3108  0.0159
  181DOPS   D2B 2170  29.744   3.572  12.542 -0.2315  0.2001  0.1680
  181DOPS   C3B 2171  29.532   3.870  12.931  0.0264 -0.1211 -0.0614
  181DOPS   C4B 2172  29.319   4.024  13.297  0.0686  0.0912 -0.0590
  182DOPS   CNO 2173  20.114   5.066  10.442 -0.2497  0.0811 -0.0450
  182DOPS   PO4 2174  20.074   4.957  10.791 -0.0279 -0.0079 -0.0253
  182DOPS   GL1 2175  19.696   5.047  10.948 -0.0244 -0.2137  0.1284
  182DOPS   GL2 2176  19.667   5.304  10.814  0.1770 -0.2883 -0.4014
  182DOPS   C1A 2177  19.633   4.987  11.374  0.0739  0.0750  0.2064
  182DOPS   D2A 2178  19.343   4.882  11.766 -0.3458 -0.0309  0.2010
  182DOPS   C3A 2179  19.269   4.630  12.160  0.1523  0.1301  0.4400
  182DOPS   C4A 2180  19.198   4.191  12.462 -0.0774  0.3133 -0.2766
  182DOPS   C1B 2181  19.665   5.481  11.276 -0.2473 -0.1604  0.0536
  182DOPS   D2B 2182  19.592   5.767  11.693 -0.0763 -0.1167  0.4744
  182DOPS   C3B 2183  19.644   5.912  12.165 -0.1013 -0.1754  0.1163
  182DOPS   C4B 2184  19.878   6.046  12.635  0.1921 -0.3550  0.0530
  183DOPS   CNO 2185   5.751   4.639  11.017 -0.1520 -0.1482  0.0806
  183DOPS   PO4 2186   6.110   4.601  11.156  0.1540  0.0898  0.1741
  183DOPS   GL1 2187   6.221   4.726  11.533 -0.1784 -0.2766 -0.1267
  183DOPS   GL2 2188   6.506   4.646  11.547  0.4998  0.0066  0.1189
  183DOPS   C1A 2189   6.210   4.760  11.946  0.1402  0.1639 -0.0013
  183DOPS   D2A 2190   6.404   4.693  12.368  0.1479 -0.0211 -0.2750
  183DOPS   C3A 2191   6.169   4.630  12.734 -0.1253  0.3820 -0.0600
  183DOPS   C4A 2192   5.822   4.634  13.058 -0.1237 -0.1231 -0.1600
  183DOPS   C1B 2193   6.473   4.391  11.895 -0.2484  0.0022  0.1948
  183DOPS   D2B 2194   6.219   4.065  12.117  0.3963 -0.2190 -0.0002
  183DOPS   C3B 2195   6.427   4.206  12.564  0.0977  0.1186 -0.1327
  183DOPS   C4B 2196   6.675   4.650  12.763  0.2624 -0.3092 -0.0393
  184DOPS   CNO 2197  16.387   1.478  10.804  0.0452 -0.2403 -0.0521
  184DOPS   PO4 2198  16.576   1.802  10.870  0.1667  0.3548 -0.1115
  184DOPS   GL1 2199  16.531   1.822  11.260  0.1475  0.1101 -0.2713
  184DOPS   GL2 2200  16.231   1.753  11.227 -0.0261 -0.4304 -0.0805
  184DOPS   C1A 2201  16.729   1.843  11.675 -0.0442 -0.0834 -0.0973
  184DOPS   D2A 2202  16.874   1.892  12.149  0.2071  0.1367  0.2370
  184DOPS   C3A 2203  17.045   1.792  12.587 -0.3070 -0.0505 -0.3554
  184DOPS   C4A 2204  17.326   1.674  12.962  0.1023  0.1172 -0.2221
  184DOPS   C1B 2205  16.172   1.643  11.612  0.0713  0.1705  0.3030
  184DOPS   D2B 2206  15.928   1.576  12.039  0.1878  0.0012 -0.1498
  184DOPS   C3B 2207  16.233   1.567  12.316  0.1593  0.0236  0.2073
  184DOPS   C4B 2208  16.587   1.633  12.683  0.2760 -0.1025  0.0176
  185DOPS   CNO 2209   6.113   7.402  10.892 -0.0587 -0.4672 -0.2721
  185DOPS   PO4 2210   5.830   7.495  11.116  0.0214  0.0512  0.1211
  185DOPS   GL1 2211   5.823   7.410  11.483 -0.0599 -0.1051 -0.1195
  185DOPS   GL2 2212   5.992   7.203  11.538  0.0485  0.1895 -0.0785
  185DOPS   C1A 2213   5.736   7.460  11.918 -0.1526 -0.1993  0.1245
  185DOPS   D2A 2214   5.753   7.593  12.402 -0.0775 -0.4374  0.1151
  185DOPS   C3A 2215   5.999   7.411  12.758 -0.0962 -0.1693  0.1254
  185DOPS   C4A 2216   6.014   7.325  13.256  0.4876  0.3500 -0.0833
  185DOPS   C1B 2217   5.968   7.043  11.946  0.1178  0.3930 -0.0104
  185DOPS   D2B 2218   5.860   7.040  12.406  0.1967  0.1735  0.0795
  185DOPS   C3B 2219   6.014   6.914  12.849  0.1598  0.0068 -0.0357
  185DOPS   C4B 2220   5.891   6.878  13.356 -0.0933  0.0015 -0.1136
  186DOPS   CNO 2221   0.918   7.051  11.925 -0.5705 -0.0783  0.0031
  186DOPS   PO4 2222   0.689   6.757  11.815  0.1049  0.1320 -0.1078
  186DOPS   GL1 2223   0.908   6.469  11.987  0.0520  0.0573 -0.0016
  186DOPS   GL2 2224   0.653   6.340  12.151  0.2240 -0.1347  0.1444
  186DOPS   C1A 2225   1.220   6.570  12.301 -0.1725 -0.1347  0.0081
  186DOPS   D2A 2226   1.661   6.604  12.613  0.1633  0.0441  0.0360
  186DOPS   C3A 2227   1.770   6.777  13.000 -0.2002 -0.2543 -0.1085
  186DOPS   C4A 2228   2.196   6.766  13.310 -0.0560 -0.0877  0.1641
  186DOPS   C1B 2229   0.520   6.410  12.525  0.4242 -0.1040 -0.1639
  186DOPS   D2B 2230   0.425   6.367  13.022  0.0630  0.1600  0.0913
  186DOPS   C3B 2231   0.169   6.438  13.388 -0.1120 -0.1899 -0.2307
  186DOPS   C4B 2232   0.158   6.799  13.702 -0.1536 -0.1546 -0.1972
  187DOPS   CNO 2233   7.847   4.534  10.634  0.0076 -0.4226  0.2224
  187DOPS   PO4 2234   7.575   4.510  10.898  0.1810 -0.0930  0.1933
  187DOPS   GL1 2235   7.644   4.399  11.265  0.4019 -0.1429 -0.2588
  187DOPS   GL2 2236   7.391   4.338  11.352  0.1541 -0.3264  0.0256
  187DOPS   C1A 2237   7.916   4.567  11.612 -0.0594  0.5254  0.0283
  187DOPS   D2A 2238   8.038   4.617  12.057 -0.1754  0.1522  0.3845
  187DOPS   C3A 2239   8.151   4.913  12.361 -0.0169 -0.1150 -0.0744
  187DOPS   C4A 2240   8.214   5.321  12.625 -0.1622 -0.1073  0.2852
  187DOPS   C1B 2241   7.418   4.215  11.740 -0.1926 -0.6102  0.1592
  187DOPS   D2B 2242   7.247   4.081  12.219  0.0272 -0.0965 -0.2097
  187DOPS   C3B 2243   6.927   4.113  12.579  0.2482  0.0645 -0.1875
  187DOPS   C4B 2244   6.679   4.197  13.015 -0.0798  0.1553  0.1309
  188DOPS   CNO 2245  20.931   5.480  10.125 -0.0272  0.0238  0.2159
  188DOPS   PO4 2246  20.707   5.526  10.445 -0.0026  0.0127 -0.1449
  188DOPS   GL1 2247  20.898   5.467  10.857 -0.0101 -0.1547 -0.1484
  188DOPS   GL2 2248  20.849   5.738  10.923  0.0670 -0.3700  0.2080
  188DOPS   C1A 2249  20.626   5.354  11.186  0.0345 -0.0109  0.1113
  188DOPS   D2A 2250  20.557   5.574  11.667  0.0517 -0.2720  0.1038
  188DOPS   C3A 2251  20.510   5.567  12.115 -0.0403  0.0847  0.2930
  188DOPS   C4A 2252  20.547   5.375  12.525  0.2096  0.0189  0.4926
  188DOPS   C1B 2253  20.952   5.846  11.357  0.1272  0.1090  0.1283
  188DOPS   D2B 2254  20.822   5.952  11.819 -0.2218 -0.1250  0.0038
  188DOPS   C3B 2255  20.555   6.125  12.091 -0.2470 -0.0705  0.1679
  188DOPS   C4B 2256  20.318   6.200  12.486  0.2733 -0.3734 -0.1541
  189DOPS   CNO 2257  28.179   5.064  11.050  0.2175  0.2826  0.0875
  189DOPS   PO4 2258  28.493   5.233  11.072 -0.1815 -0.1396 -0.0238
  189DOPS   GL1 2259  28.535   5.475  11.422  0.2131  0.0785 -0.0930
  189DOPS   GL2 2260  28.230   5.412  11.489  0.0495  0.2629 -0.2327
  189DOPS   C1A 2261  28.619   5.362  11.758 -0.2075 -0.0658  0.1524
  189DOPS   D2A 2262  28.545   5.339  12.236 -0.0769  0.3183 -0.1852
  189DOPS   C3A 2263  28.759   5.341  12.689 -0.0689  0.1522  0.2188
  189DOPS   C4A 2264  28.684   5.320  13.168 -0.3348 -0.0541  0.2231
  189DOPS   C1B 2265  28.072   5.361  11.939 -0.0785  0.2175 -0.2026
  189DOPS   D2B 2266  27.776   5.347  12.344 -0.1194  0.5013  0.1362
  189DOPS   C3B 2267  27.515   5.193  12.643 -0.0011 -0.0370  0.3812
  189DOPS   C4B 2268  27.295   4.976  13.008 -0.0289 -0.3954 -0.3116
  190DOPS   CNO 2269  23.427   7.253  10.700  0.1122  0.2910 -0.0421
  190DOPS   PO4 2270  23.347   7.649  10.754 -0.1063 -0.1383  0.1364
  190DOPS   GL1 2271  23.380   7.723  11.173  0.0738  0.0314 -0.2082
  190DOPS   GL2 2272  23.549   7.479  11.205  0.0106  0.0825 -0.0269
  190DOPS   C1A 2273  23.427   8.069  11.377 -0.2487 -0.0786  0.0233
  190DOPS   D2A 2274  23.357   8.435  11.707  0.0911 -0.3330 -0.1277
  190DOPS   C3A 2275  23.363   8.874  11.747  0.2872 -0.2843 -0.0267
  190DOPS   C4A 2276  23.391   9.366  11.831 -0.2279  0.1206 -0.1890
  190DOPS   C1B 2277  23.922   7.669  11.395 -0.1962  0.1868  0.0459
  190DOPS   D2B 2278  24.289   7.763  11.674  0.0161  0.1909 -0.3110
  190DOPS   C3B 2279  24.110   7.779  12.123  0.1508 -0.1831 -0.1247
  190DOPS   C4B 2280  24.213   7.778  12.636 -0.0802 -0.0394  0.0107
  191DOPS   CNO 2281  18.202   5.732  10.369 -0.2157  0.2241 -0.0069
  191DOPS   PO4 2282  18.490   5.607  10.596  0.3992 -0.1974 -0.2070
  191DOPS   GL1 2283  18.523   5.650  10.926  0.1222  0.2096 -0.0077
  191DOPS   GL2 2284  18.621   5.365  11.068  0.0005 -0.1628  0.0195
  191DOPS   C1A 2285  18.234   5.692  11.248  0.1975 -0.0348  0.0924
  191DOPS   D2A 2286  17.839   5.967  11.405 -0.0836 -0.0828  0.3138
  191DOPS   C3A 2287  17.616   6.046  11.797  0.0906 -0.2255 -0.2000
  191DOPS   C4A 2288  17.811   6.245  12.195 -0.2824 -0.0584  0.1278
  191DOPS   C1B 2289  18.468   5.228  11.513  0.1964 -0.4214  0.2299
  191DOPS   D2B 2290  18.366   5.095  11.988  0.1711  0.0177  0.2594
  191DOPS   C3B 2291  18.653   5.044  12.363  0.2537 -0.1953 -0.1612
  191DOPS   C4B 2292  18.906   4.585  12.496  0.1983 -0.3751  0.1425
  192DOPS   CNO 2293   0.209   0.324  11.242 -0.0409 -0.0065 -0.1322
  192DOPS   PO4 2294   0.048   0.170  11.567  0.0877 -0.2048 -0.0853
  192DOPS   GL1 2295   0.055   0.332  11.929  0.1906  0.2104 -0.1720
  192DOPS   GL2 2296   0.264   0.167  12.067 -0.1568  0.3015  0.4154
  192DOPS   C1A 2297  -0.147   0.188  12.343 -0.0908  0.0199 -0.1643
  192DOPS   D2A 2298  -0.141   0.238  12.857 -0.0356  0.1184 -0.1409
  192DOPS   C3A 2299  -0.238   0.569  13.155  0.3001 -0.2324  0.0188
  192DOPS   C4A 2300  -0.580   0.924  13.249  0.2479  0.1186  0.1132
  192DOPS   C1B 2301   0.330   0.306  12.474  0.3112 -0.0641  0.0844
  192DOPS   D2B 2302   0.354   0.474  12.872 -0.0246  0.1244  0.1656
  192DOPS   C3B 2303   0.270   0.566  13.329  0.1646  0.0554  0.1605
  192DOPS   C4B 2304   0.081   0.592  13.718 -0.2391  0.2528 -0.3416
  193DOPS   CNO 2305   9.481   5.735  10.102 -0.3225 -0.0713  0.0133
  193DOPS   PO4 2306   9.790   5.509  10.204  0.0631 -0.2500 -0.2266
  193DOPS   GL1 2307   9.741   5.447  10.638 -0.0293 -0.2644 -0.1467
  193DOPS   GL2 2308   9.913   5.320  10.677  0.3056 -0.1930 -0.0054
  193DOPS   C1A 2309   9.631   5.548  11.069 -0.4071  0.0291 -0.3054
  193DOPS   D2A 2310   9.812   5.567  11.511 -0.2279 -0.0085  0.0788
  193DOPS   C3A 2311   9.892   5.506  11.958 -0.0666  0.2152 -0.1047
  193DOPS   C4A 2312  10.078   5.445  12.430  0.0802 -0.0105 -0.1437
  193DOPS   C1B 2313  10.008   5.248  11.104 -0.1243 -0.2552 -0.0697
  193DOPS   D2B 2314  10.199   5.171  11.588  0.0366 -0.3274  0.1255
  193DOPS   C3B 2315  10.315   4.920  11.884  0.3622  0.0235  0.1062
  193DOPS   C4B 2316  10.288   4.817  12.378 -0.2564 -0.4794  0.0380
  194DOPS   CNO 2317   9.430   1.397  10.643  0.2069  0.0329 -0.0147
  194DOPS   PO4 2318   9.723   1.207  10.829 -0.2184 -0.1595 -0.1652
  194DOPS   GL1 2319   9.982   1.272  11.274  0.3291 -0.0594 -0.1188
  194DOPS   GL2 2320   9.948   1.521  11.249 -0.2523  0.2136 -0.2728
  194DOPS   C1A 2321   9.895   1.010  11.619  0.2486 -0.0047  0.0380
  194DOPS   D2A 2322   9.688   0.614  11.550  0.0990  0.0486  0.0756
  194DOPS   C3A 2323   9.256   0.431  11.437 -0.0562  0.0078  0.0535
  194DOPS   C4A 2324   9.013   0.070  11.620 -0.0891 -0.0597  0.1420
  194DOPS   C1B 2325   9.822   1.631  11.707 -0.0949  0.2568  0.1196
  194DOPS   D2B 2326   9.808   1.865  12.130  0.2677 -0.0981  0.1816
  194DOPS   C3B 2327  10.126   1.624  12.396 -0.0840 -0.0825 -0.1644
  194DOPS   C4B 2328  10.407   1.956  12.707  0.3572 -0.0921 -0.1024
  195DOPS   CNO 2329  21.789   2.154  10.614 -0.1761  0.0558  0.0500
  195DOPS   PO4 2330  21.520   1.912  10.697  0.2567 -0.0726 -0.4725
  195DOPS   GL1 2331  21.441   1.678  11.104 -0.1945 -0.1634  0.0563
  195DOPS   GL2 2332  21.380   1.951  11.159 -0.0811  0.0471  0.1126
  195DOPS   C1A 2333  21.291   1.328  11.172 -0.3048  0.1482  0.0161
  195DOPS   D2A 2334  21.052   0.938  11.379  0.1458 -0.1192  0.0461
  195DOPS   C3A 2335  20.996   0.800  11.823 -0.0142 -0.0931  0.0771
  195DOPS   C4A 2336  20.926   0.440  12.201  0.2046 -0.1872  0.0063
  195DOPS   C1B 2337  21.796   2.026  11.312  0.0599 -0.0965  0.1645
  195DOPS   D2B 2338  21.948   1.968  11.754 -0.0327 -0.0853 -0.1886
  195DOPS   C3B 2339  22.151   1.752  12.063 -0.1776  0.0411 -0.1741
  195DOPS   C4B 2340  22.535   1.594  12.314 -0.1241 -0.0062 -0.0880
  196DOPS   CNO 2341  10.681   5.936  10.343 -0.1791  0.3243  0.0638
  196DOPS   PO4 2342  10.843   5.717  10.587 -0.1731 -0.0613 -0.0155
  196DOPS   GL1 2343  10.974   5.751  10.973  0.0656  0.2421 -0.1046
  196DOPS   GL2 2344  10.677   5.608  10.918  0.0601  0.2036 -0.2425
  196DOPS   C1A 2345  11.114   5.930  11.332  0.3401  0.2516 -0.1371
  196DOPS   D2A 2346  11.144   6.072  11.780  0.0428 -0.0449  0.3266
  196DOPS   C3A 2347  11.434   6.013  12.119  0.0099  0.1171  0.0522
  196DOPS   C4A 2348  11.563   5.746  12.535 -0.1149  0.1395 -0.0388
  196DOPS   C1B 2349  10.591   5.871  11.306  0.1378 -0.0096 -0.0830
  196DOPS   D2B 2350  10.597   6.089  11.734  0.1521  0.2695  0.2291
  196DOPS   C3B 2351  10.730   5.894  12.175 -0.0861 -0.0994 -0.3488
  196DOPS   C4B 2352  11.120   5.840  12.460  0.0153 -0.1692  0.3354
  197DOPS   CNO 2353   0.914   6.358  11.491  0.0248  0.1512  0.2180
  197DOPS   PO4 2354   0.856   6.082  11.705 -0.0133  0.0706 -0.0102
  197DOPS   GL1 2355   0.454   5.950  12.002  0.1043  0.3460  0.2420
  197DOPS   GL2 2356   0.648   5.740  12.017  0.5367  0.3316  0.0128
  197DOPS   C1A 2357   0.359   5.991  12.430 -0.1626  0.2553 -0.2702
  197DOPS   D2A 2358   0.651   5.992  12.826 -0.0736  0.0331 -0.1121
  197DOPS   C3A 2359   0.532   5.912  13.270 -0.0882 -0.1046  0.2584
  197DOPS   C4A 2360   0.410   5.849  13.748 -0.0928  0.4870 -0.1205
  197DOPS   C1B 2361   0.667   5.547  12.387 -0.4001 -0.1079 -0.0378
  197DOPS   D2B 2362   0.610   5.489  12.889  0.0954 -0.2365 -0.2145
  197DOPS   C3B 2363   0.169   5.751  12.848 -0.0241  0.1543 -0.1445
  197DOPS   C4B 2364   0.021   6.211  12.819  0.1924  0.0110  0.0275
  198DOPS   CNO 2365  28.827   5.026  11.347  0.0534 -0.0534  0.0231
  198DOPS   PO4 2366  28.863   4.606  11.313 -0.3236  0.2661 -0.0148
  198DOPS   GL1 2367  28.841   4.588  11.766 -0.1712  0.0201 -0.0874
  198DOPS   GL2 2368  28.768   4.344  11.757  0.2114  0.1533 -0.0173
  198DOPS   C1A 2369  28.667   4.895  12.016 -0.1955  0.0078 -0.1588
  198DOPS   D2A 2370  28.558   4.918  12.528 -0.3029  0.2197  0.0007
  198DOPS   C3A 2371  28.612   4.909  12.946 -0.1523 -0.1215 -0.0520
  198DOPS   C4A 2372  28.647   4.654  13.383 -0.1798  0.2290 -0.0009
  198DOPS   C1B 2373  29.091   4.225  11.944  0.0758 -0.1016 -0.0551
  198DOPS   D2B 2374  29.542   4.266  12.073  0.1070 -0.3211 -0.1897
  198DOPS   C3B 2375  29.790   4.613  12.255  0.1672  0.0234 -0.1735
  198DOPS   C4B 2376  30.149   4.809  12.531  0.1005 -0.2288  0.0809
  199DOPS   CNO 2377  29.973   1.879  10.869 -0.0664 -0.1216 -0.1636
  199DOPS   PO4 2378  29.646   1.922  11.020  0.0812 -0.1608  0.2297
  199DOPS   GL1 2379  29.600   2.093  11.433  0.1142  0.5592 -0.3580
  199DOPS   GL2 2380  29.537   2.275  11.432  0.1059 -0.1589 -0.1362
  199DOPS   C1A 2381  29.766   2.010  11.897 -0.0559  0.0898  0.1942
  199DOPS   D2A 2382  29.608   1.836  12.313 -0.0274 -0.0699  0.1099
  199DOPS   C3A 2383  29.262   1.653  12.544  0.1128 -0.0916  0.0293
  199DOPS   C4A 2384  28.974   1.778  12.936 -0.2244 -0.0204  0.2013
  199DOPS   C1B 2385  29.455   2.366  11.810  0.1052  0.1307 -0.1181
  199DOPS   D2B 2386  29.460   2.286  12.295  0.0965  0.4153 -0.2033
  199DOPS   C3B 2387  29.167   2.183  12.581 -0.1693  0.0303  0.2430
  199DOPS   C4B 2388  28.694   2.300  12.805 -0.3062  0.2247 -0.0538
  200DOPS   CNO 2389   8.056   6.281  11.107 -0.0313 -0.0443  0.1026
  200DOPS   PO4 2390   7.771   6.010  11.065  0.1446  0.1315 -0.3028
  200DOPS   GL1 2391   7.564   5.817  11.447  0.1387 -0.0309  0.3310
  200DOPS   GL2 2392   7.454   6.084  11.542  0.1419 -0.0038  0.0322
  200DOPS   C1A 2393   7.653   5.488  11.581  0.2277  0.4867 -0.1870
  200DOPS   D2A 2394   7.561   4.949  11.688 -0.2175 -0.1266  0.1188
  200DOPS   C3A 2395   7.480   4.668  12.027 -0.3085  0.0076 -0.1729
  200DOPS   C4A 2396   7.733   4.506  12.436  0.1845 -0.1392 -0.2355
  200DOPS   C1B 2397   7.553   6.374  11.865  0.0253 -0.3091 -0.0102
  200DOPS   D2B 2398   7.675   6.759  12.205  0.3577  0.2758 -0.2918
  200DOPS   C3B 2399   7.904   6.798  12.550  0.1039 -0.2273  0.1295
  200DOPS   C4B 2400   8.310   6.742  12.852  0.1111 -0.2203  0.0866
  201W        W 2401  19.348   4.002  21.209  0.0101 -0.0632  0.2613
  202W        W 2402   8.362   0.758  11.063  0.1667 -0.2057 -0.2820
  203W        W 2403  30.327   2.924  25.473  0.2512 -0.1745  0.0301
  204W        W 2404  24.096   5.112  20.761 -0.1848 -0.1917  0.0223
  205W        W 2405  11.272   0.582  10.364  0.2327 -0.0758 -0.0475
  206W        W 2406  20.582   5.911   2.240  0.0158 -0.2722  0.3355
  207W        W 2407  12.310   7.242  20.415  0.3201 -0.0405 -0.0833
  208W        W 2408  13.382   2.290  18.248  0.0005  0.2707  0.3561
  209W        W 2409  18.253   4.169   5.811 -0.0070 -0.0248  0.1326
  210W        W 2410  24.263   3.204   1.504  0.2363  0.1031 -0.2380
  211W        W 2411   8.865   3.953  17.063  0.0091  0.0932 -0.3448
  212W        W 2412  29.988   3.214   3.422  0.1147  0.1386  0.2227
  213W        W 2413  14.013   7.007  19.894  0.1633 -0.0626  0.1242
  214W        W 2414  18.514   3.453  19.030  0.1634  0.2460  0.0572
  215W        W 2415  19.411   6.431   6.944  0.0146  0.3067  0.3124
  216W        W 2416  20.983   6.038  15.918 -0.2842 -0.0841  0.0313
  217W        W 2417  17.672   4.515  17.047  0.0795  0.0959  0.1273
  218W        W 2418  31.283   4.523   2.003 -0.2769 -0.1112 -0.1569
  219W        W 2419   1.049   6.222  23.850  0.0458 -0.3697 -0.0227
  220W        W 2420  14.083   1.258  16.385  0.3181  0.1759 -0.0449
  221W        W 2421  20.956   3.326  23.724 -0.0390 -0.0608  0.0384
  222W        W 2422  21.039   6.578  24.905  0.1496 -0.0352 -0.2215
  223W        W 2423   0.786   2.409  19.062 -0.1672  0.0250 -0.2786
  224W        W 2424  19.349   0.693   8.241 -0.0645  0.2576 -0.3175
  225W        W 2425  29.660   5.427   8.858 -0.0707 -0.1911  0.1574
  226W        W 2426  11.934   0.737  23.735  0.3108 -0.1193  0.3124
  227W        W 2427  26.317   6.676   5.990 -0.0666 -0.2052  0.1104
  228W        W 2428  21.370   7.080  21.551 -0.1133 -0.1843 -0.1078
  229W        W 2429  20.943   1.764   6.115 -0.1632  0.0066  0.3198
  230W        W 2430  12.281   0.165  20.289  0.0218  0.1168 -0.1550
  231W        W 2431  11.830   2.599  16.426 -0.1748 -0.1767  0.1718
  232W        W 2432  20.909   4.773  17.224  0.3183 -0.0511 -0.1712
  233W        W 2433  13.752   5.887   6.065  0.1898  0.1191  0.0416
  234W        W 2434  23.914   4.165   6.599  0.1235 -0.0139  0.1606
  235W        W 2435  24.561   6.132  10.724  0.0665 -0.0789 -0.4800
  236W        W 2436  23.140   7.630   3.502  0.1647  0.5305  0.3814
  237W        W 2437   1.870   0.567   8.824  0.2796  0.1909  0.2725
  238W        W 2438   4.853   5.244  19.486  0.3839 -0.0726  0.1310
  239W        W 2439  24.462   1.816   7.779 -0.0723 -0.1560  0.2845
  240W        W 2440  26.886   7.824  19.374  0.0848  0.1539 -0.1930
  241W        W 2441  10.967   2.137   3.689  0.0591 -0.2868 -0.2628
  242W        W 2442   2.543   3.350   6.764  0.2979 -0.1353  0.1264
  243W        W 2443  17.713   7.352  19.827  0.2757 -0.0672  0.3711
  244W        W 2444  12.135   2.357  23.066  0.0166  0.0258 -0.0509
  245W        W 2445  16.233   2.382  17.996  0.2116  0.1322 -0.2243
  246W        W 2446  17.720   7.397   9.694  0.0035  0.0258  0.1518
  247W        W 2447   9.885   4.247  18.597  0.1946  0.0082 -0.3437
  248W        W 2448   3.470   0.728   8.768  0.3864 -0.2851  0.1268
  249W        W 2449  10.635   6.917  25.104 -0.2582 -0.0048  0.0123
  250W        W 2450   2.734   7.490   5.371 -0.1447  0.1951  0.0379
  251W        W 2451   0.285   6.789  23.581  0.2406  0.0881 -0.0962
  252W        W 2452  26.084   1.636  25.064 -0.0298  0.2767  0.0238
  253W        W 2453  21.720   6.870  18.594  0.1191  0.1331  0.1032
  254W        W 2454  20.893   4.773  21.487 -0.0573  0.2391  0.0518
  255W        W 2455  22.950   6.462  23.447  0.0634  0.0197  0.0727
  256W        W 2456   3.827   2.004  17.270  0.0813 -0.0601 -0.1961
  257W        W 2457  23.569   6.108  17.739 -0.2313  0.0286  0.0378
  258W        W 2458  12.066   1.960  18.759  0.1739 -0.1642  0.0959
  259W        W 2459  23.587   7.140  24.581  0.2853 -0.1403  0.0394
  260W        W 2460  22.264   6.139  18.308 -0.1631 -0.0226 -0.1538
  261W        W 2461  10.125   4.420   8.056 -0.2712  0.0660 -0.0861
  262W        W 2462  24.374   5.405   6.603  0.0626 -0.2026 -0.3128
  263W        W 2463  25.307   0.609  22.134  0.0605  0.1710 -0.0963
  264W        W 2464   3.705   0.223   3.429  0.2047  0.0335 -0.0736
  265W        W 2465  14.890   7.251  20.434  0.0867  0.0529  0.1205
  266W        W 2466  27.839   1.111  25.242  0.0028  0.0686  0.0110
  267W        W 2467   0.168   7.018   5.709 -0.0444 -0.1239  0.0761
  268W        W 2468  28.859   2.662   3.495  0.0642  0.0661 -0.3066
  269W        W 2469  27.995   3.972  20.046 -0.1417 -0.0466 -0.4627
  270W        W 2470  14.971   4.949  20.671 -0.0243  0.0869  0.1012
  271W        W 2471  25.746   5.260  21.599 -0.2175  0.1711 -0.3791
  272W        W 2472   7.582   1.355  21.352  0.2041 -0.0727 -0.0726
  273W        W 2473  28.298   0.110  17.473  0.1502  0.2567  0.2303
  274W        W 2474  15.703   3.618   7.293  0.1876  0.1677 -0.0360
  275W        W 2475  31.043   7.697   8.336 -0.3233  0.2132  0.0365
  276W        W 2476  21.532   3.274  22.569  0.0161  0.0049  0.0474
  277W        W 2477   8.455   2.169   7.488 -0.0657  0.0690  0.4984
  278W        W 2478  27.649   1.335  17.864  0.1317 -0.1948 -0.0132
  279W        W 2479   7.414   4.796  10.039  0.0262  0.0893  0.2317
  280W        W 2480   7.947   3.707   0.262 -0.2075  0.0514 -0.0975
  281W        W 2481   4.414   6.513   7.177  0.0698 -0.2818  0.0944
  282W        W 2482   8.466   4.756  21.586  0.0687  0.0366 -0.1952
  283W        W 2483  17.900   5.390   8.720 -0.0883 -0.0291 -0.1024
  284W        W 2484  28.615   1.636  23.422 -0.1838  0.1848  0.0036
  285W        W 2485   8.756   6.003  18.203  0.2533  0.0631  0.0418
  286W        W 2486  25.556   6.077   7.749  0.2166  0.0106  0.2856
  287W        W 2487   6.634   5.510   6.939  0.2897 -0.2263 -0.1956
  288W        W 2488  27.597   1.495   4.141 -0.1376 -0.0661  0.0365
  289W        W 2489   9.507   6.284   2.903 -0.3427  0.0179 -0.4283
  290W        W 2490  14.081   1.007  21.903  0.1817  0.1077 -0.1661
  291W        W 2491  13.211   1.392  21.639  0.4024 -0.0694 -0.0567
  292W        W 2492  16.835   7.425   8.196 -0.1929 -0.1931  0.2033
  293W        W 2493  18.007   2.264   2.450 -0.1506  0.3488  0.0972
  294W        W 2494  17.427   4.078   1.656 -0.2660 -0.1111  0.2490
  295W        W 2495   0.686   7.700  20.117 -0.1235 -0.2062 -0.0501
  296W        W 2496   3.679   4.486   3.400 -0.1685 -0.1369 -0.1663
  297W        W 2497  16.982   4.857   2.013  0.0957 -0.1813  0.3736
  298W        W 2498   5.873   1.883   8.720  0.4519  0.1732  0.1978
  299W        W 2499  24.348   1.405   6.095 -0.1595 -0.1768 -0.0766
  300W        W 2500   4.949   2.710  24.884  0.1043 -0.1572 -0.0226
  301W        W 2501  29.336   5.953  25.165 -0.1159 -0.1908  0.2580
  302W        W 2502  10.723   2.222  10.990 -0.0339 -0.0268  0.0196
  303W        W 2503  10.687   2.580  20.173 -0.1328  0.0232  0.1347
  304W        W 2504  11.604   2.084   9.372  0.0790 -0.1389  0.1995
  305W        W 2505  27.116   6.023  26.035 -0.0778  0.3947 -0.1921
  306W        W 2506   7.691   3.300  17.666 -0.0620 -0.3467  0.1675
  307W        W 2507  21.988   1.008  17.037 -0.0399  0.1427  0.1609
  308W        W 2508  27.997   3.401  10.243 -0.1056 -0.0346  0.2349
  309W        W 2509  14.695   7.561  16.984 -0.1479 -0.0105  0.0963
  310W        W 2510  20.749   4.976   2.926  0.2243 -0.1204  0.1387
  311W        W 2511  21.850   3.070   5.983  0.0314  0.0015  0.2487
  312W        W 2512  24.724   7.427   0.665 -0.0121  0.0227  0.0030
  313W        W 2513  29.549   5.593   3.400 -0.0122 -0.1486 -0.2376
  314W        W 2514  14.712   2.369   3.227 -0.4396 -0.1865  0.1356
  315W        W 2515  15.664   6.467  25.453 -0.2257  0.1505  0.0797
  316W        W 2516   9.492   1.314  19.705  0.0259  0.2253 -0.0109
  317W        W 2517  28.245   5.440  21.959  0.1512  0.1257 -0.0340
  318W        W 2518   3.505   4.109   8.185 -0.0158 -0.1900 -0.1402
  319W        W 2519  23.691   0.645  24.307  0.0564 -0.1921  0.3299
  320W        W 2520   2.037   6.041  15.792  0.0447  0.1662  0.2323
  321W        W 2521  10.340   5.439  23.482  0.1672 -0.2665 -0.1888
  322W        W 2522  22.476   4.479   6.343 -0.1206  0.1684  0.2635
  323W        W 2523   0.040   1.185  16.801  0.2593 -0.1041  0.1031
  324W        W 2524   3.818   6.752  17.039  0.1237  0.1380 -0.1459
  325W        W 2525  17.863   3.494  22.793  0.3325  0.1584 -0.1109
  326W        W 2526   1.175   6.747  11.592  0.0237  0.1282  0.0542
  327W        W 2527  21.633   5.567   6.838  0.0962 -0.2425  0.2483
  328W        W 2528  14.718   4.961   9.124 -0.1414  0.1897 -0.0722
  329W        W 2529  18.046   1.059   2.642  0.1654  0.1412  0.2857
  330W        W 2530   0.321   3.497   6.240  0.1923  0.1431 -0.3094
  331W        W 2531  26.477   5.186  22.563 -0.4371  0.0400 -0.0183
  332W        W 2532  26.501   4.681   7.541  0.0640  0.4583 -0.0712
  333W        W 2533  25.919   2.297   6.578 -0.2943  0.0349 -0.2194
  334W        W 2534  29.634   7.018  25.143  0.1079 -0.1680  0.0035
  335W        W 2535   7.048   5.342  23.572  0.1033  0.1789 -0.0304
  336W        W 2536  19.134   4.380  19.559 -0.2448  0.1149 -0.1157
  337W        W 2537  21.035   0.088   3.627 -0.2825 -0.0191 -0.1611
  338W        W 2538  15.395   0.752  10.221  0.0118 -0.0849 -0.0187
  339W        W 2539   8.552   2.541   3.566  0.0015 -0.0474 -0.1272
  340W        W 2540  15.387   6.693  18.868  0.3292 -0.1429 -0.1258
  341W        W 2541  22.848   3.162  21.150  0.2663  0.1721  0.2186
  342W        W 2542  20.086   3.211   0.960  0.1217  0.0961 -0.0982
  343W        W 2543   8.404   1.717  19.013  0.1418 -0.0588  0.0669
  344W        W 2544  15.066   2.246   5.912 -0.2376  0.2514 -0.0820
  345W        W 2545  15.284   0.136  18.656  0.1411  0.1204  0.4811
  346W        W 2546   4.779   2.966  21.037  0.1303 -0.0190  0.0965
  347W        W 2547  18.521   6.001  20.236  0.1155  0.0197 -0.0081
  348W        W 2548   4.071   0.654   5.643 -0.0913  0.3255 -0.0758
  349W        W 2549   0.019   1.320   2.692 -0.2076 -0.2486 -0.1283
  350W        W 2550  18.035   0.752  14.366 -0.2885 -0.0433 -0.0091
  351W        W 2551  30.234   0.696  22.028 -0.0130 -0.0311  0.0228
  352W        W 2552  22.114   5.740  21.174 -0.1389  0.0563 -0.0412
  353W        W 2553  12.868   4.698   3.810 -0.1771  0.1448 -0.0611
  354W        W 2554   8.908   3.161  20.060  0.2226  0.2354 -0.1240
  355W        W 2555  28.451   5.881  19.405  0.0297  0.0251 -0.1450
  356W        W 2556  23.354   0.540   1.536  0.1722  0.1737 -0.1384
  357W        W 2557  23.551   6.705   2.314 -0.0559 -0.2787  0.2273
  358W        W 2558   4.042   0.055  18.822  0.0122 -0.0437 -0.0775
  359W        W 2559  12.652   1.293  22.296 -0.1700 -0.2006  0.1010
  360W        W 2560  15.801   6.705   9.687 -0.1501 -0.0007 -0.0045
  361W        W 2561  14.569   0.376   2.972 -0.2614 -0.0174  0.3174
  362W        W 2562  21.649   0.226  16.668 -0.1511  0.1580  0.0580
  363W        W 2563  25.786   4.465   1.433  0.3116  0.1645  0.0202
  364W        W 2564  24.098   2.028   1.040  0.3381 -0.0079  0.0933
  365W        W 2565  15.776   0.187  22.098 -0.1610  0.1145 -0.0088
  366W        W 2566  30.339   7.208  25.881  0.0159  0.0114  0.0064
  367W        W 2567   9.736   1.940  17.243 -0.0674  0.3238 -0.0069
  368W        W 2568   2.641   5.133  20.139  0.0179 -0.2663 -0.1950
  369W        W 2569   2.832   5.440  16.642 -0.2417  0.0526  0.2128
  370W        W 2570   1.092   2.808   3.704  0.2021  0.3018 -0.1004
  371W        W 2571  26.255   4.910   8.171  0.0094 -0.1188  0.1614
  372W        W 2572   5.257   3.899  24.922  0.0478 -0.1468  0.2241
  373W        W 2573   1.761   2.182   1.459  0.0040 -0.0609 -0.1303
  374W        W 2574  20.173   3.241   8.568  0.1040 -0.1905 -0.3302
  375W        W 2575   5.375   7.222  21.916  0.1261 -0.0109 -0.0497
  376W        W 2576   9.686   7.107   6.159  0.1170 -0.0926 -0.0693
  377W        W 2577  15.089   1.472   0.601  0.0776 -0.1497  0.0536
  378W        W 2578  16.332   3.062  21.075  0.2148  0.0372 -0.0173
  379W        W 2579   3.129   7.742  26.023 -0.3589 -0.1730 -0.2152
  380W        W 2580  28.162   2.175   0.234 -0.2303 -0.0211 -0.2185
  381W        W 2581   7.439   6.243  16.063 -0.3264 -0.1265  0.2319
  382W        W 2582  15.162   6.560  25.526  0.0303 -0.0837 -0.3158
  383W        W 2583   8.184   1.353   4.793 -0.2893  0.0361  0.1020
  384W        W 2584   1.551   3.685  11.028  0.1343 -0.2456  0.0760
  385W        W 2585   3.368   1.139  25.936 -0.2152 -0.0743 -0.1823
  386W        W 2586  25.670   2.408  21.665  0.3180  0.1465 -0.1084
  387W        W 2587  26.937   0.679   5.869 -0.1027 -0.3894  0.5045
  388W        W 2588  13.608   4.477   4.513  0.0466 -0.1765 -0.0045
  389W        W 2589  27.039   2.984  17.469 -0.0389 -0.2612  0.0573
  390W        W 2590   6.441   5.956  17.852  0.1282 -0.0827  0.2273
  391W        W 2591  31.176   5.594  20.940  0.1750  0.2572 -0.1547
  392W        W 2592  20.655   1.825  18.415  0.0312 -0.3059  0.0268
  393W        W 2593  26.128   5.493  11.166 -0.1789  0.0778 -0.2062
  394W        W 2594  24.258   2.872  19.576  0.1055 -0.5270 -0.0616
  395W        W 2595   7.725   1.709   9.548 -0.1267 -0.0680  0.0657
  396W        W 2596   5.331   0.773   8.824  0.0926 -0.0500 -0.0826
  397W        W 2597   2.729   7.638   6.287  0.0177 -0.1037  0.1678
  398W        W 2598   1.598   2.369  20.259  0.0751 -0.1162 -0.3458
  399W        W 2599   1.020   1.196   1.948 -0.2456 -0.1268 -0.0129
  400W        W 2600   5.273   4.494   0.598  0.1759  0.0028  0.0718
  401W        W 2601  17.202   6.696   8.959  0.0218 -0.1324 -0.3878
  402W        W 2602  10.818   5.028  14.950 -0.1756 -0.3967  0.0576
  403W        W 2603  16.473   3.437  10.425  0.2147 -0.3103  0.0095
  404W        W 2604  11.944   5.348  10.224 -0.0340  0.0546  0.0110
  405W        W 2605   8.774   4.239   5.763 -0.0037  0.0254  0.1586
  406W        W 2606  19.585   2.483   2.015  0.2573  0.2436 -0.2443
  407W        W 2607  14.120   4.897  25.143  0.1344 -0.2170 -0.3018
  408W        W 2608   2.045   5.737  23.111 -0.0720  0.1681 -0.2572
  409W        W 2609  27.490   0.827   5.926  0.3832 -0.1179  0.0748
  410W        W 2610  30.415   2.763   9.152 -0.1040 -0.1121 -0.2081
  411W        W 2611   3.895   7.030   2.001  0.0283  0.1439 -0.2323
  412W        W 2612  18.081   0.814  15.157 -0.0564 -0.2492  0.0866
  413W        W 2613   9.941   1.187   2.109  0.1659 -0.2129  0.0763
  414W        W 2614   3.627   5.249  23.074 -0.0225  0.2628 -0.1388
  415W        W 2615  24.465   1.767  25.166 -0.2162 -0.1481  0.2725
  416W        W 2616  28.246   1.572   9.120  0.1832 -0.1825 -0.0683
  417W        W 2617  10.394   5.160  23.886 -0.0040 -0.1090  0.0436
  418W        W 2618  30.707   7.403  19.304 -0.2435 -0.1807 -0.2014
  419W        W 2619  14.394   2.799  21.810  0.1942  0.3078 -0.0075
  420W        W 2620  13.371   2.565   2.315  0.0048  0.0531 -0.1640
  421W        W 2621  12.528   3.702   0.474 -0.0879  0.1499  0.0061
  422W        W 2622  13.344   2.098   2.201 -0.0363  0.0794 -0.3354
  423W        W 2623  28.770   6.967  17.382 -0.2947  0.1056  0.1412
  424W        W 2624   8.300   6.216  19.467 -0.1045  0.0681  0.2139
  425W        W 2625   2.279   2.987   7.776  0.3131 -0.2786  0.0940
  426W        W 2626  24.939   0.309   2.343 -0.1958  0.2480  0.2248
  427W        W 2627  18.596   3.725  18.380  0.0383  0.0024  0.1526
  428W        W 2628  16.968   6.274  10.294  0.1719  0.1829 -0.0123
  429W        W 2629   2.852   6.993   7.707  0.3343  0.2601 -0.1178
  430W        W 2630   5.687   0.816  21.518  0.2093 -0.0457  0.1305
  431W        W 2631  31.247   2.391  11.425  0.0656 -0.1300 -0.0302
  432W        W 2632  24.986   3.696   6.999 -0.1510 -0.0201 -0.0254
  433W        W 2633  26.936   3.387  22.857  0.2716 -0.0982 -0.2196
  434W        W 2634  30.312   1.376  11.543  0.3064 -0.0248  0.0602
  435W        W 2635  11.766   7.316   3.986 -0.0759  0.2846 -0.2053
  436W        W 2636  15.029   4.277   9.886  0.0082  0.1219  0.1717
  437W        W 2637   1.267   0.391  11.468  0.1261 -0.0462  0.4511
  438W        W 2638   6.953   5.173  21.071 -0.1637 -0.1334  0.1044
  439W        W 2639   5.455   0.274  19.280 -0.2900 -0.3838  0.0404
  440W        W 2640  25.359   4.528   2.744 -0.1700  0.3421 -0.0610
  441W        W 2641  30.774   7.041   1.653 -0.1025  0.0349  0.0816
  442W        W 2642  20.369   2.767  15.126  0.0290 -0.1044  0.2424
  443W        W 2643  23.601   3.135   5.524 -0.1377  0.0247 -0.1056
  444W        W 2644   2.568   1.565   9.308  0.4143  0.2025 -0.0085
  445W        W 2645  10.513   1.596   0.232 -0.3065  0.0520 -0.1695
  446W        W 2646   7.544   5.129  23.857 -0.0765 -0.3005 -0.0523
  447W        W 2647   4.929   2.980   8.402  0.1832 -0.1501  0.2014
  448W        W 2648   7.013   1.816  19.582  0.0815  0.1004  0.0168
  449W        W 2649  14.119   5.712  18.279  0.2414  0.0631 -0.1572
  450W        W 2650  27.576   0.796  18.680  0.0641  0.0721 -0.2096
  451W        W 2651  27.218   5.461   2.491 -0.0052  0.2054 -0.0377
  452W        W 2652  18.255   0.425   6.347  0.0530 -0.1283  0.2957
  453W        W 2653  29.928   1.694   9.885  0.0396  0.0313  0.0760
  454W        W 2654   2.498   5.180   7.985  0.0082 -0.0155  0.2555
  455W        W 2655  15.434   7.306  10.395 -0.1208  0.0742 -0.3334
  456W        W 2656  19.067   1.032   7.929 -0.0097 -0.0372 -0.1360
  457W        W 2657  23.109   5.072  20.966 -0.1930  0.1382  0.0201
  458W        W 2658  10.799   5.677  20.324  0.0157  0.0790 -0.0597
  459W        W 2659  19.104   7.509   1.021  0.0883  0.0257  0.1693
  460W        W 2660  14.661   6.371  24.550  0.2592  0.0163 -0.1392
  461W        W 2661   3.185   4.060   7.029 -0.2896 -0.0047 -0.2008
  462W        W 2662  12.301   6.585   9.742 -0.0182  0.0932 -0.1311
  463W        W 2663   5.940   7.729   9.931 -0.0618  0.2509 -0.1663
  464W        W 2664  27.997   4.903  10.194 -0.3344  0.2628  0.1353
  465W        W 2665   8.767   4.069   1.433 -0.2198  0.3526  0.0858
  466W        W 2666  18.912   5.695   9.743 -0.1071  0.2002  0.2019
  467W        W 2667  10.694   0.217   5.970  0.2444  0.1769 -0.3416
  468W        W 2668   2.323   4.376   2.164  0.2210  0.3125 -0.0945
  469W        W 2669   8.326   6.710  25.151 -0.3401 -0.2504  0.0929
  470W        W 2670   0.509   0.915  24.111 -0.3091  0.2245 -0.0832
  471W        W 2671   1.383   5.350   7.270  0.0573  0.1437  0.2557
  472W        W 2672  11.508   3.936  22.339  0.2084 -0.5016 -0.2832
  473W        W 2673   5.649   5.558  17.680  0.0005 -0.3402  0.0649
  474W        W 2674  24.026   5.283   8.393 -0.0651  0.0443 -0.0895
  475W        W 2675  26.523   7.574  25.788 -0.0031 -0.3292  0.0417
  476W        W 2676  29.402   3.162   9.058 -0.1452 -0.1819 -0.3556
  477W        W 2677  26.712   7.633  20.731  0.0454 -0.0054  0.2659
  478W        W 2678   4.003   1.094  25.928  0.1230 -0.0121 -0.1936
  479W        W 2679   8.558   1.129   0.294 -0.0806 -0.1865 -0.0854
  480W        W 2680  18.893   0.611  20.595 -0.0622 -0.0298 -0.0437
  481W        W 2681  26.654   3.309   8.511 -0.0270 -0.3065 -0.3148
  482W        W 2682   3.587   6.798  25.667 -0.0461  0.0165  0.0045
  483W        W 2683  28.034   7.155   8.861 -0.2777  0.0287  0.4709
  484W        W 2684   6.298   2.010   5.273 -0.0897 -0.1319  0.3917
  485W        W 2685  21.589   0.269   9.359 -0.2166  0.2240 -0.0267
  486W        W 2686  17.179   7.135   9.922  0.0460  0.0983 -0.2844
  487W        W 2687   5.967   1.648  16.947  0.2523  0.1310  0.0075
  488W        W 2688  19.093   2.900   6.514 -0.0678 -0.3283  0.0160
  489W        W 2689  22.186   4.590   1.523 -0.0616 -0.0649  0.1482
  490W        W 2690   6.672   5.350  25.266  0.0875 -0.0194  0.1358
  491W        W 2691  12.102   7.634  18.677 -0.1633  0.0507  0.3858
  492W        W 2692   0.007   3.718  26.061 -0.0783  0.2497 -0.0886
  493W        W 2693  13.092   1.808  23.303 -0.0507 -0.1062 -0.0396
  494W        W 2694  22.923   7.200   0.643 -0.0910 -0.1454  0.2556
  495W        W 2695  23.540   5.699   0.879 -0.0110  0.1079  0.0511
  496W        W 2696  18.457   6.597   7.154  0.0139 -0.0406  0.0651
  497W        W 2697  11.875   2.042  10.058 -0.0636 -0.0853  0.3300
  498W        W 2698  12.566   5.650   8.084 -0.3238  0.1587  0.1116
  499W        W 2699   8.774   3.047   7.286 -0.1507 -0.2629  0.0869
  500W        W 2700  26.572   5.786  16.266  0.0698  0.2469 -0.2438
  501W        W 2701  19.858   7.065   7.874  0.0814  0.0321  0.1677
  502W        W 2702  28.082   0.941   1.033  0.0561  0.0383  0.0720
  503W        W 2703  29.375   6.237  17.553 -0.0375 -0.0551 -0.3689
  504W        W 2704   7.196   0.995  22.029  0.0932  0.1188 -0.2485
  505W        W 2705  31.184   2.800  18.782  0.2367  0.0237  0.1778
  506W        W 2706   2.268   7.327  12.321  0.1320  0.2795  0.0172
  507W        W 2707  24.577   0.544  21.841 -0.0148  0.1246  0.1735
  508W        W 2708  11.526   6.160  19.195 -0.1952 -0.1133 -0.1099
  509W        W 2709   6.104   3.894   6.657 -0.0141  0.0538 -0.0941
  510W        W 2710  27.428   4.856  15.764  0.1320  0.2776  0.2324
  511W        W 2711   2.517   0.390  25.605  0.1532 -0.3321 -0.1813
  512W        W 2712  18.964   2.180  19.427 -0.0439 -0.1677  0.2000
  513W        W 2713  28.918   3.643   1.019  0.0629 -0.1651 -0.1480
  514W        W 2714   6.774   0.555   3.177 -0.0361  0.2035  0.1623
  515W        W 2715  29.635   4.193  17.778  0.1279 -0.1301  0.0171
  516W        W 2716   3.665   0.597  18.211  0.0551  0.0830 -0.1136
  517W        W 2717  28.654   2.999   8.666  0.0516  0.0848 -0.2503
  518W        W 2718  27.494   5.855   1.360  0.0353 -0.0681  0.0336
  519W        W 2719  10.977   2.928  20.444 -0.0910 -0.1421 -0.1697
  520W        W 2720  12.725   0.067  24.303 -0.3806  0.2621 -0.1097
  521W        W 2721   7.986   1.233   5.346  0.0836 -0.0251  0.1659
  522W        W 2722   6.738   7.787  21.265 -0.0685  0.1362 -0.1941
  523W        W 2723  13.202   4.781  14.871  0.0659  0.0515 -0.0095
  524W        W 2724  23.782   1.159   7.640  0.1601 -0.1916  0.0323
  525W        W 2725  28.682   7.234  22.226  0.1039 -0.1521 -0.2019
  526W        W 2726  29.163   1.944  18.575 -0.2141 -0.1812 -0.1352
  527W        W 2727  28.260   4.824   4.217  0.1303 -0.0252 -0.1646
  528W        W 2728  31.063   1.210   0.941 -0.2997  0.0556  0.1190
  529W        W 2729  12.255   5.719   5.517 -0.1377  0.1475  0.2090
  530W        W 2730  17.823   4.099   1.257  0.0716  0.2553 -0.0195
  531W        W 2731  18.749   6.931  20.372  0.0402  0.1761  0.2855
  532W        W 2732  13.110   3.743  16.848  0.1798  0.1609 -0.2973
  533W        W 2733  12.903   1.282  20.699  0.1972 -0.0738 -0.0461
  534W        W 2734  24.707   0.567   1.198 -0.0657 -0.0751  0.0476
  535W        W 2735   0.631   0.513  25.657  0.0021 -0.0359 -0.4149
  536W        W 2736   3.856   4.542   6.393  0.0149  0.1791  0.0889
  537W        W 2737  20.152   4.907  21.808 -0.0210 -0.1724  0.0568
  538W        W 2738  19.835   6.170   0.733  0.2225 -0.0659  0.3240
  539W        W 2739   0.444   5.072   1.175  0.0406  0.3783  0.0165
  540W        W 2740  24.506   3.359  17.217  0.1316 -0.1069 -0.2367
  541W        W 2741   5.600   5.339  22.716 -0.5512 -0.0072  0.0982
  542W        W 2742  27.561   5.577   5.140  0.0174  0.2244  0.1984
  543W        W 2743   3.838   5.571  11.312  0.4891  0.2864  0.0424
  544W        W 2744  24.662   4.435  21.562 -0.0892  0.0430  0.0457
  545W        W 2745  10.201   4.226  22.400  0.0695 -0.1196 -0.1651
  546W        W 2746  21.543   2.710  18.169  0.2752 -0.1626  0.0038
  547W        W 2747  13.499   0.835   9.468  0.2180 -0.0298  0.2448
  548W        W 2748  17.858   5.914  22.216 -0.0715 -0.1390 -0.0236
  549W        W 2749   7.857   3.411   5.842 -0.1198 -0.0825 -0.0188
  550W        W 2750  20.106   2.802   6.700  0.1466  0.0967 -0.3416
  551W        W 2751  19.606   4.567  24.421 -0.1588 -0.3030 -0.0171
  552W        W 2752  25.565   6.779  16.892 -0.1850  0.0411 -0.1005
  553W        W 2753  23.562   4.727   0.493  0.1453 -0.1442 -0.1663
  554W        W 2754  30.330   7.479  21.108  0.0275  0.1568 -0.0705
  555W        W 2755  24.524   2.517   7.295  0.1330  0.1921  0.0001
  556W        W 2756  21.324   2.756   0.694  0.0972  0.1887  0.0070
  557W        W 2757   7.580   3.357   4.115  0.0762  0.0291 -0.3460
  558W        W 2758  11.381   5.413   7.781  0.1374 -0.4099  0.1401
  559W        W 2759  10.052   2.141   2.027 -0.0139 -0.2013  0.1426
  560W        W 2760   7.555   3.313  16.068  0.1145  0.0320 -0.1962
  561W        W 2761  14.055   6.322   8.381  0.1408  0.0538  0.0820
  562W        W 2762  14.677   5.367   3.268 -0.0457  0.0270  0.0782
  563W        W 2763   1.881   5.318   7.383  0.0376  0.2535  0.0009
  564W        W 2764  29.827   2.233   5.329  0.0093 -0.1338  0.0399
  565W        W 2765   1.187   5.364  19.788  0.0245 -0.0232 -0.0021
  566W        W 2766  21.312   7.309   3.204 -0.3237 -0.1615 -0.0478
  567W        W 2767  12.497   2.675  24.821  0.0753 -0.0898  0.2385
  568W        W 2768   5.550   3.665  25.658 -0.1663  0.2598  0.1175
  569W        W 2769  12.492   1.657  17.233 -0.1583  0.0882  0.0833
  570W        W 2770  10.950   4.993  21.665 -0.1130  0.5424  0.1725
  571W        W 2771   5.736   7.267   9.725  0.1250  0.0717  0.0543
  572W        W 2772  18.221   4.590   6.170  0.2981 -0.1381 -0.0971
  573W        W 2773  20.895   7.575   9.529 -0.2199 -0.1202 -0.0243
  574W        W 2774  17.943   6.278  19.729 -0.2775 -0.0818  0.0207
  575W        W 2775  26.135   5.380  23.345  0.0802 -0.0982 -0.3445
  576W        W 2776   2.479   2.773   5.264  0.2357 -0.0880  0.2693
  577W        W 2777  24.118   1.636   9.461 -0.3193 -0.1107 -0.1602
  578W        W 2778   1.773   2.986  18.905 -0.3215 -0.1704  0.1109
  579W        W 2779  28.430   4.724   5.500 -0.1691 -0.1886  0.0654
  580W        W 2780   3.048   5.451   0.576  0.0203  0.0532 -0.0741
  581W        W 2781  23.115   3.121  18.658 -0.0714 -0.1515  0.0645
  582W        W 2782  24.445   0.293   8.650 -0.1203  0.1136 -0.0558
  583W        W 2783  10.218   6.370  24.750 -0.4280 -0.4609  0.1517
  584W        W 2784   7.077   6.580  18.963 -0.0220  0.0703  0.2012
  585W        W 2785  21.703   3.439  18.702 -0.1909  0.1418  0.1174
  586W        W 2786  13.393   3.569  10.175  0.0009 -0.1313  0.0135
  587W        W 2787   4.179   2.199   7.295 -0.1152 -0.0336 -0.1813
  588W        W 2788   3.404   5.429   9.604  0.1130  0.2148  0.0097
  589W        W 2789   1.395   4.236   3.138 -0.2161 -0.1335  0.1112
  590W        W 2790  16.223   3.863   1.051 -0.1832  0.0061  0.0960
  591W        W 2791  23.207   4.580  21.024  0.0223 -0.1008 -0.2126
  592W        W 2792  17.911   7.062   4.311 -0.2639  0.0349  0.0527
  593W        W 2793  29.496   4.910   6.387  0.0177  0.0476  0.1855
  594W        W 2794   6.482   2.727  19.216 -0.3012  0.1683  0.2246
  595W        W 2795   3.515   4.201  21.650  0.1188  0.2485  0.0016
  596W        W 2796  29.455   2.825  16.321  0.0489 -0.0248 -0.0617
  597W        W 2797  19.769   0.482  22.627 -0.1581 -0.1148  0.0422
  598W        W 2798   7.881   0.905  15.980  0.1457  0.4819  0.1423
  599W        W 2799   8.033   7.477   8.217 -0.0607 -0.0760 -0.0472
  600W        W 2800  11.502   2.713   3.408 -0.1147  0.0184  0.4186
  601W        W 2801  16.570   1.950   4.132 -0.0186  0.2555 -0.0531
  602W        W 2802  15.477   2.931  16.666  0.1167 -0.4338  0.2121
  603W        W 2803   0.531   5.752  21.967  0.0925 -0.2834  0.1659
  604W        W 2804   3.076   0.696  15.651 -0.2492  0.0634 -0.0019
  605W        W 2805   2.905   5.267  11.698 -0.0170 -0.0709 -0.3712
  606W        W 2806  12.591   3.698  10.530  0.0420 -0.0551  0.2620
  607W        W 2807  18.816   0.446   1.516 -0.2446  0.0400  0.2377
  608W        W 2808  26.118   7.250   7.772 -0.2828  0.1144  0.0152
  609W        W 2809  23.213   6.800   6.723  0.2098  0.1816  0.2287
  610W        W 2810   2.271   5.587  17.919 -0.1020  0.2781 -0.1810
  611W        W 2811  18.028   1.504   3.875  0.3486 -0.0281 -0.2169
  612W        W 2812  24.565   6.842  16.652  0.0044 -0.4893  0.0844
  613W        W 2813  29.460   1.740  16.006 -0.2023 -0.0964  0.1950
  614W        W 2814   5.455   0.980   6.302  0.2410 -0.1695 -0.0163
  615W        W 2815  31.143   5.850  11.439 -0.0630 -0.2816 -0.0851
  616W        W 2816   4.206   4.987  17.568 -0.0765  0.0025  0.0215
  617W        W 2817  13.356   7.496   2.312 -0.0953  0.0084 -0.2470
  618W        W 2818  23.774   4.324  23.276  0.1562  0.0765  0.3049
  619W        W 2819  26.384   6.458   1.292 -0.0395  0.0975  0.1236
  620W        W 2820   2.914   4.803  23.300  0.0820 -0.1921 -0.0291
  621W        W 2821  27.775   2.340  15.188  0.0324  0.0784  0.3968
  622W        W 2822  22.838   7.624   4.543 -0.1680  0.2045  0.0494
  623W        W 2823  29.510   7.742  17.974  0.1206 -0.0291  0.1857
  624W        W 2824   7.338   3.507   6.697  0.0769 -0.1459 -0.2332
  625W        W 2825   9.257   6.492   3.386 -0.0762 -0.1138 -0.3276
  626W        W 2826  18.725   0.282   0.390 -0.1444 -0.2254 -0.1551
  627W        W 2827  23.553   6.017   1.795  0.0458  0.0861 -0.0950
  628W        W 2828  13.889   1.899  24.038  0.2208  0.0183  0.0463
  629W        W 2829  25.819   6.435   0.693  0.1132  0.1568  0.1155
  630W        W 2830  23.589   1.383   1.260  0.2114 -0.3338 -0.2376
  631W        W 2831  12.665   6.301  24.963 -0.1633  0.4532 -0.0237
  632W        W 2832  23.079   0.903  10.077 -0.2250  0.2945 -0.1856
  633W        W 2833  22.504   1.109  14.880 -0.0956  0.0420  0.0846
  634W        W 2834  19.665   0.129  23.842  0.0751  0.2074 -0.0303
  635W        W 2835  22.139   6.180  20.976 -0.0666  0.0040  0.0617
  636W        W 2836  25.584   3.267  18.827  0.2925 -0.1140  0.2557
  637W        W 2837  14.024   6.473  21.919  0.0487 -0.0812 -0.0143
  638W        W 2838  28.019   7.818   5.078  0.2345 -0.0474 -0.2187
  639W        W 2839  14.898   3.051   9.914  0.1617  0.0824  0.3850
  640W        W 2840  10.972   0.375  24.483  0.1233 -0.0453 -0.0104
  641W        W 2841  19.219   7.662  24.627 -0.0339 -0.4052 -0.2198
  642W        W 2842  30.218   0.711  20.964  0.0319 -0.3370  0.0984
  643W        W 2843   6.742   1.971   2.991 -0.1649 -0.2021  0.0468
  644W        W 2844   1.219   3.086  16.005  0.0905  0.0527 -0.2141
  645W        W 2845  15.086   4.512   0.385  0.1325  0.0121 -0.1999
  646W        W 2846   5.056   4.308  10.579 -0.2738 -0.1885  0.1406
  647W        W 2847   0.060   4.951  24.066  0.0781 -0.0194  0.0217
  648W        W 2848  14.903   2.303   1.722 -0.2409 -0.3531  0.1048
  649W        W 2849  29.461   7.369  24.733  0.1914  0.1790 -0.0490
  650W        W 2850  18.577   2.276  15.093 -0.0054  0.1547 -0.0127
  651W        W 2851   2.803   2.957  18.425  0.0055  0.1393  0.2591
  652W        W 2852   3.643   1.312  18.018 -0.1652  0.1854  0.1667
  653W        W 2853   8.452   3.761  17.298 -0.1815  0.5296  0.0492
  654W        W 2854  26.914   4.463   3.451  0.0198  0.0095  0.0204
  655W        W 2855   7.439   0.129   8.964  0.0808  0.1041  0.0318
  656W        W 2856  12.706   1.476  21.194 -0.1840 -0.2435 -0.0522
  657W        W 2857  16.131   1.560  22.653 -0.0565 -0.0928 -0.1303
  658W        W 2858  10.598   6.772   8.554  0.0028  0.0579 -0.0095
  659W        W 2859   4.994   2.022  25.398 -0.3760 -0.0176  0.0217
  660W        W 2860  25.776   1.151   1.105  0.1639 -0.2678 -0.0915
  661W        W 2861   0.942   4.853  18.985  0.1615 -0.0694  0.2695
  662W        W 2862  11.973   0.046   7.091 -0.3961 -0.1813  0.0560
  663W        W 2863   9.621   5.834   1.546  0.0715  0.3517  0.3629
  664W        W 2864  14.444   5.663  16.961 -0.1236  0.0295 -0.0639
  665W        W 2865   0.301   3.987  16.288 -0.0707  0.0021  0.0545
  666W        W 2866   3.934   2.602  19.861  0.1006 -0.3098  0.1039
  667W        W 2867  15.987   4.485  17.760 -0.0538  0.1980 -0.2548
  668W        W 2868   5.406   6.379   3.519  0.2622 -0.2051  0.4584
  669W        W 2869  20.236   5.747   0.571  0.0899  0.0498 -0.0664
  670W        W 2870  10.439   5.405  21.634  0.0827 -0.0828 -0.0112
  671W        W 2871  14.982   6.328   9.901  0.1308  0.1117  0.1771
  672W        W 2872  12.235   0.141  24.774  0.1418 -0.1517  0.1625
  673W        W 2873   2.123   6.858   0.353 -0.0113  0.3750  0.3113
  674W        W 2874   7.526   3.519  24.917  0.2848 -0.2401  0.1993
  675W        W 2875   7.425   4.472  16.251  0.3211 -0.1567 -0.3150
  676W        W 2876  26.727   4.182   9.326  0.3856  0.1654 -0.1376
  677W        W 2877   7.594   5.848  20.706 -0.1267 -0.4211 -0.1824
  678W        W 2878   5.886   4.709   7.713  0.0381  0.1074 -0.0417
  679W        W 2879   4.360   2.584   7.588 -0.3678 -0.1043  0.1010
  680W        W 2880  10.795   2.241   2.888 -0.2464  0.1397 -0.2977
  681W        W 2881  10.552   7.248   7.286  0.0399 -0.0729 -0.3269
  682W        W 2882  18.178   2.618   5.439  0.0269  0.2532 -0.0333
  683W        W 2883  10.278   5.651  24.556  0.2022 -0.0013 -0.0849
  684W        W 2884   1.762   1.888   2.782 -0.1040 -0.1573  0.0092
  685W        W 2885   2.446   6.526   8.325  0.1219  0.0514 -0.4009
  686W        W 2886   8.023   3.546  17.313 -0.1724 -0.0150  0.1118
  687W        W 2887  30.366   1.508  21.968  0.2746 -0.0706 -0.1925
  688W        W 2888  21.743   5.801  19.020 -0.1814  0.3657 -0.1682
  689W        W 2889   5.414   0.540  11.998  0.5244 -0.2143  0.3219
  690W        W 2890   6.801   4.801  24.462  0.1038 -0.1699  0.0211
  691W        W 2891   2.007   2.259  23.114 -0.0006  0.0622 -0.0078
  692W        W 2892  21.819   5.142  18.797  0.1292  0.1534 -0.0269
  693W        W 2893   1.628   7.521  20.055  0.0520  0.0780 -0.1727
  694W        W 2894   0.944   5.388  18.996 -0.1292 -0.1426  0.1436
  695W        W 2895  13.376   6.849  14.870  0.0142  0.0273 -0.1508
  696W        W 2896  16.133   6.065  10.495  0.0818 -0.1372  0.0778
  697W        W 2897  15.710   7.504  22.778 -0.1321 -0.3373 -0.2495
  698W        W 2898   3.316   1.383  17.403  0.0624  0.0535  0.0967
  699W        W 2899  17.833   5.501  21.057 -0.1953  0.0235 -0.2764
  700W        W 2900  22.425   0.005  25.695 -0.0750  0.0159  0.0095
  701W        W 2901   8.486   5.241   0.373 -0.1378 -0.0652 -0.1265
  702W        W 2902   4.733   3.495  15.532  0.2218 -0.4735 -0.2790
  703W        W 2903  22.344   4.621  15.781  0.3568  0.0690 -0.0549
  704W        W 2904  16.887   1.060  15.572 -0.1989 -0.1710 -0.0904
  705W        W 2905  12.872   2.021  18.106  0.1663 -0.2217 -0.1353
  706W        W 2906   8.153   3.931  21.907  0.0907  0.3218 -0.1006
  707W        W 2907   3.546   2.297  21.882 -0.0154  0.0060  0.0900
  708W        W 2908   6.689   6.264   2.145 -0.1585 -0.2825 -0.0350
  709W        W 2909  30.184   0.924  19.063 -0.0912  0.2919  0.2430
  710W        W 2910   9.153   1.689  24.355  0.3097  0.0560 -0.0090
  711W        W 2911   2.113   1.861  10.969  0.3129 -0.0422  0.1320
  712W        W 2912  29.803   2.326  22.736 -0.0035 -0.1375  0.0011
  713W        W 2913  22.988   6.429  24.419  0.2275 -0.0858  0.0402
  714W        W 2914  24.610   1.918  10.024 -0.0075  0.0567 -0.0143
  715W        W 2915  14.173   3.732   0.445 -0.0519 -0.3851  0.0543
  716W        W 2916  20.626   7.440   4.524  0.0184  0.0556 -0.2079
  717W        W 2917  15.191   6.127   5.660 -0.1053  0.0995  0.3083
  718W        W 2918  14.261   3.349  19.498 -0.0430 -0.1072 -0.1158
  719W        W 2919   9.066   6.696  17.048 -0.0934 -0.0164 -0.0144
  720W        W 2920  27.556   4.717  26.026 -0.1852  0.0028 -0.1730
  721W        W 2921  28.159   7.510   3.860 -0.1581  0.0683  0.0088
  722W        W 2922  20.502   7.287  22.868 -0.0624 -0.1032 -0.1863
  723W        W 2923   1.851   4.322   2.867 -0.0119  0.1307 -0.1642
  724W        W 2924  22.918   0.512  24.601  0.1989 -0.0261 -0.0604
  725W        W 2925   7.573   1.141  23.489  0.1947 -0.0169  0.0016
  726W        W 2926  21.803   6.218  17.010 -0.1234 -0.0795  0.1718
  727W        W 2927  17.158   1.096  21.561 -0.1824  0.0832  0.1320
  728W        W 2928   2.562   1.063  23.034 -0.1396 -0.0275  0.2330
  729W        W 2929   5.406   1.668   1.836 -0.0321 -0.1572 -0.2596
  730W        W 2930   9.629   6.090  16.036  0.1047  0.0014 -0.4800
  731W        W 2931  16.780   1.808   1.748  0.0365 -0.2822 -0.3217
  732W        W 2932  22.702   1.816  10.170 -0.1143 -0.2678  0.1349
  733W        W 2933  28.628   0.340   1.572 -0.1028  0.1996 -0.4148
  734W        W 2934  19.471   1.012  26.118  0.1830 -0.0528  0.1984
  735W        W 2935  11.454   4.989  24.733 -0.1214  0.0827 -0.1411
  736W        W 2936  25.127   6.449  22.480 -0.1571  0.0798 -0.2275
  737W        W 2937  11.426   5.806  22.586 -0.2803  0.0543  0.0355
  738W        W 2938  15.029   6.953   0.584  0.1310 -0.1138 -0.1260
  739W        W 2939   3.879   5.819  22.988  0.1158 -0.0569 -0.0403
  740W        W 2940   7.822   4.373  18.741 -0.1230  0.0075 -0.1063
  741W        W 2941  30.676   5.215   7.628  0.0383  0.3351  0.0857
  742W        W 2942   9.836   5.496  24.875  0.1374 -0.2008 -0.1317
  743W        W 2943   5.235   6.818   6.782  0.0081 -0.0152 -0.4114
  744W        W 2944  27.093   6.718  23.719 -0.0727 -0.0283  0.1721
  745W        W 2945  29.767   5.002  16.893  0.3727  0.0551 -0.2192
  746W        W 2946  24.992   4.717   9.195  0.0692  0.3701 -0.1110
  747W        W 2947   2.594   7.246  10.524 -0.1022  0.1132  0.1177
  748W        W 2948   5.834   5.191   3.306  0.1045  0.0041  0.0528
  749W        W 2949  25.976   4.196   0.465 -0.0807 -0.1166  0.2129
  750W        W 2950   9.566   1.882  25.813  0.0860 -0.0481  0.0165
  751W        W 2951  12.279   7.554   8.420 -0.1987 -0.0447 -0.2094
  752W        W 2952   1.194   1.540   0.049  0.2405 -0.0307  0.0924
  753W        W 2953  26.198   0.195  17.593  0.0973 -0.0455 -0.2164
  754W        W 2954   9.424   4.243   3.334 -0.0966  0.1104 -0.1496
  755W        W 2955  17.162   1.920  24.618 -0.0257  0.1126 -0.1864
  756W        W 2956  20.508   4.148  19.499  0.1210  0.0414  0.0541
  757W        W 2957  25.280   2.127  16.942 -0.2807 -0.0882  0.1689
  758W        W 2958  22.698   7.116   6.330 -0.0448  0.2814 -0.0803
  759W        W 2959  11.031   2.806   5.118 -0.0456 -0.1403  0.0548
  760W        W 2960  14.461   6.989   2.169 -0.1484  0.1295 -0.2040
  761W        W 2961  16.815   6.834  15.451  0.0160 -0.4968 -0.0722
  762W        W 2962  27.433   1.477  18.341 -0.1195 -0.2233  0.0745
  763W        W 2963  12.401   6.492  25.851 -0.2993  0.2763 -0.2242
  764W        W 2964  28.821   5.672   1.802 -0.1739  0.1240 -0.0629
  765W        W 2965   3.172   7.410   7.594 -0.0229  0.1290 -0.0078
  766W        W 2966  23.866   4.118   4.354  0.0583  0.3663  0.1944
  767W        W 2967  11.491   5.319  25.959  0.0169  0.1368 -0.1880
  768W        W 2968  27.206   2.563   0.367 -0.2115  0.0051  0.0071
  769W        W 2969   3.917   2.049  21.576  0.6075  0.0110  0.1940
  770W        W 2970  18.759   0.054  23.733  0.0435 -0.0760 -0.0993
  771W        W 2971  15.455   4.019  19.755 -0.1836  0.2671  0.3586
  772W        W 2972  24.949   3.760   4.901 -0.2456 -0.2126 -0.0536
  773W        W 2973  22.591   5.990  23.361  0.0560  0.1268 -0.0816
  774W        W 2974  19.494   5.349  22.908  0.2903 -0.1874  0.0174
  775W        W 2975   4.949   4.395   1.477  0.2013  0.3441 -0.0547
  776W        W 2976  19.158   5.256   3.044  0.1694 -0.2389  0.1271
  777W        W 2977  13.505   0.334  24.175  0.1556  0.2851 -0.0799
  778W        W 2978   5.624   6.425  19.190 -0.0112 -0.0263 -0.1937
  779W        W 2979  30.657   3.059  20.502  0.0274  0.2273 -0.2914
  780W        W 2980  21.161   7.375  24.079 -0.0920 -0.2142 -0.0495
  781W        W 2981   6.004   0.543   1.264 -0.2250  0.2042  0.1401
  782W        W 2982   7.520   6.424  22.052 -0.2443  0.2391  0.3093
  783W        W 2983  18.943   0.177   5.403  0.2542  0.2284  0.1999
  784W        W 2984   0.438   5.661  23.637  0.1273 -0.2094  0.1308
  785W        W 2985  22.375   7.502  14.443 -0.2095  0.0339  0.0056
  786W        W 2986  27.860   4.558  16.149 -0.0862 -0.0729 -0.1857
  787W        W 2987  10.016   2.960  10.175 -0.3058 -0.0884  0.0682
  788W        W 2988  24.310   6.979   4.840  0.0258 -0.0902 -0.2542
  789W        W 2989  15.528   2.760   2.052  0.1499 -0.2467 -0.0511
  790W        W 2990  12.889   2.404  16.404  0.4026  0.1776 -0.1253
  791W        W 2991  16.269   6.957   7.965 -0.1338  0.0387 -0.3911
  792W        W 2992  17.122   3.668  23.875 -0.0452  0.1171 -0.3101
  793W        W 2993  21.365   2.520  17.239  0.0711 -0.0582 -0.3172
  794W        W 2994  18.798   7.281   4.552 -0.0881  0.2831 -0.1694
  795W        W 2995  29.963   7.545   3.415  0.1897  0.2750 -0.0119
  796W        W 2996  27.269   0.312  23.227  0.0353  0.0437 -0.0916
  797W        W 2997  27.679   1.855  15.954  0.0739  0.0791 -0.0905
  798W        W 2998   2.732   6.120  22.010 -0.1489  0.1164  0.1575
  799W        W 2999  10.965   3.048  17.392  0.1997  0.0356 -0.1682
  800W        W 3000  20.902   3.653  18.626 -0.0387  0.1553  0.2952
  801W        W 3001   6.798   7.445  22.322 -0.0389 -0.3704  0.0371
  802W        W 3002   1.009   3.453  10.973  0.2828 -0.1342 -0.0137
  803W        W 3003  30.304   4.260   1.810  0.3524  0.0265  0.2586
  804W        W 3004  19.569   0.431  18.298  0.0446 -0.1329 -0.1859
  805W        W 3005  25.347   7.822   9.644  0.3211 -0.0438 -0.1735
  806W        W 3006   7.244   6.044  16.538  0.1436 -0.0746 -0.0098
  807W        W 3007   9.811   0.098  21.443  0.0039  0.1714 -0.1658
  808W        W 3008   4.417   5.463   3.419  0.0990  0.1061  0.1490
  809W        W 3009   5.421   1.559  19.684 -0.0691  0.0230  0.2620
  810W        W 3010  23.563   6.769  24.216 -0.1096  0.1507 -0.0734
  811W        W 3011  28.296   2.246  21.135  0.0974  0.1472 -0.2616
  812W        W 3012  23.649   3.456   3.852  0.0256  0.0647  0.3370
  813W        W 3013  11.778   1.831   4.120 -0.0720  0.2689 -0.0864
  814W        W 3014   0.703   1.715  16.566 -0.3339  0.1042  0.1185
  815W        W 3015  22.475   6.791  25.441 -0.0187  0.0204 -0.1709
  816W        W 3016  21.054   2.089  18.467 -0.0546  0.2825  0.1413
  817W        W 3017  24.278   7.397   5.713  0.0021 -0.2330  0.1769
  818W        W 3018   5.351   1.702  19.063 -0.1107  0.2257 -0.4692
  819W        W 3019  30.836   6.663   0.668  0.0111  0.0173 -0.0857
  820W        W 3020   1.141   7.432   9.159  0.0345 -0.0551  0.3835
  821W        W 3021  20.004   6.231   9.996  0.0803 -0.1125  0.2477
  822W        W 3022   4.471   0.920  22.330 -0.1741 -0.2158 -0.1125
  823W        W 3023   0.573   2.543  25.842 -0.3604  0.1327  0.1039
  824W        W 3024   6.161   5.063   2.504 -0.0132  0.1055  0.2207
  825W        W 3025  14.539   4.356  26.081 -0.0824 -0.2462  0.3300
  826W        W 3026   1.906   3.984  16.615  0.1532 -0.0029 -0.2805
  827W        W 3027  31.034   4.128   5.734 -0.0052  0.0751  0.1634
  828W        W 3028   3.113   7.157   7.098  0.1573 -0.2798 -0.3178
  829W        W 3029  21.099   1.270   6.013  0.1761  0.1088 -0.1715
  830W        W 3030  29.986   5.722   8.427 -0.0080 -0.3777 -0.2232
  831W        W 3031  23.857   6.338  20.719 -0.1718  0.1319  0.2401
  832W        W 3032  25.725   3.282  22.626 -0.0385  0.2725 -0.1453
  833W        W 3033  14.313   2.520  17.921  0.0416 -0.3367 -0.0635
  834W        W 3034  12.888   6.375  25.557 -0.0748  0.0127 -0.1347
  835W        W 3035  20.919   5.255  17.687 -0.0605 -0.2621 -0.2888
  836W        W 3036   2.600   1.747  18.011 -0.1254 -0.0660 -0.1949
  837W        W 3037   4.496   2.389   6.419 -0.1551  0.0584  0.1039
  838W        W 3038  19.557   3.445   7.877  0.0038 -0.3688  0.0974
  839W        W 3039  10.920   1.333  21.977 -0.2927  0.1543 -0.0285
  840W        W 3040  18.115   3.377  20.571 -0.0772 -0.1495 -0.3201
  841W        W 3041   1.716   4.830  20.084  0.1322 -0.1710 -0.0098
  842W        W 3042   7.429   3.488  18.423 -0.0830 -0.2132 -0.2450
  843W        W 3043   8.165   4.409  24.448  0.0072 -0.0610 -0.2350
  844W        W 3044   3.527   3.813  16.279  0.0272  0.2491  0.0751
  845W        W 3045  20.202   7.502  24.501  0.1962  0.0797 -0.2549
  846W        W 3046  19.996   6.783   8.735 -0.2215  0.1262  0.0319
  847W        W 3047  21.006   6.173   8.410 -0.1945 -0.1204  0.0474
  848W        W 3048  24.276   6.357   0.482  0.0124  0.1120  0.0322
  849W        W 3049  27.423   2.438   6.186  0.1721 -0.1662 -0.2496
  850W        W 3050  20.239   6.133  15.553  0.1059  0.0802  0.0095
  851W        W 3051  23.667   0.650   2.492 -0.3933 -0.2685  0.4286
  852W        W 3052  11.492   1.780   9.719  0.0066  0.4025 -0.1851
  853W        W 3053  28.725   1.618  10.016 -0.0908 -0.2722 -0.2484
  854W        W 3054  14.579   5.156  23.783 -0.0104  0.3219 -0.0060
  855W        W 3055  25.224   1.185   8.948 -0.1772  0.0774 -0.3312
  856W        W 3056  12.227   7.291  10.071  0.0214 -0.1115  0.1584
  857W        W 3057  13.131   5.306  18.513 -0.0974 -0.1948 -0.2138
  858W        W 3058   6.276   7.742   0.283  0.0662  0.0347 -0.0104
  859W        W 3059  29.377   4.413  15.506  0.0694  0.0274  0.1976
  860W        W 3060   0.956   1.447   5.701 -0.0857  0.4261 -0.0214
  861W        W 3061  26.784   4.506  10.881 -0.4717 -0.2219  0.2734
  862W        W 3062  19.386   0.852   0.467 -0.0359  0.1256  0.0375
  863W        W 3063  22.909   5.996  24.706  0.1357 -0.3487  0.1631
  864W        W 3064  12.250   0.628   3.986  0.1289 -0.1282  0.0350
  865W        W 3065  25.889   2.796  24.073  0.0140 -0.2045 -0.0622
  866W        W 3066  12.884   5.344  24.950 -0.4091  0.3424  0.3919
  867W        W 3067   5.776   4.576   8.475 -0.0358  0.2505 -0.3031
  868W        W 3068  16.220   2.882  22.926  0.0906 -0.2074  0.2461
  869W        W 3069  11.670   6.993   1.002  0.5172  0.2870 -0.1625
  870W        W 3070  22.110   4.331  24.537 -0.1711 -0.1847 -0.0489
  871W        W 3071  11.344   3.142  22.599 -0.2075 -0.1505 -0.1081
  872W        W 3072  28.789   1.691   0.973 -0.2007  0.0455 -0.0294
  873W        W 3073  24.952   3.896   3.937 -0.0867 -0.0852 -0.1173
  874W        W 3074  25.021   0.994  17.470 -0.1161  0.1693 -0.1844
  875W        W 3075  20.618   0.267  25.031 -0.1263 -0.0138 -0.0157
  876W        W 3076  19.865   4.563   6.878  0.0513  0.2270  0.0111
  877W        W 3077  17.677   4.785  16.518 -0.1091 -0.1617 -0.2121
  878W        W 3078  12.382   0.385   4.976 -0.2755 -0.3943 -0.2321
  879W        W 3079  12.639   1.368  16.000  0.0550 -0.0013 -0.2531
  880W        W 3080  12.501   6.979  25.842  0.0711 -0.3372  0.3515
  881W        W 3081  28.609   4.844   5.987 -0.0092 -0.2528  0.2071
  882W        W 3082   8.441   1.745   2.936  0.2951 -0.0268  0.2934
  883W        W 3083  22.299   3.931  22.357  0.3727 -0.1610 -0.1082
  884W        W 3084  27.964   6.458  21.819 -0.1875  0.0070 -0.1125
  885W        W 3085  13.082   3.894   6.189  0.3668  0.1941 -0.2381
  886W        W 3086   4.901   0.234  16.415 -0.3327 -0.0152 -0.0799
  887W        W 3087  13.354   2.959   4.946 -0.4335  0.1372  0.0181
  888W        W 3088   5.157   2.525   7.180 -0.0022  0.0009 -0.0414
  889W        W 3089  22.489   0.650   3.112  0.1725 -0.1872  0.0869
  890W        W 3090   1.854   4.182  22.106  0.2220 -0.3319  0.1897
  891W        W 3091  30.441   1.124   2.879  0.1036  0.3964  0.0121
  892W        W 3092  24.472   2.520   4.895 -0.2533  0.0185 -0.1619
  893W        W 3093   8.859   0.756  10.232 -0.0434 -0.0366 -0.0106
  894W        W 3094  24.085   5.858  15.763 -0.1792  0.3255 -0.1043
  895W        W 3095  30.844   5.718  23.228  0.1810 -0.1003 -0.3426
  896W        W 3096   2.550   3.303   3.054 -0.0733 -0.1094 -0.1201
  897W        W 3097   9.639   3.954   6.339  0.2445  0.1779 -0.0968
  898W        W 3098  15.801   4.989  24.894  0.1597 -0.1005 -0.2119
  899W        W 3099   3.483   5.997  23.840 -0.0475 -0.0473  0.0589
  900W        W 3100   5.640   1.334  19.247  0.1675 -0.2261  0.1151
  901W        W 3101  30.498   4.529   5.009  0.0432  0.0548 -0.2668
  902W        W 3102  15.619   7.565  18.932  0.3019  0.1937 -0.0347
  903W        W 3103   0.457   2.285  23.675  0.1238 -0.1843 -0.1774
  904W        W 3104  29.430   1.496   2.250  0.4116  0.0616  0.0296
  905W        W 3105  19.168   5.318   5.191 -0.1494  0.1773 -0.0601
  906W        W 3106   6.976   5.793  24.349 -0.0526 -0.1039 -0.1739
  907W        W 3107   2.261   7.442   1.588  0.1742 -0.1964 -0.0027
  908W        W 3108  16.457   7.349  22.119 -0.1058 -0.1359  0.3956
  909W        W 3109  21.247   4.080   5.877 -0.0555 -0.0278  0.2367
  910W        W 3110  18.899   6.808  23.439 -0.0021  0.0613 -0.0558
  911W        W 3111   1.275   2.812  16.941 -0.2857 -0.0617 -0.3340
  912W        W 3112   6.466   4.416  23.465 -0.0248  0.0079  0.2789
  913W        W 3113   2.510   7.800  20.143 -0.0479  0.0273 -0.0056
  914W        W 3114  17.958   5.166   8.309  0.0008 -0.1722 -0.0110
  915W        W 3115  25.361   7.573  23.971  0.2252 -0.1129  0.1119
  916W        W 3116   9.909   1.216  18.599 -0.2902  0.0693 -0.0111
  917W        W 3117  11.957   4.519  21.661 -0.1154 -0.0538  0.1068
  918W        W 3118  25.216   1.615  20.626 -0.0912  0.0545 -0.2853
  919W        W 3119  26.694   0.733  22.676  0.0343 -0.1101 -0.0016
  920W        W 3120   4.516   5.361   7.585  0.0271  0.2229  0.1037
  921W        W 3121  21.960   1.926  16.949 -0.0798 -0.1134 -0.0658
  922W        W 3122   4.527   3.508   8.225  0.2413  0.0092  0.0646
  923W        W 3123   4.469   3.982   9.526 -0.0914  0.0167  0.1337
  924W        W 3124  19.733   1.266   1.332 -0.0283  0.0910  0.2416
  925W        W 3125  21.844   2.279  15.275 -0.2280 -0.1014  0.1096
  926W        W 3126  23.753   1.071  19.346  0.1224 -0.3214 -0.1629
  927W        W 3127  11.870   4.865   9.916  0.1121 -0.2104  0.2298
  928W        W 3128   1.493   3.173   1.300  0.0632 -0.1462 -0.0409
  929W        W 3129  30.428   0.212  20.856 -0.2318 -0.0468  0.0954
  930W        W 3130  27.231   0.953  20.492  0.3662  0.2246 -0.0816
  931W        W 3131  22.525   5.606  25.531 -0.1845 -0.0531  0.0906
  932W        W 3132  25.933   5.270  25.281  0.1131 -0.2993  0.0775
  933W        W 3133  22.817   7.496  17.770 -0.3861 -0.1807  0.2076
  934W        W 3134  31.027   1.420  18.682  0.0719 -0.0853  0.1749
  935W        W 3135  10.043   1.543  17.400 -0.0139 -0.0204  0.0412
  936W        W 3136  10.093   6.106   1.509 -0.2023 -0.0947 -0.3288
  937W        W 3137   6.188   5.163   7.981 -0.2442  0.0142  0.2914
  938W        W 3138  24.540   1.108   5.649  0.0801  0.2699 -0.0866
  939W        W 3139  20.347   7.393   3.750  0.0354 -0.1255  0.1934
  940W        W 3140   2.489   2.753   6.808  0.2126  0.1786  0.0752
  941W        W 3141  20.132   5.345  25.858  0.0436  0.1617  0.1802
  942W        W 3142  16.514   2.000   1.035 -0.0235  0.0024  0.0561
  943W        W 3143  17.249   5.890  25.836  0.0261 -0.0999  0.1676
  944W        W 3144  20.481   0.877  25.878 -0.0057  0.0452 -0.0555
  945W        W 3145   3.365   3.929  15.804 -0.0243  0.1085 -0.1722
  946W        W 3146  22.993   4.151  19.887 -0.0122  0.1931 -0.1647
  947W        W 3147  12.658   4.994  19.387  0.0825  0.1279 -0.0944
  948W        W 3148  15.349   6.926  25.824  0.2952  0.0855  0.2235
  949W        W 3149  18.826   1.944  17.101  0.0075  0.0876 -0.0574
  950W        W 3150  15.430   6.485   4.181 -0.3722  0.1188  0.0302
  951W        W 3151   7.767   4.130   2.722 -0.0798 -0.0199  0.1327
  952W        W 3152  23.257   3.787   2.001  0.2512  0.3424  0.2543
  953W        W 3153  28.246   6.418   5.207 -0.0657 -0.0231 -0.0405
  954W        W 3154  19.456   7.200  25.847 -0.0369 -0.1308 -0.1018
  955W        W 3155   8.480   7.043  23.058 -0.1239 -0.0317 -0.1207
  956W        W 3156   9.236   3.241  16.041  0.1470  0.2479 -0.2085
  957W        W 3157   9.529   0.100  10.138  0.2000 -0.1918 -0.0525
  958W        W 3158  21.465   5.793  19.435 -0.0031 -0.5492  0.2913
  959W        W 3159  28.592   3.497   3.208  0.1831  0.0514 -0.1946
  960W        W 3160  13.412   5.583   5.784  0.1048  0.2858 -0.3811
  961W        W 3161  14.705   1.408   3.631  0.0116  0.2095  0.0668
  962W        W 3162  12.971   0.618  19.602  0.1139 -0.1362  0.1603
  963W        W 3163  10.603   7.224  23.080  0.0146  0.2587 -0.1822
  964W        W 3164   8.428   3.651   1.493  0.1006 -0.2497 -0.3020
  965W        W 3165  15.475   5.946   3.280  0.0091  0.0154 -0.0820
  966W        W 3166  14.709   2.696  15.270  0.1922 -0.3213 -0.0256
  967W        W 3167  19.861   3.759  16.339  0.1896 -0.3547  0.0133
  968W        W 3168   4.523   5.665  22.338  0.1753  0.0050 -0.0173
  969W        W 3169   9.386   3.613  10.106  0.1392  0.0324  0.1190
  970W        W 3170  18.015   5.619  23.727  0.3023  0.0852  0.0603
  971W        W 3171  18.977   3.359  20.728  0.2427 -0.0319 -0.2068
  972W        W 3172  29.190   1.290  16.122  0.1288 -0.2398 -0.1278
  973W        W 3173  27.912   5.848  18.019  0.1948 -0.0281 -0.2062
  974W        W 3174   8.803   1.097  15.218 -0.0784  0.1623  0.1728
  975W        W 3175  27.083   2.104  11.180  0.0316  0.0280 -0.1809
  976W        W 3176   9.271   7.702   2.101 -0.2732  0.1328  0.0739
  977W        W 3177   6.398   4.256  20.075  0.2762 -0.3382 -0.1587
  978W        W 3178  12.555   2.776  10.528  0.1485  0.0084 -0.1420
  979W        W 3179   4.999   1.624   7.666 -0.0977  0.0865  0.0975
  980W        W 3180  17.254   4.916  16.203  0.0647 -0.0102  0.1770
  981W        W 3181  15.079   7.016  21.011 -0.0029  0.3111 -0.3019
  982W        W 3182  13.143   7.768   6.627 -0.2386  0.0612  0.0404
  983W        W 3183  20.013   5.376   8.721  0.0006  0.2248 -0.0084
  984W        W 3184   9.823   4.759   2.156  0.1816  0.1043 -0.1302
  985W        W 3185   2.995   0.156  11.384 -0.0706 -0.1332  0.0763
  986W        W 3186   7.545   0.628  15.631 -0.1023  0.1905 -0.0161
  987W        W 3187  21.007   5.418  18.620 -0.0738  0.3852  0.0331
  988W        W 3188  11.333   4.955  17.916 -0.1103  0.1502  0.2402
  989W        W 3189  12.180   2.401  18.479 -0.1623 -0.1013 -0.0184
  990W        W 3190  14.783   2.461   2.666 -0.2347 -0.0036 -0.2315
  991W        W 3191  29.514   3.228   8.031 -0.0781 -0.1612  0.0252
  992W        W 3192  11.620   5.249  22.875  0.2150  0.4027  0.2335
  993W        W 3193  21.269   0.873  19.661 -0.1809  0.1867  0.2581
  994W        W 3194  20.184   7.184  23.436 -0.2926 -0.0289  0.1315
  995W        W 3195  15.675   7.191  22.318 -0.0078 -0.1595 -0.2018
  996W        W 3196  13.841   1.679  22.732 -0.0069  0.0952  0.2092
  997W        W 3197   2.324   1.131  20.294  0.1752  0.0102 -0.2612
  998W        W 3198   9.936   4.938  14.922 -0.1807  0.1435 -0.1253
  999W        W 3199   0.480   0.393  16.426  0.0141 -0.0504  0.0092
 1000W        W 3200   9.035   2.060  18.737  0.1052  0.1230  0.2608
 1001W        W 3201  13.073   0.084   0.822 -0.1219 -0.1067  0.1796
 1002W        W 3202  15.938   3.464   5.867  0.0413  0.2030 -0.1940
 1003W        W 3203   2.469   0.021  24.244  0.2471  0.0243 -0.1328
 1004W        W 3204  21.685   3.030   0.453 -0.3044 -0.1148  0.0431
 1005W        W 3205  28.330   0.915   7.527 -0.3213  0.1100 -0.2379
 1006W        W 3206   2.567   2.810   5.778 -0.0802 -0.0227  0.1636
 1007W        W 3207  20.426   3.289   6.826 -0.0984 -0.2491  0.1437
 1008W        W 3208  15.860   3.800  18.716  0.0228  0.1198 -0.2947
 1009W        W 3209  21.239   4.193   8.684  0.1163  0.4525 -0.0378
 1010W        W 3210  13.527   6.987  21.145 -0.0854 -0.2828 -0.1985
 1011W        W 3211  13.674   7.461   4.753  0.0306  0.2701 -0.2375
 1012W        W 3212   7.682   4.655  23.076 -0.0273 -0.2149  0.1961
 1013W        W 3213  17.365   2.824   5.620 -0.0406  0.1022 -0.1122
 1014W        W 3214  18.206   4.722  17.841 -0.1884 -0.2056 -0.2373
 1015W        W 3215   9.263   3.889   1.679 -0.0347  0.1085  0.0935
 1016W        W 3216   8.997   4.513  15.994 -0.1965 -0.1851 -0.0095
 1017W        W 3217  22.578   6.264  18.665  0.2261  0.0703 -0.1650
 1018W        W 3218  11.921   2.671  19.198 -0.1161 -0.1983 -0.2037
 1019W        W 3219   7.948   7.249   2.536 -0.0004  0.2769  0.3443
 1020W        W 3220  26.501   2.940   2.415 -0.0510 -0.0197 -0.1852
 1021W        W 3221  10.076   7.165  20.326 -0.3358 -0.1214  0.0234
 1022W        W 3222   4.995   3.113  21.494 -0.0451 -0.0890  0.0179
 1023W        W 3223  25.616   2.968   1.946  0.1059  0.2187  0.2286
 1024W        W 3224  21.063   2.316  15.589 -0.2506  0.0451  0.2740
 1025W        W 3225   1.667   4.928   8.348  0.0547  0.0599  0.4779
 1026W        W 3226  19.019   6.387   0.194 -0.0552 -0.1777  0.2418
 1027W        W 3227  11.488   2.276  25.430  0.1695  0.2243 -0.2256
 1028W        W 3228  13.303   3.335  23.208 -0.1769 -0.0079  0.0593
 1029W        W 3229  12.756   2.709  25.251  0.2141 -0.0829  0.0185
 1030W        W 3230  31.203   1.640   0.159  0.2833 -0.1899  0.0931
 1031W        W 3231  20.140   4.885  15.074  0.0759 -0.0744 -0.3083
 1032W        W 3232   3.497   1.331  20.415  0.0383 -0.0132  0.2296
 1033W        W 3233  27.387   6.378   1.399  0.1823  0.0961 -0.2664
 1034W        W 3234  24.918   4.858  25.784 -0.0029  0.1501 -0.1726
 1035W        W 3235  27.438   4.187  20.518 -0.2284 -0.1445  0.3322
 1036W        W 3236  16.222   1.356  20.131  0.1276 -0.0723  0.1042
 1037W        W 3237  10.625   0.183   2.046  0.3003  0.2377 -0.0410
 1038W        W 3238  29.304   5.019   8.131 -0.1713  0.1835 -0.2734
 1039W        W 3239  25.441   3.717   4.982  0.0131 -0.0144  0.0920
 1040W        W 3240   1.213   2.323   8.470  0.1210 -0.2312 -0.0548
 1041W        W 3241  18.992   1.114   0.779  0.1281  0.2617  0.2217
 1042W        W 3242   3.075   4.532  25.352  0.1691  0.1938 -0.1513
 1043W        W 3243   4.981   5.393  21.067 -0.3321 -0.1549 -0.1806
 1044W        W 3244  14.789   4.294   8.364 -0.3780  0.0125 -0.1246
 1045W        W 3245  15.516   7.094  19.128 -0.0272  0.0232  0.1960
 1046W        W 3246   7.772   3.314   1.047  0.0976  0.0043 -0.3394
 1047W        W 3247   6.502   0.550   1.479 -0.0489 -0.1901  0.1923
 1048W        W 3248   2.695   7.123   6.835  0.0678 -0.3337  0.0610
 1049W        W 3249  10.845   0.322  22.418  0.2881 -0.0022  0.2745
 1050W        W 3250  30.380   1.781  24.403  0.0194 -0.4454  0.1052
 1051W        W 3251  24.851   6.693   1.242 -0.1789 -0.2478 -0.0838
 1052W        W 3252  30.608   2.742  11.024  0.0040 -0.1785  0.0336
 1053W        W 3253  14.935   5.750  16.893 -0.3150  0.0376  0.0797
 1054W        W 3254  11.387   5.663  16.838 -0.1174  0.0691 -0.3460
 1055W        W 3255   8.562   3.290  15.076  0.0967 -0.1169  0.1533
 1056W        W 3256  21.700   2.931   8.702  0.1535 -0.2387 -0.1335
 1057W        W 3257  22.472   3.508  21.180  0.1657 -0.2725 -0.0272
 1058W        W 3258  16.604   2.217  21.173 -0.2530  0.3008 -0.1856
 1059W        W 3259  29.625   4.631  17.297 -0.2465 -0.1199 -0.0422
 1060W        W 3260   3.456   2.863   5.832 -0.0070  0.0310  0.1172
 1061W        W 3261   5.382   6.709  10.444  0.0258 -0.2905  0.0918
 1062W        W 3262  28.859   6.908  24.129  0.2576  0.3638  0.0252
 1063W        W 3263  16.909   2.099   0.729 -0.1391  0.0767  0.0876
 1064W        W 3264  21.579   1.568   0.941  0.1351 -0.0889 -0.1481
 1065W        W 3265   9.009   2.857   6.086 -0.0342  0.0753  0.1007
 1066W        W 3266  17.196   3.894  14.790  0.0127  0.0718 -0.0600
 1067W        W 3267  17.217   0.947   0.039 -0.1531 -0.2595  0.1525
 1068W        W 3268   6.402   5.323   4.541  0.2175 -0.2390 -0.0071
 1069W        W 3269  23.800   1.084  21.647 -0.3087  0.3880 -0.1206
 1070W        W 3270  13.425   3.293  19.827 -0.0280 -0.0509  0.2699
 1071W        W 3271   3.665   0.051   6.295 -0.1187  0.1414 -0.0899
 1072W        W 3272  16.970   4.428   4.080  0.0641  0.1447  0.0023
 1073W        W 3273  11.039   7.821  18.035 -0.0700 -0.2441 -0.2401
 1074W        W 3274  11.158   6.813   8.578  0.0470  0.0388 -0.3031
 1075W        W 3275   0.544   2.894  10.260 -0.3430 -0.0193  0.1622
 1076W        W 3276  17.954   3.701  17.710  0.0011  0.0260 -0.2018
 1077W        W 3277   6.527   0.800   2.828 -0.1428  0.1947 -0.0606
 1078W        W 3278  20.859   5.431  20.190  0.0066  0.0467  0.0122
 1079W        W 3279  16.828   1.310  10.624  0.2488  0.1124 -0.0659
 1080W        W 3280   9.468   5.518  21.709  0.0817 -0.2325  0.1469
 1081W        W 3281   2.449   3.188   2.573  0.2313  0.0116 -0.2675
 1082W        W 3282  24.890   1.561  20.254 -0.3311  0.2854  0.0778
 1083W        W 3283  16.790   1.491  16.762 -0.0196 -0.0948 -0.0416
 1084W        W 3284  10.788   6.752  26.036 -0.1896 -0.2977 -0.1349
 1085W        W 3285   7.597   3.022   2.804 -0.3307 -0.0196 -0.0349
 1086W        W 3286  27.350   7.175   4.107  0.0948  0.0180 -0.0583
 1087W        W 3287  23.005   3.993  23.423 -0.1597  0.3236  0.0239
 1088W        W 3288  16.329   2.609   8.218 -0.0974 -0.1575 -0.1313
 1089W        W 3289  25.608   6.546   8.432  0.0965  0.0304 -0.1233
 1090W        W 3290  21.486   0.556   8.507  0.0410  0.2366  0.0478
 1091W        W 3291  12.045   3.482  19.087 -0.0256  0.0134 -0.0542
 1092W        W 3292  31.290   6.901   6.148 -0.0121  0.2116  0.0796
 1093W        W 3293  13.497   4.724   3.689 -0.0223 -0.3431 -0.1684
 1094W        W 3294   9.108   7.753  20.358 -0.0253 -0.3312 -0.0114
 1095W        W 3295   2.359   0.592   3.097 -0.0528  0.0761  0.1246
 1096W        W 3296  17.060   5.692   7.744 -0.0927 -0.3500 -0.2739
 1097W        W 3297  11.330   7.533   6.042  0.1066 -0.3380  0.2823
 1098W        W 3298  19.617   7.494  18.767  0.0095 -0.1504 -0.0669
 1099W        W 3299  10.279   3.005  22.790  0.1749 -0.0316  0.0491
 1100W        W 3300  15.627   2.267  23.415 -0.2054 -0.1640  0.1144
 1101W        W 3301  27.074   2.372  18.064  0.2686  0.1012 -0.0419
 1102W        W 3302  10.161   2.673   3.272 -0.1441  0.2785  0.0916
 1103W        W 3303  22.931   0.208  20.779  0.1351 -0.0676  0.1298
 1104W        W 3304   7.989   1.710  20.044 -0.2301 -0.4101  0.1146
 1105W        W 3305   8.088   3.612  23.003  0.5076  0.1962  0.1672
 1106W        W 3306  30.029   3.529   3.937  0.0321  0.1130 -0.0085
 1107W        W 3307   6.860   7.057   1.773  0.1629  0.0387  0.0065
 1108W        W 3308   5.316   2.476  16.973  0.0351 -0.1425  0.0251
 1109W        W 3309  20.184   6.979   1.418 -0.0036 -0.2220 -0.2447
 1110W        W 3310  22.939   0.074   2.457 -0.0718 -0.2119 -0.1866
 1111W        W 3311  14.145   0.480   8.616 -0.3552  0.2783 -0.7068
 1112W        W 3312  25.147   6.567  24.243 -0.4214 -0.0299 -0.1057
 1113W        W 3313  14.114   7.240  19.104  0.0357  0.0988 -0.1218
 1114W        W 3314  30.176   6.093   4.324  0.0671 -0.3811 -0.0382
 1115W        W 3315  21.392   6.168  17.530 -0.0805 -0.0498 -0.0775
 1116W        W 3316  21.027   4.668  20.752 -0.1110 -0.2775  0.2241
 1117W        W 3317   2.656   1.595   8.757  0.0414  0.0555 -0.1827
 1118W        W 3318  17.354   1.856  15.983  0.3648  0.2188  0.0679
 1119W        W 3319  22.041   1.373  19.556  0.1215  0.0212  0.1276
 1120W        W 3320  19.071   0.542   0.694 -0.1678  0.0223 -0.5116
 1121W        W 3321  10.199   4.540   6.051  0.1479  0.2906  0.0765
 1122W        W 3322  12.129   4.394   0.182 -0.1719  0.1667  0.1496
 1123W        W 3323  10.198   2.631  10.936  0.1545 -0.0736  0.1962
 1124W        W 3324  16.223   5.576  18.559 -0.2493  0.1047  0.1987
 1125W        W 3325   5.751   1.285   1.554  0.2420  0.3369  0.1093
 1126W        W 3326  27.322   2.121  22.118 -0.0507 -0.1561 -0.1429
 1127W        W 3327  21.534   7.230  24.384  0.0517  0.0163 -0.0346
 1128W        W 3328  17.240   6.582  22.522 -0.2031 -0.1641 -0.1507
 1129W        W 3329  31.085   4.493  25.392  0.0738  0.1130  0.0251
 1130W        W 3330  22.980   3.456  22.684  0.0460 -0.0177  0.2247
 1131W        W 3331   8.848   1.323  22.268 -0.2251 -0.0390  0.2012
 1132W        W 3332   2.292   1.166  11.945 -0.0617 -0.0355 -0.0213
 1133W        W 3333  22.933   1.696   1.293  0.3345  0.4560 -0.1153
 1134W        W 3334  14.823   0.502  16.557  0.0623  0.1273  0.2055
 1135W        W 3335  24.613   2.629  15.815 -0.2112  0.1266 -0.2958
 1136W        W 3336  18.229   0.015  16.935 -0.0898 -0.0789  0.1278
 1137W        W 3337  23.817   2.940   9.241  0.1319 -0.0168  0.2705
 1138W        W 3338  18.504   2.814   3.535 -0.1833 -0.0725 -0.0160
 1139W        W 3339  19.600   6.000  18.618  0.1224  0.0848  0.1185
 1140W        W 3340   3.405   2.430  19.828 -0.1354 -0.1206  0.1637
 1141W        W 3341  23.008   3.528  20.326 -0.1088 -0.0321 -0.2109
 1142W        W 3342   9.285   1.677   5.102  0.1836  0.4170  0.0487
 1143W        W 3343   3.607   3.028   7.417  0.1005 -0.2853 -0.0325
 1144W        W 3344  30.083   6.970   1.285  0.0027 -0.0319 -0.2034
 1145W        W 3345  14.245   0.514  21.943  0.0368  0.1633 -0.1960
 1146W        W 3346   3.868   7.786   1.419 -0.0001 -0.2007  0.1271
 1147W        W 3347  20.083   6.070   4.086  0.0873  0.0161 -0.1518
 1148W        W 3348  15.927   5.935  17.279 -0.1728  0.0469  0.1967
 1149W        W 3349  23.330   2.596  25.259  0.2087  0.1421  0.1100
 1150W        W 3350   9.252   3.117  22.075 -0.1751 -0.5064 -0.1382
 1151W        W 3351   8.319   1.441   7.590  0.0993 -0.1560  0.2323
 1152W        W 3352  17.135   1.661   6.496 -0.0263  0.1484 -0.4775
 1153W        W 3353  26.725   2.871  17.003 -0.0623 -0.0715  0.1604
 1154W        W 3354   3.183   7.242  20.393  0.0533 -0.3921 -0.1014
 1155W        W 3355  10.476   0.012   3.241 -0.2208 -0.1813  0.1171
 1156W        W 3356   4.099   6.119   8.293  0.4329 -0.1013 -0.0191
 1157W        W 3357  20.841   6.189  25.695 -0.0906  0.1491 -0.0770
 1158W        W 3358   0.040   3.779   5.927  0.2269 -0.2834  0.1325
 1159W        W 3359   0.410   1.616  22.752 -0.1780 -0.1917  0.3954
 1160W        W 3360  25.565   0.974   9.942  0.1242 -0.0646 -0.1175
 1161W        W 3361  11.517   1.568  22.224  0.1061  0.2174 -0.0376
 1162W        W 3362  19.922   1.436  20.912  0.1895 -0.0753  0.1252
 1163W        W 3363   2.947   0.895  18.144 -0.1332  0.0301  0.2877
 1164W        W 3364  17.950   1.516  15.493  0.3256 -0.4408 -0.0416
 1165W        W 3365  13.806   5.239  17.038 -0.0237 -0.0871  0.2663
 1166W        W 3366   3.717   0.333  20.804 -0.2770 -0.1396 -0.0492
 1167W        W 3367  19.226   3.172   2.485 -0.1099  0.0039  0.1701
 1168W        W 3368  26.223   4.394   7.783 -0.0376 -0.1231 -0.2073
 1169W        W 3369   8.013   0.756  20.325 -0.0865 -0.3323  0.0536
 1170W        W 3370  20.867   5.276  20.735  0.0591 -0.1330  0.1035
 1171W        W 3371  15.062   7.767   7.344 -0.2914  0.0265 -0.1642
 1172W        W 3372   0.252   3.468  16.287 -0.1176 -0.2206 -0.1930
 1173W        W 3373   8.781   0.797  20.278  0.2529 -0.0592  0.3540
 1174W        W 3374   5.081   6.121   9.547  0.0638  0.0949  0.0590
 1175W        W 3375  13.467   2.469   5.316 -0.1745  0.3627  0.0421
 1176W        W 3376  21.610   6.160   3.105 -0.2760 -0.1588  0.3175
 1177W        W 3377   7.823   2.966   6.092  0.0647 -0.0213  0.2840
 1178W        W 3378   6.017   4.603  24.736  0.1155  0.1352 -0.0121
 1179W        W 3379   9.656   0.904  21.940  0.1631 -0.0574  0.3563
 1180W        W 3380  29.115   3.543   6.339  0.1755  0.0873  0.2125
 1181W        W 3381   3.158   1.041   5.040  0.0206  0.2629 -0.1008
 1182W        W 3382  26.585   0.346  10.868 -0.0182 -0.0041 -0.0847
 1183W        W 3383  10.165   7.152  24.997 -0.1422 -0.1775 -0.0334
 1184W        W 3384  24.452   4.566   5.411 -0.1375 -0.2738  0.2193
 1185W        W 3385   3.182   3.927  23.594  0.0394  0.0940  0.0680
 1186W        W 3386  15.872   0.482   7.987  0.0256 -0.4252 -0.3171
 1187W        W 3387  26.571   4.312   5.846  0.1914  0.0630  0.2619
 1188W        W 3388  13.855   2.908  20.958 -0.0613 -0.2663  0.0760
 1189W        W 3389   4.176   2.761  16.216 -0.0816 -0.1068  0.0043
 1190W        W 3390  25.636   4.018  15.698 -0.0330 -0.2627  0.0194
 1191W        W 3391  16.882   3.638   7.156 -0.1475  0.1828  0.1468
 1192W        W 3392   9.006   5.144   8.197 -0.0126 -0.0294  0.0960
 1193W        W 3393  22.119   2.648   5.680 -0.0090 -0.1732  0.3273
 1194W        W 3394   2.776   7.258  24.794 -0.0728 -0.2383  0.1174
 1195W        W 3395  26.232   0.063   0.986 -0.1015 -0.1044  0.1013
 1196W        W 3396  29.603   5.410  20.325  0.0060 -0.2192 -0.4516
 1197W        W 3397  27.059   2.960   3.630  0.0828  0.1191 -0.2517
 1198W        W 3398   5.803   6.506   2.399 -0.0625  0.2370  0.2073
 1199W        W 3399  23.909   4.554  15.281 -0.1339 -0.0757 -0.2177
 1200W        W 3400  12.105   3.018  23.855  0.1555 -0.1235 -0.1970
 1201W        W 3401  17.378   0.537   2.275  0.2310  0.0342 -0.1641
 1202W        W 3402  11.860   6.487  16.585 -0.0019 -0.0394 -0.1137
 1203W        W 3403   9.327   4.969  18.729  0.1531 -0.0784  0.1517
 1204W        W 3404  25.171   4.521  15.383 -0.1768  0.1070 -0.0986
 1205W        W 3405   1.936   6.074   5.185  0.0321 -0.0459 -0.1791
 1206W        W 3406   0.743   7.475  19.119 -0.1459 -0.1641  0.3301
 1207W        W 3407  14.518   0.026   0.621 -0.2332  0.0289  0.2887
 1208W        W 3408   0.490   4.479   6.077  0.0926 -0.0614  0.0157
 1209W        W 3409  21.175   4.601  18.974 -0.0269  0.2749 -0.2267
 1210W        W 3410   9.285   7.468  10.147 -0.1060 -0.2443 -0.2286
 1211W        W 3411   8.820   5.904   4.590  0.0180 -0.1586  0.1867
 1212W        W 3412   6.535   3.757   8.390  0.0846 -0.0620  0.0865
 1213W        W 3413  28.698   7.408  25.322  0.0952  0.3557 -0.1223
 1214W        W 3414  20.031   5.463   6.297 -0.1520  0.2646  0.1519
 1215W        W 3415  21.336   1.696  23.503  0.0754  0.0939  0.0990
 1216W        W 3416  19.778   6.661  14.818 -0.2151 -0.1138  0.3917
 1217W        W 3417  27.835   5.993   9.407 -0.1266  0.0848 -0.0952
 1218W        W 3418   0.409   3.032   6.229  0.2112  0.2003  0.2399
 1219W        W 3419   2.195   3.176   5.984  0.1430 -0.1101  0.0205
 1220W        W 3420  14.877   6.336  15.375  0.0951  0.0358  0.1343
 1221W        W 3421  15.897   0.718  19.332  0.0718  0.0629  0.2335
 1222W        W 3422  27.732   1.827  18.118  0.2821  0.1386 -0.1861
 1223W        W 3423  11.016   1.264   2.761  0.0819 -0.2147 -0.0526
 1224W        W 3424  11.593   0.732  11.149  0.0425  0.2614  0.1030
 1225W        W 3425  10.773   4.669   6.141  0.2489  0.1116  0.0949
 1226W        W 3426   8.251   3.614  20.193  0.1642 -0.3036  0.0718
 1227W        W 3427  22.576   5.968  16.424  0.1504 -0.1326  0.1330
 1228W        W 3428  10.402   3.869   9.946  0.0092 -0.0517 -0.3123
 1229W        W 3429  19.186   2.085  26.143  0.0016  0.2253  0.0201
 1230W        W 3430  19.828   6.101  15.819 -0.0204 -0.0754  0.0893
 1231W        W 3431   7.214   7.040  24.688 -0.2135 -0.1556  0.1056
 1232W        W 3432   1.255   1.914  22.171 -0.1336 -0.1008 -0.0153
 1233W        W 3433   6.286   1.251   5.508 -0.1190  0.0111 -0.2598
 1234W        W 3434  12.464   0.987  15.505  0.0176 -0.1929 -0.1227
 1235W        W 3435   1.364   3.031   9.069 -0.1220 -0.0862 -0.0001
 1236W        W 3436  12.729   5.064   8.292  0.3350 -0.3199  0.0190
 1237W        W 3437  10.321   2.105   2.937  0.1900 -0.3379 -0.0625
 1238W        W 3438   7.075   1.585   6.246 -0.2105 -0.1527  0.1377
 1239W        W 3439  27.188   5.634  23.995 -0.1826  0.2767 -0.1582
 1240W        W 3440   5.056   0.884  23.037  0.3446  0.0146 -0.2385
 1241W        W 3441  20.644   1.281   7.764 -0.1314  0.1309 -0.1919
 1242W        W 3442  10.094   2.055  25.750 -0.0345  0.1084  0.2361
 1243W        W 3443   9.499   2.913  20.940 -0.0351  0.1292  0.1396
 1244W        W 3444  28.636   6.986  24.978 -0.0323 -0.1269  0.1619
 1245W        W 3445   3.946   0.903  22.293 -0.0671 -0.0287  0.1054
 1246W        W 3446   2.238   0.857   4.557 -0.1737  0.1834  0.1278
 1247W        W 3447   6.905   3.024   6.217 -0.0537  0.0767  0.1534
 1248W        W 3448  22.372   0.483  17.777  0.3615 -0.0922 -0.0158
 1249W        W 3449   5.681   7.711   9.490  0.0227 -0.0114  0.0014
 1250W        W 3450  19.647   0.353   0.486 -0.0504 -0.0164  0.2242
 1251W        W 3451  17.080   6.774  22.968  0.0909  0.1470  0.0236
 1252W        W 3452  28.041   7.070  26.052  0.1782 -0.2541 -0.2678
 1253W        W 3453  15.144   6.367  14.925 -0.0831 -0.2371 -0.3774
 1254W        W 3454  26.559   4.129  23.349 -0.2197 -0.0361 -0.0004
 1255W        W 3455  29.869   6.879   0.743 -0.0613  0.0424 -0.1736
 1256W        W 3456   7.046   0.396  20.021  0.1771 -0.1162  0.1003
 1257W        W 3457  10.325   7.826   6.253  0.0808  0.0390 -0.0077
 1258W        W 3458   2.899   0.378  16.569  0.1320  0.2464 -0.0531
 1259W        W 3459  15.471   2.014  15.517 -0.0741  0.2231 -0.1245
 1260W        W 3460  19.480   1.552  23.918 -0.0898 -0.1660  0.0158
 1261W        W 3461  15.307   6.388  22.238 -0.1194  0.5447 -0.1008
 1262W        W 3462   3.739   1.711   3.877 -0.0549 -0.0096  0.3704
 1263W        W 3463  17.779   6.202   3.880  0.6107  0.0935  0.0461
 1264W        W 3464  26.202   2.644   7.898 -0.3745 -0.1599  0.0577
 1265W        W 3465  26.377   3.745   3.716  0.1286 -0.0814 -0.0138
 1266W        W 3466   0.555   6.369  17.848 -0.0601 -0.3461 -0.1027
 1267W        W 3467   4.748   6.224   5.168  0.1034  0.2726 -0.1000
 1268W        W 3468   4.248   5.736  23.362  0.0220  0.2413 -0.0515
 1269W        W 3469  23.210   3.278  23.567  0.2701 -0.0631  0.1252
 1270W        W 3470   4.070   6.391  19.129 -0.0963 -0.0542 -0.1179
 1271W        W 3471   5.930   6.687  10.319 -0.0532  0.1934  0.2894
 1272W        W 3472   4.130   6.713  19.517  0.1634  0.0997 -0.0544
 1273W        W 3473  29.087   6.621   1.421 -0.2343  0.1153  0.1559
 1274W        W 3474  17.640   4.984   0.800 -0.0697 -0.0359 -0.0104
 1275W        W 3475  19.130   5.068  15.906 -0.2052  0.3814 -0.0017
 1276W        W 3476  16.141   3.369   0.827 -0.1450  0.0079  0.4414
 1277W        W 3477  11.614   4.384  24.121  0.1420  0.2170  0.0547
 1278W        W 3478  17.155   4.411   1.951  0.1175  0.0227 -0.3232
 1279W        W 3479   3.598   7.639  20.192  0.0852 -0.0543  0.2991
 1280W        W 3480  23.762   7.077  18.501  0.2210  0.3692 -0.0013
 1281W        W 3481  14.904   1.894  11.113  0.1685 -0.0538  0.1971
 1282W        W 3482   3.451   2.004  21.363  0.0317  0.1086  0.0695
 1283W        W 3483  14.223   4.757   6.029 -0.0397  0.0017  0.0304
 1284W        W 3484   0.843   7.107   7.567  0.4150 -0.0068 -0.0822
 1285W        W 3485  15.602   0.673  21.985  0.0436  0.0922  0.2417
 1286W        W 3486  24.777   5.500   7.509  0.3873 -0.0844 -0.2582
 1287W        W 3487  30.692   0.178  15.620 -0.3588 -0.1461  0.3613
 1288W        W 3488   0.147   3.270   7.304 -0.1399  0.1959  0.0512
 1289W        W 3489  24.496   0.887   6.269 -0.1427 -0.0830 -0.0464
 1290W        W 3490  30.126   4.867  20.373 -0.0418  0.3225 -0.0994
 1291W        W 3491  16.802   6.439   0.886 -0.0643  0.0996  0.2510
 1292W        W 3492  11.993   3.611  23.054  0.1464  0.0716 -0.1104
 1293W        W 3493  22.102   0.577   4.723 -0.0989 -0.2455  0.1510
 1294W        W 3494  20.376   0.250  16.672  0.2136 -0.0798 -0.2514
 1295W        W 3495   5.073   6.754  22.775  0.2242 -0.0173  0.2783
 1296W        W 3496  18.728   4.002  24.800 -0.1699  0.0254  0.4685
 1297W        W 3497  14.953   4.327  16.989  0.0850 -0.4585  0.2222
 1298W        W 3498  21.374   6.021   3.568  0.0499  0.3054 -0.2500
 1299W        W 3499  10.584   2.629  11.238  0.0182 -0.1060  0.1639
 1300W        W 3500  14.230   1.198   8.757 -0.0483  0.3657  0.0201
 1301W        W 3501  14.386   0.199   3.810  0.3002 -0.1342  0.0960
 1302W        W 3502   4.446   5.351   9.481  0.0049 -0.3851  0.0319
 1303W        W 3503   6.266   0.366   2.929  0.1788 -0.0536 -0.0989
 1304W        W 3504  20.343   1.081  24.957  0.1830 -0.0445  0.3476
 1305W        W 3505  13.643   3.813   0.534 -0.1078 -0.3752  0.0613
 1306W        W 3506  13.410   4.693   7.685  0.0949 -0.0479  0.2679
 1307W        W 3507  30.417   2.374  17.816 -0.1265  0.0529 -0.0997
 1308W        W 3508  22.871   6.214   2.426  0.1594  0.2544 -0.1005
 1309W        W 3509  26.252   6.539   7.189 -0.2933 -0.1423 -0.1406
 1310W        W 3510  30.153   4.402  10.228 -0.1271 -0.2972  0.1474
 1311W        W 3511  28.650   0.391   7.551 -0.0785 -0.0343 -0.2198
 1312W        W 3512  28.064   0.853  24.267 -0.2618 -0.0055  0.1664
 1313W        W 3513  29.856   5.807   6.535  0.0955 -0.1229  0.0750
 1314W        W 3514  14.014   0.118   9.170 -0.0630  0.1811 -0.1442
 1315W        W 3515   7.226   5.158  17.432 -0.0315  0.0356  0.0258
 1316W        W 3516  23.325   7.317   5.521  0.1579 -0.1945 -0.1611
 1317W        W 3517   9.826   7.301  16.630  0.0102 -0.3105 -0.1445
 1318W        W 3518  28.134   3.013   8.945 -0.1317  0.1388 -0.0993
 1319W        W 3519  13.180   2.358  17.121 -0.0920 -0.2020 -0.0789
 1320W        W 3520   5.654   1.132   4.889 -0.0865  0.1430 -0.0037
 1321W        W 3521  27.821   1.712  22.491  0.0019 -0.0663 -0.2668
 1322W        W 3522   2.596   6.397   3.432  0.4033  0.1376  0.0511
 1323W        W 3523   7.955   0.521   3.334  0.1920  0.0628  0.0443
 1324W        W 3524  15.182   5.142   8.190  0.1814 -0.1587  0.1984
 1325W        W 3525   1.908   1.268  10.388  0.1855  0.1795  0.1156
 1326W        W 3526   2.180   1.629   2.719  0.3363 -0.1237 -0.0849
 1327W        W 3527   5.931   7.606  22.868 -0.0856 -0.0603 -0.3079
 1328W        W 3528  25.856   2.013  10.119  0.0859  0.0003  0.1764
 1329W        W 3529  28.483   5.098   7.039  0.2274  0.2978  0.1136
 1330W        W 3530  31.143   1.189   7.893 -0.0636  0.2548 -0.0229
 1331W        W 3531   0.585   0.001   9.355  0.1237  0.3972 -0.0197
 1332W        W 3532  17.073   1.903   2.249 -0.1415 -0.1615 -0.2130
 1333W        W 3533   1.585   2.688  10.962 -0.0245 -0.1831 -0.0167
 1334W        W 3534  13.751   5.727   7.495  0.2862 -0.2241 -0.2708
 1335W        W 3535  11.012   0.858  15.481 -0.0161 -0.1703 -0.0836
 1336W        W 3536  18.879   0.107   8.961  0.0132  0.2356  0.1853
 1337W        W 3537  28.157   6.309   8.262  0.0788 -0.0066 -0.0495
 1338W        W 3538  21.860   3.462  15.672 -0.0473 -0.3423 -0.1597
 1339W        W 3539   1.214   6.141   2.528  0.2070  0.0078  0.0168
 1340W        W 3540  15.769   6.024  25.228  0.1660 -0.1287  0.1670
 1341W        W 3541   8.299   6.976   3.673  0.0959  0.0745 -0.0145
 1342W        W 3542  18.970   2.925  18.634  0.2293 -0.2547  0.1896
 1343W        W 3543   7.066   1.967   1.337  0.1594 -0.1339  0.2788
 1344W        W 3544   6.231   0.037  17.918 -0.2219  0.0037 -0.2211
 1345W        W 3545  26.746   7.380  18.868  0.0648  0.0940  0.3613
 1346W        W 3546  26.203   6.424   9.866 -0.2436 -0.2411 -0.0920
 1347W        W 3547  14.625   3.011   0.213  0.1346  0.2584  0.0070
 1348W        W 3548  21.286   2.557  17.711  0.0840  0.0513  0.1439
 1349W        W 3549  12.170   1.243   8.560  0.0797  0.3881  0.2285
 1350W        W 3550  21.336   1.378  16.606  0.0025  0.1405  0.1250
 1351W        W 3551  10.999   3.711  20.787  0.1989  0.1195 -0.4719
 1352W        W 3552  22.824   2.399  21.785  0.0320 -0.1882 -0.2644
 1353W        W 3553   2.951   0.789   3.035 -0.3480  0.1172 -0.1101
 1354W        W 3554  31.246   6.416   8.698  0.4248 -0.1098 -0.1104
 1355W        W 3555  20.954   1.516  20.584 -0.1491 -0.2621 -0.0250
 1356W        W 3556   2.717   3.757   7.987  0.1753  0.2283  0.4301
 1357W        W 3557   7.008   0.072  16.907  0.0477  0.2015  0.0118
 1358W        W 3558   7.151   2.638  18.005 -0.1199 -0.1976  0.0628
 1359W        W 3559  22.054   5.087  24.296  0.5190 -0.2065  0.2794
 1360W        W 3560  20.646   6.905  21.614  0.1255 -0.0841  0.1624
 1361W        W 3561  19.706   0.723  23.538  0.2640 -0.1729 -0.0124
 1362W        W 3562   1.241   0.466   8.377 -0.1187  0.0704 -0.1297
 1363W        W 3563  15.680   4.800   3.745 -0.1283 -0.2495 -0.0797
 1364W        W 3564   0.255   6.845   3.411 -0.0821 -0.2230  0.1091
 1365W        W 3565  22.892   0.049   9.514  0.2472  0.4796  0.1129
 1366W        W 3566   5.935   7.772   0.685  0.3076 -0.0639  0.1450
 1367W        W 3567   1.604   1.255   1.465 -0.0906  0.0796  0.0638
 1368W        W 3568  12.067   0.557   5.316  0.0282 -0.0439  0.5552
 1369W        W 3569  16.723   7.446   0.406  0.1008 -0.2020 -0.1147
 1370W        W 3570  25.895   1.412  22.868  0.1403  0.0752  0.0494
 1371W        W 3571  11.086   4.687  23.303 -0.2718 -0.1488  0.2600
 1372W        W 3572  18.036   1.621   3.357  0.0254 -0.2411  0.0759
 1373W        W 3573  22.817   2.159  24.075 -0.4038  0.0659 -0.2433
 1374W        W 3574  11.211   7.024  25.941 -0.1853  0.1651 -0.1079
 1375W        W 3575  28.004   3.474  15.833  0.1067 -0.2251 -0.0560
 1376W        W 3576  23.434   2.325   0.026  0.0795  0.0825 -0.0921
 1377W        W 3577  25.328   4.602   9.581  0.0356 -0.1249  0.0142
 1378W        W 3578   8.555   6.667  26.099  0.1024  0.1066 -0.0017
 1379W        W 3579   7.642   1.764  20.446 -0.0987  0.0291 -0.0795
 1380W        W 3580   0.051   0.898   1.447  0.0183  0.0755 -0.0276
 1381W        W 3581  30.785   3.535   2.221 -0.3638 -0.3504 -0.0870
 1382W        W 3582  28.352   7.467   7.777 -0.0461  0.1994 -0.1677
 1383W        W 3583  22.559   6.948  16.413 -0.0481  0.0328  0.1351
 1384W        W 3584  26.904   2.262   4.113  0.0443 -0.1785 -0.2009
 1385W        W 3585  10.644   3.834   1.364  0.0608  0.0121  0.1266
 1386W        W 3586   4.735   5.766   3.510 -0.1713 -0.2143 -0.1556
 1387W        W 3587  13.624   4.544  17.183 -0.0151 -0.2321 -0.1985
 1388W        W 3588  18.280   0.691  15.856 -0.0437  0.0957 -0.1209
 1389W        W 3589  13.379   1.776  22.594  0.1390 -0.0361  0.4585
 1390W        W 3590  26.016   1.048  17.516  0.0526 -0.0339 -0.0475
 1391W        W 3591  14.650   7.569   7.202  0.2886  0.1005 -0.1427
 1392W        W 3592  19.084   4.788  19.204  0.1157 -0.0379 -0.0923
 1393W        W 3593  20.785   6.621   0.680  0.0005  0.1636 -0.1490
 1394W        W 3594  12.557   0.117  17.578  0.0302 -0.2232 -0.0151
 1395W        W 3595  31.195   1.392   6.004 -0.0563 -0.0359  0.1538
 1396W        W 3596  13.887   1.395  21.636  0.2010  0.2061  0.1241
 1397W        W 3597  16.603   0.995  10.917 -0.0066 -0.2079  0.5282
 1398W        W 3598   4.181   5.961   4.339 -0.1451  0.0715  0.1733
 1399W        W 3599   4.841   2.483   9.830  0.1073  0.1340 -0.1974
 1400W        W 3600  25.426   7.743  21.971 -0.2720  0.2073  0.0350
 1401W        W 3601   1.479   3.759  17.183 -0.0710 -0.2472 -0.1553
 1402W        W 3602   1.233   5.016  18.138 -0.1449 -0.2107  0.0162
 1403W        W 3603  22.447   3.619   7.532 -0.0910 -0.2152 -0.1989
 1404W        W 3604  23.016   5.629  10.154 -0.2220 -0.0832 -0.0145
 1405W        W 3605  24.272   5.827  24.386 -0.2200  0.0097 -0.0607
 1406W        W 3606   9.447   5.708   3.759 -0.0913 -0.1197 -0.3704
 1407W        W 3607  16.481   4.349  25.411 -0.1328  0.2456  0.2109
 1408W        W 3608   2.747   1.910  19.422  0.1603  0.3243 -0.0201
 1409W        W 3609   9.059   1.248   3.780  0.0918 -0.0601  0.5132
 1410W        W 3610   6.805   4.888  23.359  0.0795  0.1837 -0.1592
 1411W        W 3611  16.568   5.447  16.575 -0.3704  0.0007 -0.2385
 1412W        W 3612  23.529   5.241  18.208  0.0300 -0.2226 -0.0398
 1413W        W 3613   0.324   4.071  21.521  0.0460 -0.0096  0.1728
 1414W        W 3614   5.929   5.617  25.005  0.2198  0.2089  0.0335
 1415W        W 3615   4.103   3.385  18.163  0.0735 -0.1882  0.2157
 1416W        W 3616  17.239   6.116   5.976  0.1439 -0.0364  0.0758
 1417W        W 3617  20.906   4.274  17.358  0.0700 -0.0398  0.1821
 1418W        W 3618  19.803   3.923   9.243  0.0082  0.2289 -0.0362
 1419W        W 3619   9.879   7.114   2.904  0.1183 -0.0922  0.0761
 1420W        W 3620  16.645   1.568  24.467  0.2424  0.3017  0.0758
 1421W        W 3621  28.204   6.170   7.331 -0.1100  0.0981  0.0017
 1422W        W 3622   8.275   3.165  18.961 -0.0366 -0.1750  0.1686
 1423W        W 3623  22.969   3.822  16.166  0.2148  0.0021  0.4067
 1424W        W 3624  16.420   5.141  18.410  0.1019  0.0827 -0.0980
 1425W        W 3625  14.637   1.416   0.839 -0.0203 -0.0814  0.2366
 1426W        W 3626  13.344   0.028  17.934  0.2228  0.0826 -0.0421
 1427W        W 3627  27.167   0.743  19.218  0.5172  0.1584 -0.0867
 1428W        W 3628  30.783   5.375  20.731 -0.0089 -0.1603 -0.2996
 1429W        W 3629   9.913   0.474   6.435  0.1250  0.0352 -0.1660
 1430W        W 3630  31.263   2.245   2.056  0.1262  0.1326  0.0027
 1431W        W 3631   4.759   3.717   6.229  0.1111  0.0553 -0.1434
 1432W        W 3632  25.531   7.533   6.259  0.0947 -0.1605  0.1976
 1433W        W 3633  28.062   5.412  18.125 -0.1056 -0.0954  0.0061
 1434W        W 3634  26.730   4.504  19.749  0.1786  0.0628  0.1171
 1435W        W 3635  13.616   6.477   3.624  0.0817  0.0068  0.0742
 1436W        W 3636  27.518   2.301   9.360  0.0153 -0.1876  0.2584
 1437W        W 3637  10.693   0.555  14.730 -0.2781 -0.0820 -0.0712
 1438W        W 3638  31.053   2.896  18.231 -0.1459 -0.0593  0.0400
 1439W        W 3639  19.950   0.159  17.436  0.0171 -0.0164 -0.1241
 1440W        W 3640   1.131   4.488   4.443 -0.0872  0.1330  0.3183
 1441W        W 3641  21.336   2.346  15.117  0.1924  0.1401  0.0981
 1442W        W 3642   6.743   1.491  25.943 -0.0236 -0.2476  0.0515
 1443W        W 3643  19.774   3.887  18.268  0.1233  0.0638  0.1406
 1444W        W 3644   6.718   5.995   2.540  0.1272 -0.0423 -0.0339
 1445W        W 3645  28.846   1.377  24.677 -0.0573 -0.0442  0.2186
 1446W        W 3646  17.264   4.685  19.621 -0.2174 -0.0616 -0.0777
 1447W        W 3647  30.869   3.422  10.491 -0.0123 -0.0525 -0.1741
 1448W        W 3648  28.627   6.693  26.088 -0.0684  0.0790 -0.0625
 1449W        W 3649   4.915   3.238   7.021 -0.1719  0.0414 -0.0135
 1450W        W 3650  13.306   0.602   7.309 -0.1533 -0.1751 -0.1885
 1451W        W 3651  22.963   3.370   5.951  0.1552  0.2974  0.1117
 1452W        W 3652   0.489   7.179   2.558 -0.0035  0.1298  0.1141
 1453W        W 3653  27.653   5.209  18.391  0.1376 -0.0519 -0.4178
 1454W        W 3654   1.354   4.602  23.135  0.2152 -0.3343  0.0824
 1455W        W 3655  27.474   5.246  24.205  0.0493 -0.0997  0.2592
 1456W        W 3656  14.007   5.153  19.070 -0.3023 -0.0957 -0.1185
 1457W        W 3657  14.060   6.488   3.882 -0.0183 -0.2405  0.1539
 1458W        W 3658  17.089   2.620   6.345 -0.1564  0.0100 -0.1900
 1459W        W 3659  25.352   4.625   2.236 -0.3993  0.1396  0.3512
 1460W        W 3660  14.572   4.461   1.236  0.1112 -0.0314 -0.0865
 1461W        W 3661   6.601   5.943  25.110 -0.1104  0.1341 -0.0463
 1462W        W 3662   4.760   4.939  23.812  0.0288 -0.0973  0.2483
 1463W        W 3663   4.877   1.873  21.959  0.0054  0.5526  0.2284
 1464W        W 3664   4.985   6.107  16.015  0.1855 -0.2160  0.4294
 1465W        W 3665   0.059   2.825  21.047 -0.2415  0.0875 -0.3132
 1466W        W 3666  16.685   5.784  16.964  0.0452  0.0667  0.0760
 1467W        W 3667  15.791   3.765  25.995 -0.3865 -0.0511 -0.2662
 1468W        W 3668   1.141   2.795  24.012 -0.1118 -0.2558 -0.0819
 1469W        W 3669  18.309   1.193  23.484  0.1040 -0.3294  0.1276
 1470W        W 3670   1.883   3.251  18.487 -0.0503 -0.0072 -0.2517
 1471W        W 3671   9.992   5.960  14.618  0.0685  0.0930  0.3764
 1472W        W 3672  21.867   3.879  24.285  0.2189 -0.0275  0.4186
 1473W        W 3673  27.252   6.865  10.726 -0.1283 -0.1599 -0.1402
 1474W        W 3674  20.578   2.794  16.192  0.3243  0.1955  0.2159
 1475W        W 3675   2.079   0.270   0.429  0.2033  0.0847 -0.0377
 1476W        W 3676  11.609   6.269   5.045 -0.0671 -0.1395 -0.1317
 1477W        W 3677  22.255   2.807   2.705  0.0978  0.2003  0.0365
 1478W        W 3678  11.327   1.158   2.096 -0.0342  0.1685  0.3032
 1479W        W 3679   5.769   1.596   8.262 -0.1767 -0.0257  0.2033
 1480W        W 3680   7.887   6.157  20.393  0.0619  0.0218 -0.1538
 1481W        W 3681   5.167   0.335   7.556 -0.0619 -0.0763  0.0954
 1482W        W 3682   7.221   1.523   0.462  0.2951  0.2417  0.0118
 1483W        W 3683  18.884   3.782  25.949  0.1563  0.1598 -0.3411
 1484W        W 3684   0.281   5.020   3.590 -0.1007 -0.2501 -0.1312
 1485W        W 3685  12.545   6.906   6.337 -0.1854 -0.2541  0.1189
 1486W        W 3686  23.772   6.539   4.133  0.0656  0.0521 -0.0257
 1487W        W 3687  18.654   2.759  16.779  0.2769 -0.0681 -0.1056
 1488W        W 3688  15.461   7.723   1.428  0.2152  0.0086 -0.1604
 1489W        W 3689  26.206   6.566  20.991 -0.2545  0.2026 -0.2357
 1490W        W 3690  16.436   5.404  21.378  0.3520 -0.2613  0.0529
 1491W        W 3691  16.665   0.906   4.067 -0.3390  0.0847  0.0283
 1492W        W 3692   2.923   4.808  21.780 -0.1276 -0.0439  0.0715
 1493W        W 3693  25.415   4.596  14.893  0.0578  0.1996  0.0310
 1494W        W 3694  25.548   0.465   3.943 -0.2566 -0.1819 -0.1399
 1495W        W 3695  25.806   6.282  11.088  0.1433 -0.1518  0.0695
 1496W        W 3696  30.793   4.456   7.653 -0.1029 -0.2929  0.0400
 1497W        W 3697  23.490   2.062  17.971 -0.2186  0.0895  0.0639
 1498W        W 3698  24.275   5.669   9.572 -0.0097 -0.0017 -0.1245
 1499W        W 3699  18.138   3.299   9.205 -0.1844 -0.1633 -0.2312
 1500W        W 3700   5.995   6.201   5.760 -0.2925  0.3093  0.0364
 1501W        W 3701   1.166   4.725  20.797  0.1716 -0.1806 -0.0108
 1502W        W 3702   2.368   3.460  10.171  0.1965  0.0807  0.0584
 1503W        W 3703   3.975   7.740   0.935 -0.1453  0.0258 -0.1022
 1504W        W 3704  12.754   7.155   5.352 -0.1482 -0.2473  0.1924
 1505W        W 3705  16.502   0.169  19.425  0.1075  0.1434 -0.1243
 1506W        W 3706  16.187   2.409  20.203  0.1806  0.0767 -0.0923
 1507W        W 3707   2.645   2.522  10.298  0.2136 -0.1035 -0.0821
 1508W        W 3708  23.292   0.732   8.305  0.2579  0.1210 -0.3128
 1509W        W 3709   4.619   0.773   4.415  0.2082 -0.2849  0.3085
 1510W        W 3710   6.259   1.208  23.744 -0.1047 -0.2467  0.3228
 1511W        W 3711  19.784   1.816  18.299  0.1145  0.0922  0.2301
 1512W        W 3712  18.864   6.366  17.163  0.1409 -0.1579 -0.1593
 1513W        W 3713  27.496   0.154  19.384 -0.1571 -0.0941 -0.3888
 1514W        W 3714  27.274   7.643  23.369  0.0566 -0.1923 -0.1052
 1515W        W 3715  27.009   7.096  22.622  0.0970 -0.3248  0.0465
 1516W        W 3716  18.453   4.085  15.564  0.2333  0.2868  0.2085
 1517W        W 3717  17.126   5.378   2.303 -0.1768 -0.0239 -0.1516
 1518W        W 3718  20.164   7.226   5.083 -0.0153 -0.1732  0.2315
 1519W        W 3719  19.028   2.251  21.362  0.2191 -0.1087 -0.0092
 1520W        W 3720  22.019   4.821  19.095 -0.0680 -0.0253  0.0791
 1521W        W 3721  18.424   7.725   8.660 -0.0914  0.0280  0.0643
 1522W        W 3722   0.279   7.491  20.340  0.1537  0.1296 -0.3186
 1523W        W 3723  28.356   2.325   1.984  0.1420  0.2117 -0.0888
 1524W        W 3724   8.012   6.370   8.580  0.4231  0.0775 -0.0792
 1525W        W 3725   7.817   4.490  22.609  0.2236 -0.3651  0.1110
 1526W        W 3726  24.390   7.723   5.005 -0.1703  0.2704  0.3543
 1527W        W 3727   4.485   6.357  11.016  0.0722 -0.2046 -0.1182
 1528W        W 3728  20.706   1.248   1.415 -0.3376  0.0289  0.1155
 1529W        W 3729   2.527   5.604  25.903  0.0934 -0.1242 -0.0350
 1530W        W 3730   1.525   6.492  17.904 -0.1432 -0.0964 -0.0174
 1531W        W 3731   3.821   4.230  24.823 -0.2115  0.3269 -0.1111
 1532W        W 3732  15.178   2.124   6.905  0.1588  0.2676  0.1193
 1533W        W 3733   7.412   3.967  20.202 -0.1300  0.1115  0.2798
 1534W        W 3734  19.451   2.462   5.164  0.0146 -0.0411 -0.0460
 1535W        W 3735  27.020   6.955   5.481  0.1330 -0.2133  0.2756
 1536W        W 3736   0.843   5.338   8.086 -0.2517  0.1148  0.2428
 1537W        W 3737  28.011   0.563   9.810 -0.0335  0.0615 -0.2702
 1538W        W 3738  19.840   3.136   4.752  0.3308 -0.0297 -0.0821
 1539W        W 3739  10.256   0.952  21.327 -0.2336 -0.3185  0.0349
 1540W        W 3740  25.601   1.548   9.898 -0.0761 -0.2957 -0.1706
 1541W        W 3741  17.040   7.035  16.868  0.0913  0.1447  0.0817
 1542W        W 3742   4.074   1.445   6.092  0.0736 -0.0954  0.1236
 1543W        W 3743   0.796   4.115  20.074 -0.0177  0.2934  0.0882
 1544W        W 3744  21.665   0.699   1.524 -0.0997  0.0645  0.2521
 1545W        W 3745  29.020   6.727   1.928  0.2232  0.2916 -0.0770
 1546W        W 3746   3.226   3.725  10.682 -0.2169 -0.0076  0.2101
 1547W        W 3747  27.763   5.106  10.698 -0.0704 -0.0146  0.0982
 1548W        W 3748   7.484   5.115  19.430 -0.1365  0.2721  0.1929
 1549W        W 3749  19.328   4.983   2.521  0.0685 -0.0748 -0.1914
 1550W        W 3750  13.535   3.067  18.171 -0.1957  0.1337 -0.2374
 1551W        W 3751   6.237   2.964  21.750  0.0727 -0.3663 -0.1979
 1552W        W 3752  16.665   5.367   8.799  0.0534  0.2412  0.1033
 1553W        W 3753  26.911   6.439  17.285 -0.1123  0.1447  0.1566
 1554W        W 3754   3.699   6.759   1.517 -0.0557 -0.1783  0.0304
 1555W        W 3755   0.722   5.076  18.024  0.1921  0.0989  0.0681
 1556W        W 3756  22.470   0.371   1.770 -0.0458 -0.0126 -0.1485
 1557W        W 3757  30.197   5.750   4.906 -0.2298  0.0585 -0.0135
 1558W        W 3758   2.812   7.336   3.069 -0.0834  0.0280 -0.1894
 1559W        W 3759   8.188   6.194  25.181  0.2092  0.0864 -0.1227
 1560W        W 3760  17.159   1.601  16.329 -0.0253  0.1290  0.0731
 1561W        W 3761  21.796   4.801  24.021  0.0638 -0.0863 -0.1327
 1562W        W 3762   6.554   0.360  18.912 -0.0973 -0.1794  0.2384
 1563W        W 3763   1.939   3.851  21.752 -0.1023  0.3300 -0.1031
 1564W        W 3764  12.578   4.974   5.257  0.1119 -0.2172 -0.1164
 1565W        W 3765  29.078   5.310   0.732 -0.1991 -0.1502  0.2674
 1566W        W 3766  23.966   5.664   3.681 -0.0911  0.1213 -0.0085
 1567W        W 3767  18.067   1.929   0.118  0.0305 -0.1440  0.0702
 1568W        W 3768   9.628   4.586  24.932 -0.4866 -0.0510 -0.0750
 1569W        W 3769   7.847   4.740   8.430 -0.3155 -0.0279 -0.1902
 1570W        W 3770  17.089   3.300   1.078  0.0285 -0.0526 -0.2029
 1571W        W 3771   4.448   1.104   7.298  0.0848  0.1331 -0.4168
 1572W        W 3772  10.205   1.302  25.067  0.3475 -0.0200  0.2598
 1573W        W 3773   8.830   2.968   7.999  0.0955  0.2813 -0.1237
 1574W        W 3774  22.585   2.729  22.292  0.2630 -0.0392 -0.1108
 1575W        W 3775   5.998   5.606   0.977 -0.1764  0.1249  0.1167
 1576W        W 3776  27.191   0.612   6.653 -0.1186 -0.0658 -0.1959
 1577W        W 3777  11.911   1.064  15.528 -0.1310 -0.1684 -0.1299
 1578W        W 3778  23.544   0.445   0.074  0.0660  0.1400  0.2953
 1579W        W 3779  23.496   2.578  21.413 -0.1526  0.1614  0.0004
 1580W        W 3780   3.989   2.602  24.945  0.0567 -0.5008  0.0496
 1581W        W 3781  20.400   0.446  23.910  0.3628  0.1596 -0.1104
 1582W        W 3782  24.694   1.175   8.637 -0.3345 -0.0178  0.0656
 1583W        W 3783  23.669   3.240   9.702  0.0384 -0.0402 -0.0797
 1584W        W 3784  19.802   1.718  25.349  0.1896  0.1740  0.0449
 1585W        W 3785  21.946   3.786  25.892 -0.0506  0.3995 -0.3719
 1586W        W 3786   6.622   3.222  23.369  0.4851  0.1172  0.0676
 1587W        W 3787   6.768   7.621  23.408  0.0534  0.0736 -0.0291
 1588W        W 3788  29.850   4.507  23.844  0.4437  0.0165  0.4041
 1589W        W 3789  25.456   6.801   4.765  0.0810 -0.0282 -0.3398
 1590W        W 3790   6.001   1.694   5.678  0.1216 -0.0775 -0.0731
 1591W        W 3791  31.178   1.608   8.856 -0.1923  0.1061  0.1620
 1592W        W 3792  28.647   2.589   0.434  0.0749  0.2036 -0.0757
 1593W        W 3793  31.102   2.412  18.338 -0.0532 -0.3615  0.3001
 1594W        W 3794  17.316   0.323  21.093  0.4792 -0.1226 -0.0706
 1595W        W 3795  30.108   2.993  16.721 -0.0383 -0.1875 -0.0119
 1596W        W 3796  22.885   4.680  19.314 -0.1897 -0.3211  0.1513
 1597W        W 3797   4.913   0.278  17.310  0.1194  0.3175 -0.0662
 1598W        W 3798  10.657   5.911   7.150  0.0307  0.1506 -0.1439
 1599W        W 3799  19.236   5.340   6.910 -0.2185 -0.1263  0.1330
 1600W        W 3800   0.471   2.094   5.310 -0.0524  0.3086  0.2517
 1601W        W 3801   0.643   0.124  24.680  0.0860 -0.1581  0.1000
 1602W        W 3802  28.082   7.350  23.549  0.2119  0.0701 -0.0258
 1603W        W 3803  24.890   6.690  20.197  0.0449 -0.0693 -0.0446
 1604W        W 3804  31.082   3.387  11.540  0.0037  0.0308  0.1106
 1605W        W 3805   2.348   3.403   8.227  0.0095 -0.1226  0.0686
 1606W        W 3806  27.531   2.313   7.280  0.2503 -0.0987  0.0396
 1607W        W 3807  22.373   1.707  23.851  0.1192  0.0214  0.1105
 1608W        W 3808  12.899   5.814  25.118 -0.0561 -0.2667  0.1482
 1609W        W 3809   3.770   4.641  11.104 -0.2967 -0.0443 -0.1687
 1610W        W 3810  10.960   4.528  21.378 -0.0854 -0.0803 -0.1784
 1611W        W 3811  11.178   0.245  18.626 -0.0919  0.1416  0.1787
 1612W        W 3812   3.254   5.948  19.852 -0.0046 -0.1251  0.2572
 1613W        W 3813  27.544   5.129   0.630 -0.2835 -0.0042 -0.1138
 1614W        W 3814   6.845   4.316   9.664 -0.2363  0.1444 -0.0915
 1615W        W 3815   4.933   1.167   5.597  0.0998 -0.4473  0.2421
 1616W        W 3816  31.031   3.347  25.792 -0.0318  0.2086  0.3593
 1617W        W 3817  12.702   2.102   1.339 -0.0036 -0.2196 -0.0803
 1618W        W 3818   1.487   2.071  17.333  0.1011 -0.0023 -0.1270
 1619W        W 3819  22.379   3.376   9.116 -0.1903  0.1138 -0.2364
 1620W        W 3820  12.351   6.484  16.779  0.0614  0.0817  0.2674
 1621W        W 3821   8.248   7.742   5.811 -0.1138 -0.1916  0.3781
 1622W        W 3822  24.777   4.363   5.755 -0.2229  0.0588  0.0867
 1623W        W 3823  27.270   4.279   9.267  0.4437 -0.0213 -0.4701
 1624W        W 3824   6.665   0.569   6.017  0.0901 -0.0968  0.1934
 1625W        W 3825   5.038   3.384  21.082  0.0879  0.0013  0.0163
 1626W        W 3826  25.976   0.909  18.017 -0.1454  0.1423  0.0172
 1627W        W 3827   2.714   0.138  22.918  0.3826 -0.0680 -0.3782
 1628W        W 3828   6.868   7.557  20.854 -0.1655  0.1181 -0.1200
 1629W        W 3829  11.300   5.786  20.134  0.1221  0.0357  0.1328
 1630W        W 3830  23.805   7.551   1.634  0.2426  0.0102  0.1770
 1631W        W 3831   5.575   2.080  21.213  0.0371 -0.0035 -0.1857
 1632W        W 3832  23.688   0.204   7.020  0.0136 -0.4429 -0.0425
 1633W        W 3833  10.103   4.064   6.685  0.0220 -0.0327  0.1555
 1634W        W 3834   6.951   4.277   0.365 -0.0435  0.0158  0.0222
 1635W        W 3835  15.883   5.082   0.418  0.0301 -0.1253 -0.0829
 1636W        W 3836   7.131   2.568  25.042 -0.1285  0.2177 -0.0557
 1637W        W 3837   4.106   0.551   4.294 -0.3271  0.4055  0.2282
 1638W        W 3838  12.330   3.699   3.007  0.0488  0.0348  0.1469
 1639W        W 3839   9.071   1.904  25.784  0.0380  0.3917 -0.1093
 1640W        W 3840  26.084   3.292   1.629  0.0106 -0.2307 -0.1064
 1641W        W 3841   1.942   0.864   4.175  0.0049  0.1684  0.2942
 1642W        W 3842   5.938   6.627   6.074  0.1268  0.1987  0.1206
 1643W        W 3843  23.577   2.721   6.288 -0.0959  0.0106 -0.1835
 1644W        W 3844  10.199   3.797  22.808  0.1374  0.1229 -0.1953
 1645W        W 3845  16.248   0.075   1.821 -0.0183 -0.0590  0.0445
 1646W        W 3846  15.643   3.988   2.689 -0.3435  0.0153  0.0811
 1647W        W 3847  31.195   0.341  15.571  0.0856  0.3096 -0.0443
 1648W        W 3848  31.189   5.370   3.661  0.1271  0.2140 -0.0233
 1649W        W 3849  25.980   7.259   1.230 -0.0172  0.2478  0.0696
 1650W        W 3850  19.198   5.044   1.832 -0.2013 -0.0529  0.2878
 1651W        W 3851  14.323   7.756   5.938 -0.0945  0.0098 -0.4919
 1652W        W 3852   3.881   2.398  10.883  0.3523  0.1797 -0.0181
 1653W        W 3853  22.200   6.581  17.075  0.2001 -0.0896 -0.0904
 1654W        W 3854   7.582   4.622  15.744 -0.0391  0.1372 -0.0174
 1655W        W 3855   1.560   1.972   7.165  0.2203  0.0619  0.1338
 1656W        W 3856  17.347   6.349  18.509  0.0131  0.3044 -0.0642
 1657W        W 3857   5.216   4.888  23.892 -0.0619  0.1237 -0.1855
 1658W        W 3858   6.333   5.191   5.527 -0.1753 -0.1655 -0.1440
 1659W        W 3859  25.459   3.888  17.954 -0.0516 -0.0209 -0.4966
 1660W        W 3860  18.639   2.578   9.252  0.0399 -0.2502 -0.0339
 1661W        W 3861  18.810   1.451   5.314  0.0124 -0.2056  0.1437
 1662W        W 3862  20.958   3.248  25.508 -0.4094 -0.0762 -0.0111
 1663W        W 3863  24.495   0.840   5.137 -0.0394  0.1034 -0.0955
 1664W        W 3864  17.691   7.795   4.695  0.1952  0.1181 -0.0305
 1665W        W 3865  15.600   2.339   4.536  0.0648  0.2940  0.0263
 1666W        W 3866  20.717   2.806   2.296 -0.2304  0.0778 -0.3490
 1667W        W 3867  12.012   1.902   6.403  0.3051 -0.0028  0.0369
 1668W        W 3868  16.217   4.713  17.311  0.0387  0.1345  0.1457
 1669W        W 3869  22.745   7.473   9.164 -0.0927  0.1274 -0.1702
 1670W        W 3870  23.825   1.480   8.970  0.1578 -0.3012  0.0731
 1671W        W 3871  29.746   3.749   9.956 -0.0708 -0.3368  0.1823
 1672W        W 3872  11.502   2.787  25.491 -0.2117  0.1511 -0.0653
 1673W        W 3873  17.736   3.335   5.711  0.1982  0.3714  0.1722
 1674W        W 3874  16.796   0.306  22.114 -0.1231  0.2926  0.0040
 1675W        W 3875   8.734   6.940  15.580 -0.2049  0.1074 -0.1229
 1676W        W 3876   9.531   1.470  17.288 -0.0653 -0.0056 -0.1920
 1677W        W 3877  10.621   1.060  24.866  0.0879 -0.0215  0.0642
 1678W        W 3878  10.351   0.836  16.304  0.2214 -0.0319  0.0675
 1679W        W 3879   0.823   3.527  25.034  0.1994 -0.1361 -0.1147
 1680W        W 3880   4.143   6.632   5.655 -0.1260  0.1378  0.0932
 1681W        W 3881  17.740   5.610   6.442 -0.1278 -0.0127  0.0392
 1682W        W 3882  14.096   0.680  16.221  0.1909 -0.4571 -0.1631
 1683W        W 3883  23.669   7.485   2.124  0.2164  0.0404 -0.0476
 1684W        W 3884  21.609   1.969   1.305  0.0258  0.2994 -0.1155
 1685W        W 3885  25.867   1.603  25.503  0.0206 -0.0941 -0.0943
 1686W        W 3886   2.037   0.562   7.194 -0.0779 -0.4630  0.0260
 1687W        W 3887   1.831   4.848  25.508 -0.0390 -0.0402  0.2108
 1688W        W 3888   7.383   3.045   0.885  0.2592  0.1411 -0.0298
 1689W        W 3889   9.574   1.183   8.576  0.0140 -0.1622  0.3354
 1690W        W 3890  22.677   6.346   3.914  0.2601  0.1645  0.0679
 1691W        W 3891  27.996   5.537   0.723  0.2154 -0.0634 -0.0474
 1692W        W 3892  21.731   2.319  16.934 -0.0826 -0.1398  0.0740
 1693W        W 3893  30.404   6.546  18.073 -0.0598 -0.3309  0.1003
 1694W        W 3894  18.266   6.688  16.465  0.0405 -0.0267 -0.2428
 1695W        W 3895  14.046   0.572   1.685  0.0606  0.0733  0.3579
 1696W        W 3896   6.029   5.412   4.136 -0.1592 -0.1086 -0.2534
 1697W        W 3897  24.630   2.030  21.325  0.3487  0.1809 -0.2853
 1698W        W 3898  21.433   6.123  10.538 -0.1657  0.1556 -0.4018
 1699W        W 3899  28.603   3.079   7.617 -0.0348 -0.0377 -0.3104
 1700W        W 3900  29.366   6.870   2.664  0.5456  0.1464  0.1424
 1701W        W 3901  19.238   3.911  21.822  0.0015  0.1728 -0.2482
 1702W        W 3902  31.204   1.157   9.172 -0.2370  0.0408 -0.2147
 1703W        W 3903  21.185   7.521  19.511 -0.1540 -0.2052 -0.1246
 1704W        W 3904   1.625   0.995  24.959  0.0727 -0.2776 -0.3826
 1705W        W 3905  30.913   1.698  24.150 -0.0805 -0.1788 -0.0128
 1706W        W 3906   5.705   3.608  17.765 -0.0935 -0.0650  0.0450
 1707W        W 3907   1.965   7.507   3.498 -0.0644  0.0927  0.0944
 1708W        W 3908  27.909   0.637  25.556  0.1456  0.1820  0.1676
 1709W        W 3909   1.159   3.094   6.340 -0.0272  0.0610 -0.0997
 1710W        W 3910  12.678   4.156  10.336 -0.2805 -0.0512 -0.3146
 1711W        W 3911  22.659   4.638   8.984  0.0816 -0.0032 -0.0277
 1712W        W 3912  20.814   5.526   0.919  0.1883  0.2475 -0.0299
 1713W        W 3913  14.639   5.794   3.482 -0.1305 -0.3830  0.3643
 1714W        W 3914   4.106   0.701   0.123  0.0514 -0.1164  0.0494
 1715W        W 3915  12.951   0.406  17.760  0.0568 -0.0572 -0.0196
 1716W        W 3916  20.506   2.758  18.551 -0.2796 -0.0537 -0.0503
 1717W        W 3917  11.917   2.313   8.584  0.0768  0.1460 -0.4601
 1718W        W 3918  14.579   4.191  20.631  0.0040  0.1219 -0.0407
 1719W        W 3919  16.070   3.918  21.491  0.0329 -0.0857 -0.2530
 1720W        W 3920   4.882   1.509  18.999 -0.1707  0.1630  0.0977
 1721W        W 3921  11.179   3.252   1.608  0.1029  0.1934 -0.0086
 1722W        W 3922   4.692   6.016  16.444 -0.1119 -0.3372  0.0657
 1723W        W 3923  10.553   0.680   0.509  0.1306 -0.0305 -0.0417
 1724W        W 3924  31.009   6.778   9.648 -0.0455  0.0079 -0.0395
 1725W        W 3925  12.655   4.881  23.257 -0.1332  0.0180  0.0536
 1726W        W 3926  12.845   3.437   4.022 -0.1731  0.4140 -0.0799
 1727W        W 3927  15.003   1.810   0.991 -0.0031  0.1366  0.0974
 1728W        W 3928  29.509   2.368  20.529  0.3744  0.1680 -0.1846
 1729W        W 3929  21.107   2.912  21.749  0.1444 -0.0062  0.0382
 1730W        W 3930  18.039   6.381   6.975  0.1358 -0.2142  0.1400
 1731W        W 3931  27.768   5.468   2.656  0.0234  0.0821  0.0981
 1732W        W 3932  21.779   6.020  18.405  0.1607 -0.0864  0.0889
 1733W        W 3933  28.509   1.828  24.863 -0.0790 -0.0147 -0.1390
 1734W        W 3934  25.084   5.755  19.410  0.1400  0.0096  0.3091
 1735W        W 3935  27.503   7.565   2.645  0.0211 -0.2926 -0.1991
 1736W        W 3936  28.245   4.601  22.431  0.0505 -0.1256 -0.0036
 1737W        W 3937  17.789   0.876   7.676  0.1298  0.0706  0.1416
 1738W        W 3938  15.221   4.487  16.593  0.2478 -0.2637 -0.3172
 1739W        W 3939  28.105   0.339  20.435 -0.2158 -0.0993 -0.0378
 1740W        W 3940   6.179   4.378  17.137 -0.0581  0.1382  0.2423
 1741W        W 3941  21.595   2.452   6.097  0.0247 -0.0577  0.2037
 1742W        W 3942  30.181   4.020  19.648 -0.2695 -0.0178  0.1017
 1743W        W 3943  22.468   3.793   1.565  0.0415  0.0125 -0.0933
 1744W        W 3944  18.676   3.573  17.598 -0.2670  0.0344 -0.0032
 1745W        W 3945  30.690   6.141  18.387  0.0242 -0.1011 -0.0811
 1746W        W 3946   6.075   5.773  18.110  0.0154 -0.0965 -0.3132
 1747W        W 3947  22.101   6.814  16.456  0.0634  0.2093  0.0410
 1748W        W 3948  22.425   0.070   0.004 -0.1455 -0.1480 -0.1266
 1749W        W 3949  20.354   1.614  15.664 -0.1733  0.0688  0.0557
 1750W        W 3950  25.275   5.661   7.594 -0.3564  0.2258  0.3540
 1751W        W 3951  29.754   5.720  10.095  0.0464  0.0036 -0.3182
 1752W        W 3952   3.769   6.319   4.354  0.0775 -0.0476  0.0404
 1753W        W 3953   2.314   0.512   4.069 -0.0086 -0.2120  0.0879
 1754W        W 3954   5.791   0.185  10.398  0.1356 -0.1760 -0.1797
 1755W        W 3955   0.133   2.971   3.966  0.0646 -0.0098  0.0209
 1756W        W 3956   6.363   0.768   1.930  0.2266 -0.0401  0.0299
 1757W        W 3957   7.337   1.242  17.729  0.1070 -0.3931  0.5171
 1758W        W 3958  30.613   2.040   5.997  0.2056  0.2210 -0.1153
 1759W        W 3959   3.341   0.440   7.072  0.2991 -0.2618  0.0249
 1760W        W 3960  16.796   4.080  16.348 -0.5045 -0.0248 -0.0285
 1761W        W 3961   1.822   0.833  22.058  0.0155 -0.1578 -0.0173
 1762W        W 3962  25.898   0.573  25.509 -0.1786 -0.0915 -0.1243
 1763W        W 3963   1.889   7.496  25.427  0.1267  0.2138  0.1011
 1764W        W 3964   3.799   2.015  24.215  0.2301  0.1532  0.0892
 1765W        W 3965  19.176   7.495  19.775  0.1448  0.1791 -0.1390
 1766W        W 3966  23.144   7.739  18.064 -0.1194 -0.1651 -0.3588
 1767W        W 3967  24.648   1.225  25.124 -0.3728  0.0728 -0.0931
 1768W        W 3968  20.450   5.243  25.476 -0.1460  0.1037 -0.0736
 1769W        W 3969  30.199   1.636  21.432  0.0176  0.1269  0.0565
 1770W        W 3970  11.386   6.750   2.713 -0.1022 -0.3106  0.2814
 1771W        W 3971  30.958   5.652   9.274 -0.0141  0.4583  0.1455
 1772W        W 3972  18.186   4.205  17.789 -0.1020 -0.1492  0.2387
 1773W        W 3973  19.710   6.039   4.650  0.0056 -0.1003  0.0720
 1774W        W 3974  21.071   6.263  16.444  0.0226  0.1236 -0.3098
 1775W        W 3975  27.628   0.520  22.808 -0.3078 -0.0160  0.1496
 1776W        W 3976  19.210   2.400   6.352 -0.2941 -0.0927  0.0818
 1777W        W 3977   1.682   6.943  18.146  0.0103 -0.0084 -0.0769
 1778W        W 3978  22.169   5.648  18.216  0.2342  0.0228  0.2099
 1779W        W 3979  17.866   5.886  21.349  0.0820 -0.0501  0.1120
 1780W        W 3980   0.429   5.221   9.070 -0.2083  0.1250  0.3077
 1781W        W 3981  23.117   5.551  23.088 -0.1004 -0.1154 -0.1909
 1782W        W 3982  22.035   3.986  25.233 -0.2825 -0.1361  0.0396
 1783W        W 3983  10.570   5.650  19.858 -0.0771  0.1866  0.0761
 1784W        W 3984  12.857   2.049   3.021 -0.2790  0.0684  0.0401
 1785W        W 3985  29.598   1.697  18.759 -0.4126 -0.1861  0.0700
 1786W        W 3986  24.405   2.507   6.766  0.1474 -0.1761 -0.3302
 1787W        W 3987  16.356   3.715  19.903 -0.0906  0.3325  0.2649
 1788W        W 3988  29.242   1.396   0.335 -0.1363 -0.1490 -0.0721
 1789W        W 3989   6.741   7.770  10.168 -0.2594  0.1424 -0.1622
 1790W        W 3990   5.053   6.325   2.242 -0.0869 -0.0859 -0.1702
 1791W        W 3991  15.157   3.045  17.065  0.4833 -0.0618 -0.2105
 1792W        W 3992  24.087   3.707  15.969  0.3497  0.1549  0.0588
 1793W        W 3993  19.671   5.827   1.708 -0.2008 -0.1041  0.0145
 1794W        W 3994  25.482   0.746  24.217 -0.0858  0.0813 -0.2568
 1795W        W 3995  14.286   4.235   4.003  0.1508  0.1110  0.0331
 1796W        W 3996  25.180   5.593   6.260 -0.0509  0.0619  0.3655
 1797W        W 3997  30.120   6.833  24.029 -0.1253 -0.2436 -0.1698
 1798W        W 3998  30.535   4.537  19.051  0.0339  0.2716 -0.0540
 1799W        W 3999   9.950   7.549  25.226 -0.0228 -0.0147 -0.1109
 1800W        W 4000   4.977   5.865   4.729 -0.1208 -0.0373 -0.1747
 1801W        W 4001   7.116   3.232   1.220  0.0071 -0.0794  0.0204
 1802W        W 4002   7.864   0.828   8.395  0.0709  0.0344 -0.1443
 1803W        W 4003  20.489   6.346  24.698 -0.0472  0.0009  0.0345
 1804W        W 4004   0.153   2.897   0.828 -0.0998 -0.1753  0.0330
 1805W        W 4005  24.328   7.735  26.065  0.3631  0.0270 -0.0448
 1806W        W 4006  30.173   6.356  25.736 -0.2985 -0.2079 -0.3578
 1807W        W 4007  24.982   2.435  19.391 -0.0880  0.0502 -0.2528
 1808W        W 4008  27.484   1.565  26.147  0.0510 -0.2442 -0.0621
 1809W        W 4009   2.424   0.236  20.597 -0.2895  0.2381  0.1110
 1810W        W 4010   4.892   0.923   7.519  0.1000 -0.1564  0.0850
 1811W        W 4011  27.874   5.029  23.536 -0.0206  0.1431 -0.0291
 1812W        W 4012  28.923   7.809   2.888  0.4329 -0.2147  0.0028
 1813W        W 4013  27.218   4.801   0.430  0.0273  0.1176  0.1883
 1814W        W 4014  25.566   1.648  16.944 -0.2338  0.1642  0.1016
 1815W        W 4015  31.166   3.701   3.414 -0.1352  0.1376  0.2002
 1816W        W 4016  31.062   5.557   0.988  0.0826  0.0504  0.0091
 1817W        W 4017   5.582   2.095  18.238 -0.0242 -0.1511  0.1325
 1818W        W 4018  30.115   4.432  18.610 -0.1422 -0.1171 -0.1468
 1819W        W 4019  22.097   5.186   0.371  0.1369  0.0307 -0.1914
 1820W        W 4020  29.282   1.903  20.497  0.1652  0.0882  0.2056
 1821W        W 4021  28.907   5.350  17.275  0.1411  0.4396  0.0770
 1822W        W 4022   6.218   0.991  22.897  0.0839  0.0752 -0.2377
 1823W        W 4023  12.556   4.333   3.703  0.2178 -0.1262 -0.0047
 1824W        W 4024  20.980   2.128   1.791 -0.0408 -0.0547  0.0160
 1825W        W 4025   0.385   0.889   8.943 -0.0638 -0.0165  0.3446
 1826W        W 4026  23.554   7.680   5.272 -0.1354 -0.3472  0.1376
 1827W        W 4027  27.036   0.486   7.543  0.0701  0.2414 -0.2093
 1828W        W 4028  12.300   5.193   7.580  0.1559  0.0606  0.0731
 1829W        W 4029  23.079   2.833   8.709  0.0243  0.0583  0.1059
 1830W        W 4030  29.066   0.149  26.125  0.2089  0.0792 -0.2827
 1831W        W 4031   7.522   0.029  25.668  0.1341 -0.1163 -0.1802
 1832W        W 4032  26.690   7.526   0.532 -0.0779 -0.2822  0.1538
 1833W        W 4033   7.541   2.501   9.083  0.1762 -0.0748  0.1101
 1834W        W 4034  15.494   5.446   9.055 -0.2350  0.1450  0.0392
 1835W        W 4035  15.459   3.150  23.763  0.0508 -0.0282  0.1653
 1836W        W 4036  10.628   6.954  15.875  0.0481 -0.1009 -0.0332
 1837W        W 4037  27.693   2.982  16.514 -0.3639  0.0605 -0.2119
 1838W        W 4038   8.258   2.231  24.841  0.0104  0.1119  0.1273
 1839W        W 4039  22.277   4.301  10.154 -0.0504  0.0303  0.0933
 1840W        W 4040   0.006   4.893   6.833 -0.2250 -0.0767  0.1692
 1841W        W 4041  12.859   0.238   8.247 -0.1357  0.0488 -0.1770
 1842W        W 4042  22.431   3.386   0.373 -0.3211 -0.0277 -0.2829
 1843W        W 4043  17.296   0.849   0.582 -0.1160  0.0249  0.1558
 1844W        W 4044  10.019   4.689   4.039  0.1489  0.1865 -0.0253
 1845W        W 4045  11.570   1.556   8.363  0.1230 -0.1337 -0.2795
 1846W        W 4046  10.998   0.954   4.269 -0.3861  0.4742 -0.0412
 1847W        W 4047   8.819   1.562  24.677  0.1345 -0.0377  0.1481
 1848W        W 4048   6.300   1.418  21.179 -0.0983  0.1319  0.0530
 1849W        W 4049   5.951   5.713   9.583 -0.0193 -0.0700  0.2825
 1850W        W 4050  11.126   0.540  17.307  0.1493  0.1292 -0.2297
 1851W        W 4051  21.262   0.839  17.683 -0.1657  0.0894 -0.1714
 1852W        W 4052   8.790   2.062   2.820  0.1675 -0.1597  0.1660
 1853W        W 4053  15.843   1.478  21.666  0.2696 -0.1979 -0.0453
 1854W        W 4054   6.811   7.393  25.065  0.0507 -0.2611 -0.0971
 1855W        W 4055   6.084   5.537   6.093 -0.1645  0.0236  0.0929
 1856W        W 4056  24.341   1.092  19.691 -0.2804 -0.0045  0.0173
 1857W        W 4057  17.042   2.119  17.625  0.0366 -0.0788  0.3409
 1858W        W 4058  23.143   3.899   3.270 -0.2269 -0.2407 -0.3337
 1859W        W 4059   7.546   6.781  25.021  0.1088  0.0970 -0.0044
 1860W        W 4060   6.881   4.995  22.270  0.4176  0.2243 -0.0163
 1861W        W 4061  20.409   5.905   1.683 -0.1789  0.0151 -0.2341
 1862W        W 4062   1.071   5.493  20.724 -0.0210 -0.1864 -0.0500
 1863W        W 4063  29.736   2.223   2.610 -0.0709 -0.0627 -0.1458
 1864W        W 4064  22.004   3.862   3.020 -0.0841  0.0472  0.0713
 1865W        W 4065  22.893   6.984  25.665  0.0865  0.1614  0.1701
 1866W        W 4066  23.881   6.832   4.626  0.3398 -0.0342 -0.0085
 1867W        W 4067  27.992   3.571   6.155 -0.1320  0.2161 -0.0530
 1868W        W 4068   9.972   2.143  20.654 -0.1993  0.0828 -0.1025
 1869W        W 4069   5.294   0.775  18.908  0.1181  0.2079 -0.2022
 1870W        W 4070  15.556   4.078  24.762  0.3517  0.0724  0.1170
 1871W        W 4071  27.332   0.937   3.669 -0.0960  0.2116  0.0091
 1872W        W 4072   7.929   7.130  10.330  0.3382  0.1105  0.2430
 1873W        W 4073  14.553   2.034  17.238  0.2338  0.0855 -0.1912
 1874W        W 4074  19.784   0.702  24.015 -0.0133  0.0454  0.0961
 1875W        W 4075  28.250   7.356  21.861  0.1136 -0.2720 -0.1163
 1876W        W 4076   4.698   2.441  15.308  0.1543 -0.0823 -0.0516
 1877W        W 4077   0.934   6.544  23.270 -0.1633  0.2246  0.0795
 1878W        W 4078  12.901   5.874   7.816  0.0416 -0.0405  0.1628
 1879W        W 4079   9.280   1.600  22.046  0.0449  0.3364  0.0166
 1880W        W 4080   8.039   3.336   0.580 -0.0013  0.4089  0.1828
 1881W        W 4081  20.523   3.709  19.241 -0.1993  0.2996 -0.1375
 1882W        W 4082  30.733   5.378   0.698 -0.0525  0.0325 -0.1468
 1883W        W 4083  22.703   3.489  21.606  0.1983  0.2227  0.1506
 1884W        W 4084   9.955   1.377   3.218 -0.5506 -0.1333 -0.0488
 1885W        W 4085  16.359   0.125  17.129  0.0793 -0.0290  0.2329
 1886W        W 4086  29.317   2.180  16.198 -0.1505  0.2905 -0.2595
 1887W        W 4087  15.785   6.059   6.701  0.0041 -0.1716  0.5114
 1888W        W 4088  26.723   2.819   2.832  0.0852 -0.0995 -0.2225
 1889W        W 4089   2.983   4.701  24.787  0.2127  0.1066  0.0639
 1890W        W 4090  21.116   0.857  24.005 -0.1392 -0.1615 -0.0434
 1891W        W 4091   0.927   4.256   2.326 -0.1006  0.0889 -0.1523
 1892W        W 4092  12.205   6.456  24.789  0.1199 -0.1091  0.1234
 1893W        W 4093  15.226   7.175  15.058  0.1740 -0.0020 -0.0058
 1894W        W 4094  30.780   3.202  20.011  0.0998 -0.3007  0.0613
 1895W        W 4095   7.356   4.415   1.226 -0.0248  0.0933 -0.1197
 1896W        W 4096  30.256   7.285  16.437  0.0303 -0.2562 -0.2764
 1897W        W 4097   3.025   5.191   0.975 -0.0466 -0.2910  0.1247
 1898W        W 4098  26.966   3.538  10.514 -0.0336  0.0861 -0.1063
 1899W        W 4099  16.896   2.022  24.140  0.2128  0.1988 -0.0367
 1900W        W 4100  25.362   4.389  22.518 -0.1373 -0.2894 -0.0010
 1901W        W 4101   2.037   5.402  25.688 -0.0605  0.1905  0.0189
 1902W        W 4102  16.151   2.852   2.729 -0.1225  0.2233  0.2002
 1903W        W 4103  10.189   0.400  17.999 -0.0450  0.0413  0.1154
 1904W        W 4104  20.956   2.577  22.105  0.2035 -0.1719 -0.2288
 1905W        W 4105  20.787   7.002  24.191  0.0961 -0.0586  0.1028
 1906W        W 4106   7.186   4.448  24.119 -0.0028  0.1523 -0.0610
 1907W        W 4107   6.868   2.878   0.186  0.0615 -0.0399 -0.0121
 1908W        W 4108  17.605   1.926  24.388 -0.0237 -0.0658  0.0547
 1909W        W 4109   8.005   1.730   1.593  0.0917  0.1045 -0.0768
 1910W        W 4110   5.821   1.926  15.396  0.0086  0.0455 -0.1670
 1911W        W 4111  22.284   7.766  16.349 -0.0572 -0.4216 -0.1814
 1912W        W 4112  25.556   4.941  20.342  0.0280 -0.0422 -0.0309
 1913W        W 4113  15.743   2.750  23.731 -0.3134  0.0904  0.2508
 1914W        W 4114  13.712   1.014   0.185 -0.2285 -0.2001 -0.3765
 1915W        W 4115  16.967   5.752  10.097 -0.0869 -0.1861  0.0984
 1916W        W 4116  17.724   2.883   8.043  0.0967 -0.3169  0.1187
 1917W        W 4117  31.150   6.749   1.521 -0.0237  0.1257  0.0883
 1918W        W 4118  16.168   4.793   8.995  0.0960  0.0244 -0.0274
 1919W        W 4119  19.812   6.429  18.373 -0.2136 -0.2611  0.4112
 1920W        W 4120   0.566   0.489   4.898 -0.0973  0.0147  0.0267
 1921W        W 4121  28.582   0.080   1.107  0.0582 -0.0910  0.0590
 1922W        W 4122   1.192   1.662  18.115 -0.0500  0.2167 -0.1340
 1923W        W 4123  30.859   2.616   4.113 -0.4293  0.0370 -0.1334
 1924W        W 4124  22.014   0.062  15.340 -0.1043 -0.0419 -0.0863
 1925W        W 4125  19.267   7.532   3.871  0.0136  0.0436  0.0553
 1926W        W 4126  13.831   7.252   2.968  0.1999 -0.0784  0.0910
 1927W        W 4127  10.499   6.365  10.391 -0.1016 -0.1830  0.0420
 1928W        W 4128  21.359   6.009  21.262  0.5386  0.0214 -0.2766
 1929W        W 4129  29.934   3.397  22.541  0.1623  0.3336  0.1513
 1930W        W 4130   8.156   3.523   3.945 -0.2110 -0.0057 -0.2135
 1931W        W 4131   8.836   2.425  15.892 -0.0198  0.1309  0.1902
 1932W        W 4132   1.896   5.573   6.932 -0.0275  0.0768  0.3710
 1933W        W 4133   6.697   2.853  25.906  0.1743 -0.5562 -0.2622
 1934W        W 4134  29.761   5.331   4.319  0.0195  0.0990 -0.0370
 1935W        W 4135  26.917   1.657   8.987 -0.1375 -0.0544 -0.1220
 1936W        W 4136  21.284   3.416  19.864 -0.2757 -0.0042  0.0573
 1937W        W 4137  11.071   0.868  24.224  0.1566  0.2432 -0.1019
 1938W        W 4138  15.628   6.453   5.533 -0.1411  0.1129 -0.2068
 1939W        W 4139  20.322   3.428  25.029 -0.3320 -0.1430  0.0434
 1940W        W 4140  30.038   1.183  21.203 -0.0761 -0.0296  0.1046
 1941W        W 4141   7.088   1.156   1.420 -0.0850  0.0978 -0.3876
 1942W        W 4142  30.352   3.047  24.190 -0.2300  0.0003  0.0135
 1943W        W 4143  18.099   7.156   8.675 -0.1520 -0.0376 -0.3265
 1944W        W 4144  27.774   7.408  18.635 -0.0341  0.3061  0.1764
 1945W        W 4145  15.754   5.252  19.265 -0.1981 -0.1135  0.0375
 1946W        W 4146  21.393   4.123  19.110  0.0797  0.2200 -0.1850
 1947W        W 4147  29.074   3.028   7.869 -0.0004 -0.0461 -0.0218
 1948W        W 4148   6.704   0.126  22.127 -0.4440 -0.2241  0.3754
 1949W        W 4149  17.892   6.179   2.003 -0.0364 -0.0637 -0.1391
 1950W        W 4150  29.592   3.759  20.843 -0.1933 -0.0087  0.1203
 1951W        W 4151  17.740   2.795  24.972 -0.0596 -0.0952  0.1404
 1952W        W 4152  25.539   6.352  19.000 -0.0258  0.0096  0.0139
 1953W        W 4153  14.941   7.826  22.292 -0.1073 -0.1451  0.1711
 1954W        W 4154   8.019   0.668   2.832 -0.0400  0.0600 -0.2312
 1955W        W 4155  17.591   5.066   6.756  0.1963  0.1011 -0.1679
 1956W        W 4156   0.547   2.102   4.821  0.0043  0.2872 -0.1744
 1957W        W 4157   7.430   1.882  18.546 -0.0065 -0.1284  0.0967
 1958W        W 4158  27.225   6.651   2.464  0.0577 -0.0018 -0.2119
 1959W        W 4159  22.503   2.680   4.824 -0.1141  0.2523 -0.0852
 1960W        W 4160   2.393   0.209   6.537 -0.2450 -0.3207 -0.1732
 1961W        W 4161  14.105   0.864  17.140  0.0678 -0.2825  0.0551
 1962W        W 4162  27.382   2.635   7.673  0.0498 -0.1369 -0.1598
 1963W        W 4163   5.572   2.949   6.682  0.0534  0.0880 -0.0425
 1964W        W 4164  18.504   0.154  16.467  0.2197 -0.1450  0.0639
 1965W        W 4165   3.981   0.889  22.794  0.1150  0.3327 -0.0961
 1966W        W 4166  27.715   2.615  19.661 -0.0124  0.1727  0.0989
 1967W        W 4167  16.432   5.056   4.707 -0.1567  0.0435  0.0633
 1968W        W 4168   5.087   1.754  24.565  0.1221  0.3332  0.1052
 1969W        W 4169  24.966   5.075   6.245  0.2095 -0.2479 -0.1048
 1970W        W 4170  28.015   0.246  21.406  0.0564 -0.0308 -0.2457
 1971W        W 4171  16.599   4.699   2.781  0.2153  0.3899 -0.2151
 1972W        W 4172  28.802   3.497   7.892 -0.0432 -0.2692 -0.0010
 1973W        W 4173  16.251   2.687  10.427  0.0993 -0.2112  0.0145
 1974W        W 4174  20.416   2.241  21.685 -0.0879 -0.0259 -0.1761
 1975W        W 4175  16.958   7.627  14.964 -0.3294  0.1748  0.5110
 1976W        W 4176   2.017   6.599  16.623 -0.1805 -0.0629 -0.0580
 1977W        W 4177   8.444   5.783   7.858  0.3185  0.0512 -0.0243
 1978W        W 4178   5.755   1.623  17.422  0.1530 -0.1682  0.0564
 1979W        W 4179   5.498   0.989  25.056  0.0114 -0.0540  0.0368
 1980W        W 4180  27.193   2.865   4.224 -0.0116 -0.0712  0.1614
 1981W        W 4181   5.152   3.610   2.096  0.2812  0.1623  0.0261
 1982W        W 4182   6.000   6.180  19.634 -0.1455  0.1508 -0.1879
 1983W        W 4183  28.724   3.668   4.485  0.1273  0.0501  0.0753
 1984W        W 4184  16.973   0.961  25.069  0.2572  0.0813 -0.1017
 1985W        W 4185  26.415   3.619  24.861 -0.1050  0.0843 -0.0752
 1986W        W 4186   2.473   2.617  10.938 -0.2428  0.2734  0.1904
 1987W        W 4187  30.348   2.353  10.674 -0.0304  0.1678  0.0073
 1988W        W 4188  20.524   3.885  20.561 -0.2306  0.0298  0.0557
 1989W        W 4189  13.808   3.441   9.342  0.0556  0.1418 -0.3180
 1990W        W 4190  12.834   1.317  18.211  0.1063 -0.0384 -0.1293
 1991W        W 4191  27.736   6.184  20.660  0.1261 -0.0200 -0.0470
 1992W        W 4192  25.351   6.461  16.156 -0.0450 -0.2653 -0.0831
 1993W        W 4193  28.732   1.662  21.866 -0.0212 -0.0187 -0.1868
 1994W        W 4194  19.283   5.710  18.942  0.0719 -0.1000 -0.2144
 1995W        W 4195  30.599   0.467  19.622 -0.0301  0.2134  0.0841
 1996W        W 4196   0.571   0.927   9.807  0.0339  0.0229  0.3128
 1997W        W 4197  15.159   1.496   9.797  0.0477  0.1500  0.0453
 1998W        W 4198  18.175   5.987   7.172 -0.0030  0.0730  0.0307
 1999W        W 4199  12.150   3.273   1.343  0.5340 -0.1639  0.0410
 2000W        W 4200  17.930   1.311   6.736  0.1064 -0.1760 -0.1358
 2001W        W 4201   4.481   0.257  18.230  0.0868  0.0247  0.1273
 2002W        W 4202  21.589   4.894  25.113  0.1959 -0.1640  0.0290
 2003W        W 4203  20.862   3.489  18.116  0.0786  0.3778 -0.0979
 2004W        W 4204  20.380   2.803   4.082 -0.0824  0.0173  0.2634
 2005W        W 4205  13.367   3.571  23.746  0.1003  0.2317  0.3416
 2006W        W 4206   7.736   6.348   1.545 -0.2781 -0.2159  0.1541
 2007W        W 4207  20.866   3.649   6.982  0.1763 -0.3548 -0.0209
 2008W        W 4208  26.293   3.719   4.877  0.0874 -0.1361 -0.0473
 2009W        W 4209  21.327   0.948   4.723  0.0647 -0.0364  0.0644
 2010W        W 4210   7.772   4.031   2.160  0.0426  0.0126  0.1946
 2011W        W 4211   4.941   0.014   4.499 -0.1605  0.0414 -0.2138
 2012W        W 4212   9.074   2.233  16.696  0.2006 -0.0245 -0.1800
 2013W        W 4213   7.899   0.245   6.052  0.0035 -0.1561 -0.1571
 2014W        W 4214  22.223   5.990   5.265 -0.1236 -0.1292  0.0735
 2015W        W 4215  26.786   2.014  20.140  0.3367  0.0034 -0.0479
 2016W        W 4216   7.063   7.148   9.004  0.0633 -0.1204  0.1985
 2017W        W 4217  13.956   2.282  15.367 -0.2507  0.1465 -0.0612
 2018W        W 4218  30.779   6.516   1.694 -0.2333  0.0012  0.1225
 2019W        W 4219  24.889   4.932  17.744  0.0330 -0.0907  0.0352
 2020W        W 4220  13.288   3.962  10.454 -0.0551 -0.2443  0.1609
 2021W        W 4221  31.121   4.260   5.214  0.2644  0.2786  0.0333
 2022W        W 4222  28.536   6.911   1.237  0.0834  0.0603  0.2882
 2023W        W 4223   6.034   5.586   0.464  0.0544 -0.1516 -0.1172
 2024W        W 4224   8.394   0.869  15.409  0.1292 -0.0205 -0.0225
 2025W        W 4225   2.449   0.588   8.483  0.0866 -0.3549  0.1655
 2026W        W 4226  13.157   3.214   1.343  0.0031  0.0277 -0.1698
 2027W        W 4227   6.252   1.415  18.147  0.1935 -0.0968 -0.0001
 2028W        W 4228  13.076   3.493  20.189  0.0857 -0.0136 -0.2176
 2029W        W 4229  23.753   3.934   1.776  0.2282 -0.1022  0.1041
 2030W        W 4230  22.486   6.077  10.680 -0.1222 -0.1001 -0.2472
 2031W        W 4231  11.660   4.896  25.216 -0.0355  0.0454  0.0697
 2032W        W 4232  20.630   2.871  20.407  0.0676  0.0933 -0.0194
 2033W        W 4233  13.503   0.358  15.817 -0.0189 -0.0085  0.1867
 2034W        W 4234  17.246   2.886   0.805  0.1761  0.1807 -0.2115
 2035W        W 4235  17.942   3.193  17.873  0.0418 -0.1134  0.0836
 2036W        W 4236  10.505   0.754  23.539 -0.0431  0.1906 -0.2526
 2037W        W 4237  16.308   3.396   5.470  0.3130  0.0490 -0.0278
 2038W        W 4238  29.168   7.190  16.161 -0.1607 -0.0873 -0.2871
 2039W        W 4239   7.257   5.516   4.549  0.0713  0.0468 -0.1296
 2040W        W 4240  24.072   5.585  19.435  0.1495 -0.1756 -0.1665
 2041W        W 4241  19.909   1.891  14.965 -0.3588  0.1664  0.1931
 2042W        W 4242  15.177   3.339  22.505 -0.1030 -0.0149 -0.3264
 2043W        W 4243  30.934   3.892   6.183 -0.0295  0.1868  0.0039
 2044W        W 4244  20.273   1.284   3.707  0.1098  0.0174 -0.0303
 2045W        W 4245   2.852   4.240   2.998 -0.1877 -0.2807  0.1467
 2046W        W 4246   3.478   4.601  18.688 -0.0933  0.0252  0.0852
 2047W        W 4247  11.674   0.576   0.700  0.1646 -0.0970  0.2904
 2048W        W 4248   2.436   2.979  21.760 -0.2085  0.0438 -0.0658
 2049W        W 4249  17.709   7.677  22.012  0.1023  0.2490 -0.0055
 2050W        W 4250  13.554   5.287   5.325  0.3132 -0.1152  0.1547
 2051W        W 4251  28.631   2.158  10.466 -0.3412 -0.3124 -0.0061
 2052W        W 4252  21.012   4.582   0.058  0.0288  0.2923 -0.1288
 2053W        W 4253  31.277   0.036   2.824 -0.2097 -0.0149  0.1251
 2054W        W 4254  26.165   4.672  16.698  0.0693  0.0309  0.0548
 2055W        W 4255   2.376   3.766   1.940 -0.2950  0.0935  0.1469
 2056W        W 4256  26.749   4.141   0.955 -0.1894  0.0272  0.1627
 2057W        W 4257  24.721   4.960   1.545  0.0559 -0.1600  0.2160
 2058W        W 4258  12.415   2.522  21.047 -0.2309 -0.1753 -0.1580
 2059W        W 4259   6.330   0.626   4.334  0.3439 -0.0164  0.1688
 2060W        W 4260  14.067   6.960   9.259 -0.5061  0.0472  0.1408
 2061W        W 4261   9.342   6.826  20.721  0.0671 -0.0835  0.1135
 2062W        W 4262  10.669   3.894  22.527 -0.0525  0.1334 -0.0076
 2063W        W 4263  25.937   4.122   6.978  0.0829  0.1337 -0.1722
 2064W        W 4264  22.341   5.349   3.874 -0.2520  0.0774 -0.5155
 2065W        W 4265  28.476   7.496  20.225 -0.0887  0.0688 -0.0275
 2066W        W 4266  26.135   3.868  25.154  0.1150  0.0849 -0.1743
 2067W        W 4267   5.330   2.073  17.763 -0.2664 -0.1274  0.0864
 2068W        W 4268  30.656   3.264  18.377 -0.2336  0.1623  0.1780
 2069W        W 4269  20.359   5.408  10.076  0.1061  0.1072  0.1664
 2070W        W 4270  24.520   4.296   9.886 -0.1241 -0.0904  0.0033
 2071W        W 4271   9.695   1.707  10.286 -0.0953 -0.1169  0.1085
 2072W        W 4272  19.736   1.588  18.710 -0.1985  0.1908 -0.2090
 2073W        W 4273   0.125   0.627   9.908 -0.2813  0.0857 -0.0792
 2074W        W 4274  17.032   2.532  19.575  0.0888 -0.1434  0.1673
 2075W        W 4275  19.951   6.989   3.724  0.2505 -0.0555  0.2176
 2076W        W 4276  24.390   1.735   4.929 -0.1272 -0.1176  0.0304
 2077W        W 4277   6.509   2.103   7.016  0.1830  0.1520 -0.3447
 2078W        W 4278  18.368   5.355   9.195 -0.0148  0.0095 -0.0205
 2079W        W 4279   3.191   4.701  10.391 -0.0655  0.1850 -0.2414
 2080W        W 4280  28.809   4.555   0.112 -0.0186 -0.2954  0.1188
 2081W        W 4281  27.109   0.985  24.311  0.0497  0.0332  0.2936
 2082W        W 4282  20.838   0.289  15.078 -0.1701  0.0743  0.0406
 2083W        W 4283   4.803   1.302  21.354 -0.1700  0.1039  0.0429
 2084W        W 4284   6.647   4.493  16.757  0.2443 -0.0905 -0.1227
 2085W        W 4285  22.471   1.027  18.656 -0.1142 -0.1364  0.0345
 2086W        W 4286  29.759   1.659  21.186  0.4029  0.1588 -0.0474
 2087W        W 4287  23.985   0.706  25.522  0.0591  0.0735 -0.1856
 2088W        W 4288  13.284   3.613   8.035  0.0507 -0.0067  0.1091
 2089W        W 4289  21.252   6.487   3.604 -0.1972 -0.3129 -0.1819
 2090W        W 4290   2.133   0.904   7.583 -0.1665  0.1379 -0.0055
 2091W        W 4291  29.914   1.333  19.966 -0.0948 -0.1392 -0.3043
 2092W        W 4292  12.880   3.402  19.509 -0.0215  0.0848 -0.1620
 2093W        W 4293  28.265   6.502   0.758 -0.0685 -0.2084  0.0359
 2094W        W 4294  11.916   1.259   1.829  0.0549 -0.0710 -0.1366
 2095W        W 4295  14.626   0.881   8.127 -0.3650 -0.3781  0.1271
 2096W        W 4296  10.402   4.873   6.434 -0.2631  0.3147  0.2303
 2097W        W 4297  29.969   4.650   0.802  0.1875 -0.1010 -0.3489
 2098W        W 4298   0.829   1.551  19.574 -0.1692 -0.2105  0.2894
 2099W        W 4299  16.722   0.313   9.410 -0.1105  0.3245 -0.0978
 2100W        W 4300  20.089   2.547   7.998  0.0600 -0.1616 -0.2033
 2101W        W 4301  23.359   1.385  25.313  0.3132 -0.1112  0.6020
 2102W        W 4302  20.082   7.077  20.991 -0.1913 -0.1082 -0.2776
 2103W        W 4303  19.254   6.273  19.738  0.0071  0.1035  0.4270
 2104W        W 4304  12.724   4.300   4.171  0.0127 -0.0375  0.0614
 2105W        W 4305  23.392   6.685  20.661 -0.1587  0.1168 -0.1471
 2106W        W 4306   4.595   0.335  22.368 -0.0490  0.0601 -0.1009
 2107W        W 4307  16.834   4.784  24.030 -0.2572  0.0604  0.0158
 2108W        W 4308  21.586   2.636   9.118 -0.1731  0.0732  0.0091
 2109W        W 4309   9.406   7.796  14.505  0.1831  0.0217 -0.1298
 2110W        W 4310  12.793   7.220  17.865 -0.2538  0.5263 -0.4056
 2111W        W 4311  14.350   7.415  24.448  0.3192 -0.0145  0.1598
 2112W        W 4312  17.387   2.868   0.258  0.2146  0.1348 -0.0340
 2113W        W 4313   0.295   7.762   2.455  0.1207 -0.0175 -0.1684
 2114W        W 4314   7.480   0.047   2.053  0.1749 -0.0863 -0.2542
 2115W        W 4315   8.306   5.727  23.167  0.0863  0.2060  0.0658
 2116W        W 4316   1.406   0.692  24.072  0.0444 -0.0405  0.2407
 2117W        W 4317  29.246   4.580   4.355  0.2586 -0.4074 -0.0575
 2118W        W 4318   6.645   4.992  15.629 -0.1219 -0.1456  0.1568
 2119W        W 4319  20.232   0.978  18.566  0.3409  0.2316  0.0428
 2120W        W 4320   0.972   4.662   1.954 -0.3480 -0.3377  0.1220
 2121W        W 4321  22.657   6.201  25.767  0.0400 -0.0651  0.0257
 2122W        W 4322  11.995   5.034  18.689 -0.1042 -0.1334  0.0923
 2123W        W 4323   7.342   3.177   6.191  0.2204  0.2240  0.2385
 2124W        W 4324   3.043   1.182   1.528 -0.1146  0.0564 -0.1303
 2125W        W 4325  10.018   3.479  19.138 -0.0529  0.0262  0.3247
 2126W        W 4326  17.371   7.798   5.232 -0.0278  0.1607  0.1473
 2127W        W 4327   7.925   6.823  15.636  0.0819  0.1902 -0.2089
 2128W        W 4328  29.938   3.838  21.433  0.1163  0.2518  0.1473
 2129W        W 4329   9.854   6.877  20.603  0.2280 -0.0406 -0.3384
 2130W        W 4330  29.103   0.455  17.404 -0.3569 -0.0028  0.0532
 2131W        W 4331   2.832   0.143  18.453 -0.0137  0.0624  0.5780
 2132W        W 4332  22.890   3.201  19.110  0.0007  0.2024  0.1515
 2133W        W 4333   5.030   4.571  16.146  0.1624 -0.0673 -0.2128
 2134W        W 4334  21.853   4.333  17.578 -0.0833 -0.0061 -0.2205
 2135W        W 4335  24.620   7.467  10.221  0.0990 -0.2272  0.2999
 2136W        W 4336  24.140   1.089   3.096 -0.0898  0.0144  0.1115
 2137W        W 4337   6.468   6.680  17.236 -0.1254  0.1810 -0.0745
 2138W        W 4338  19.424   5.803  25.395 -0.1991  0.0635 -0.0265
 2139W        W 4339  11.619   5.831  20.913 -0.1286  0.2540 -0.1820
 2140W        W 4340  26.309   1.906  24.357  0.3817  0.2544  0.0157
 2141W        W 4341   3.249   2.786   4.418 -0.1791 -0.1729 -0.0945
 2142W        W 4342   0.299   6.642  11.065 -0.1401 -0.0796  0.1999
 2143W        W 4343   7.028   5.303  15.435  0.3060  0.2776 -0.6136
 2144W        W 4344  22.788   2.762  25.817 -0.3422  0.1782 -0.3192
 2145W        W 4345   3.319   0.750  25.556  0.2623 -0.1971  0.0216
 2146W        W 4346  24.768   7.738  16.452 -0.3911  0.2676 -0.2815
 2147W        W 4347  10.907   3.560  17.827  0.1669  0.1298  0.2023
 2148W        W 4348  20.321   6.455  18.465  0.2310  0.1960  0.1108
 2149W        W 4349  16.857   4.198  10.979 -0.0254  0.2796 -0.3273
 2150W        W 4350  30.665   2.280  15.533 -0.1671 -0.2988 -0.1133
 2151W        W 4351  20.289   6.361   8.764  0.0042  0.0529 -0.0361
 2152W        W 4352  14.091   3.599  17.094 -0.1255  0.3026 -0.0340
 2153W        W 4353   6.152   6.648   9.807  0.2009 -0.0819 -0.0507
 2154W        W 4354  12.596   1.299   9.795  0.0619 -0.2734  0.3221
 2155W        W 4355  28.307   5.421   7.432  0.0400  0.0581 -0.0539
 2156W        W 4356   7.539   0.414   5.648 -0.0334 -0.0385 -0.0846
 2157W        W 4357  22.608   3.677  23.111 -0.0346 -0.2406 -0.1785
 2158W        W 4358  12.852   0.745   1.860 -0.1574 -0.1508  0.1489
 2159W        W 4359  26.325   4.804  21.604 -0.2448  0.1169  0.2130
 2160W        W 4360  15.944   4.440   6.741  0.0273 -0.0633 -0.2552
 2161W        W 4361  21.663   3.457  21.292 -0.0077  0.0372 -0.4130
 2162W        W 4362  17.281   2.282   2.947  0.2579  0.3526 -0.3142
 2163W        W 4363  25.002   4.234  19.795 -0.1859 -0.0723  0.1018
 2164W        W 4364  19.329   2.325  17.900  0.0206 -0.1471 -0.0555
 2165W        W 4365  10.799   2.819   4.627  0.1029  0.0943  0.3194
 2166W        W 4366  28.949   2.008  24.226 -0.2412  0.0806 -0.1243
 2167W        W 4367   2.238   1.379  20.734  0.2239 -0.0104 -0.1793
 2168W        W 4368  30.868   2.390   9.259  0.0146  0.0144  0.2835
 2169W        W 4369  21.359   5.447  25.589 -0.0875 -0.0792 -0.1605
 2170W        W 4370  27.685   1.612  19.120  0.0253  0.2276 -0.0710
 2171W        W 4371  14.925   0.103   4.274  0.1505 -0.2604  0.0178
 2172W        W 4372  24.749   3.380   0.735  0.2909  0.0055 -0.2177
 2173W        W 4373   2.584   3.419  17.260  0.1392  0.1088 -0.0625
 2174W        W 4374  10.828   4.726   9.021  0.0321  0.3233 -0.2279
 2175W        W 4375   1.839   2.964  21.989  0.0790 -0.1121 -0.1086
 2176W        W 4376   9.349   3.745   8.259 -0.0409 -0.1033  0.0278
 2177W        W 4377  24.596   0.443  18.511  0.1679 -0.0514 -0.1083
 2178W        W 4378  12.629   2.175  23.280  0.1756 -0.1870  0.0009
 2179W        W 4379   0.898   1.415   0.995  0.0173 -0.0896  0.2966
 2180W        W 4380  14.769   4.649   9.753  0.4427  0.3762  0.1595
 2181W        W 4381   0.036   4.637  10.117  0.2169  0.0879  0.1155
 2182W        W 4382   9.779   7.037   2.392 -0.1649  0.1186 -0.1146
 2183W        W 4383   0.781   0.834  19.084 -0.0261 -0.1340  0.2522
 2184W        W 4384  20.807   6.366   7.956 -0.0539  0.2039  0.1048
 2185W        W 4385  22.039   0.449  23.896 -0.0560  0.3856 -0.3593
 2186W        W 4386  13.130   0.591  21.212  0.3947  0.1241 -0.0542
 2187W        W 4387   4.044   1.148  16.222  0.1219 -0.0628 -0.1602
 2188W        W 4388  15.931   5.041  16.499 -0.2257 -0.0877  0.0530
 2189W        W 4389  10.281   5.228  24.995 -0.3472 -0.1432 -0.0712
 2190W        W 4390   4.748   2.422  25.213 -0.1031 -0.3231  0.2292
 2191W        W 4391   1.095   4.744  21.346  0.1199  0.3420 -0.1063
 2192W        W 4392  10.778   5.392   2.399  0.1967  0.0163  0.1294
 2193W        W 4393  23.499   5.137  22.459 -0.2688 -0.1663  0.0970
 2194W        W 4394  18.809   3.173  16.983  0.1042 -0.0503 -0.2168
 2195W        W 4395  18.934   1.613   8.701  0.5579  0.2043 -0.3999
 2196W        W 4396  16.803   7.458  10.122 -0.3307  0.0506 -0.1877
 2197W        W 4397   3.590   2.519  16.353 -0.1546  0.0678 -0.3644
 2198W        W 4398  16.994   3.831  23.243 -0.2455 -0.0962  0.0551
 2199W        W 4399  26.142   0.160  18.515 -0.4257 -0.0447 -0.1125
 2200W        W 4400  27.430   5.530   0.866 -0.3730 -0.0390 -0.1392
 2201W        W 4401   9.725   0.665  10.123  0.0778 -0.1779 -0.0000
 2202W        W 4402   5.685   4.821  16.800 -0.0952  0.1155 -0.0895
 2203W        W 4403  21.064   2.788  23.880  0.0053  0.2748 -0.0885
 2204W        W 4404  14.605   6.298   7.679 -0.2022  0.1084 -0.1920
 2205W        W 4405   2.338   5.217   9.460  0.1002  0.1538  0.0495
 2206W        W 4406   1.313   4.023  19.944 -0.2057 -0.0140 -0.2280
 2207W        W 4407  11.468   2.309  23.842  0.1487 -0.0060  0.3601
 2208W        W 4408  12.959   0.777   3.854 -0.1673 -0.0669 -0.0960
 2209W        W 4409   3.341   2.535  17.847  0.1182  0.0805 -0.2116
 2210W        W 4410  19.479   3.644  16.877  0.1852  0.0485  0.0284
 2211W        W 4411   7.767   6.548   8.072 -0.0872  0.0764  0.2548
 2212W        W 4412   6.158   3.259  15.686  0.2137  0.0779 -0.0566
 2213W        W 4413  19.014   2.193   6.732 -0.0758  0.1926 -0.0508
 2214W        W 4414   6.078   6.916   4.033  0.0981 -0.2290  0.2600
 2215W        W 4415  24.187   0.071  15.665  0.2408  0.1790  0.3806
 2216W        W 4416  21.456   7.583  10.056 -0.0448  0.0813 -0.1187
 2217W        W 4417  17.690   0.903  18.881  0.0755  0.2451  0.0484
 2218W        W 4418   6.810   0.101  24.875 -0.2396  0.3496 -0.0652
 2219W        W 4419  20.641   6.410   5.582 -0.0712 -0.0167 -0.2381
 2220W        W 4420  10.174   1.202   5.810  0.0121  0.3292  0.3226
 2221W        W 4421   5.758   4.192  16.787  0.0447  0.0254  0.4368
 2222W        W 4422  31.231   5.981   3.663 -0.0899 -0.1446 -0.0654
 2223W        W 4423   3.188   1.895   9.487  0.0013  0.0342  0.2993
 2224W        W 4424   1.075   5.893   1.427 -0.0769 -0.5045 -0.0413
 2225W        W 4425  30.872   3.459  15.091 -0.1609 -0.1995 -0.0050
 2226W        W 4426  25.922   6.105  18.213 -0.0246  0.0250  0.1446
 2227W        W 4427  12.449   7.368   1.420 -0.0888 -0.0905  0.0691
 2228W        W 4428  30.164   1.724   5.352  0.0047 -0.3521  0.0321
 2229W        W 4429   9.622   3.540  15.748  0.3111  0.1246  0.1046
 2230W        W 4430  27.770   6.972   7.473  0.1028  0.1073 -0.0594
 2231W        W 4431  28.849   4.762  20.879  0.2690  0.0750 -0.1745
 2232W        W 4432  12.972   2.091  22.312 -0.0311 -0.3168 -0.0521
 2233W        W 4433  20.939   5.107  25.851 -0.0572 -0.1074  0.1057
 2234W        W 4434  25.006   0.591   4.017  0.1800  0.2836 -0.0686
 2235W        W 4435  16.821   7.098  19.692  0.0172  0.0460 -0.1688
 2236W        W 4436   7.005   6.415  16.831 -0.0522  0.0448  0.1013
 2237W        W 4437   0.589   0.812  23.181  0.2905 -0.0475  0.0122
 2238W        W 4438  16.862   0.702  17.484 -0.1853 -0.0556  0.1800
 2239W        W 4439  30.272   1.561   7.002 -0.1256  0.1189 -0.2008
 2240W        W 4440  18.430   0.503   4.493 -0.4304 -0.1000  0.1066
 2241W        W 4441  27.907   4.020   1.410  0.4598  0.0740  0.0705
 2242W        W 4442  14.182   6.636   1.779 -0.0195  0.2728  0.2152
 2243W        W 4443   2.573   2.485  24.714 -0.0523  0.2748 -0.0437
 2244W        W 4444   7.416   1.427  24.968 -0.0041 -0.0240 -0.3585
 2245W        W 4445  11.000   7.685  11.038  0.1587 -0.2367  0.2805
 2246W        W 4446  27.340   0.438   5.664  0.4004 -0.1115  0.1488
 2247W        W 4447   2.081   6.894   8.011 -0.1022  0.0436  0.2446
 2248W        W 4448  14.749   0.240   7.166 -0.0795  0.2583 -0.0842
 2249W        W 4449  31.043   2.589  19.253 -0.2296  0.1430 -0.1117
 2250W        W 4450   2.038   5.314   1.195 -0.0156 -0.1975  0.1657
 2251W        W 4451   8.388   0.124  25.998 -0.1517  0.2376 -0.2401
 2252W        W 4452  27.020   1.419   7.509 -0.0007  0.1054  0.2202
 2253W        W 4453  24.693   3.725  21.686  0.0673 -0.0738 -0.0893
 2254W        W 4454  23.713   2.136  10.623 -0.2840  0.1085 -0.4647
 2255W        W 4455  14.840   5.281   9.586 -0.2448 -0.2647 -0.2597
 2256W        W 4456  30.696   2.194  24.344 -0.1446  0.1944 -0.2078
 2257W        W 4457   0.052   6.957  23.070  0.0402 -0.0572  0.2745
 2258W        W 4458  26.123   6.591   8.620  0.1115  0.1332 -0.1481
 2259W        W 4459  31.245   5.888   0.307  0.2846  0.0583  0.2448
 2260W        W 4460  30.340   6.567  16.273  0.1074  0.0086  0.3843
 2261W        W 4461   0.890   1.915   5.569 -0.1082 -0.0456  0.0992
 2262W        W 4462   9.724   3.793   1.857  0.4775 -0.1488 -0.0518
 2263W        W 4463  25.503   3.948   1.729 -0.0879 -0.0749 -0.2769
 2264W        W 4464   4.991   7.271  16.766 -0.2747 -0.1723 -0.0550
 2265W        W 4465  16.841   2.066   7.987 -0.0730 -0.0501 -0.0914
 2266W        W 4466   4.288   0.645   0.966 -0.1622  0.1562  0.0114
 2267W        W 4467  23.762   2.510   1.908  0.1157 -0.0809 -0.0905
 2268W        W 4468  27.476   4.161   1.557 -0.1373  0.1535 -0.0134
 2269W        W 4469  28.068   5.101  22.540  0.0766  0.0246  0.1592
 2270W        W 4470  23.584   4.476   2.631  0.3931 -0.0091 -0.0690
 2271W        W 4471  25.218   6.404  17.063 -0.0097  0.2328  0.2468
 2272W        W 4472  24.541   0.563   4.443  0.0784 -0.2024 -0.1289
 2273W        W 4473   3.231   4.577   0.100 -0.0073  0.0031  0.0399
 2274W        W 4474  25.528   7.191  19.652  0.0100  0.2722  0.0098
 2275W        W 4475  18.709   5.921   1.966  0.2596  0.1397 -0.0731
 2276W        W 4476  11.722   5.417  18.486 -0.1893  0.0097 -0.3023
 2277W        W 4477  30.572   4.205   5.343 -0.1020 -0.2930 -0.1219
 2278W        W 4478  21.652   1.664   8.631 -0.2275  0.2074  0.1576
 2279W        W 4479  18.490   3.782  22.761  0.1736 -0.2559  0.0337
 2280W        W 4480  18.686   6.454  21.337  0.0351  0.1616  0.2063
 2281W        W 4481  24.008   1.761   5.215  0.1396 -0.0002  0.0690
 2282W        W 4482  15.296   1.750   6.069 -0.0308  0.0595  0.4818
 2283W        W 4483  27.476   3.361  22.213  0.0754 -0.0643  0.0377
 2284W        W 4484  11.841   2.305   0.725  0.0371  0.1862  0.3821
 2285W        W 4485   1.081   1.967   4.176 -0.2154  0.4208  0.0578
 2286W        W 4486  31.194   4.866   2.338 -0.1238  0.2632  0.1401
 2287W        W 4487  16.479   5.364  17.964 -0.0739 -0.0128 -0.0161
 2288W        W 4488  22.058   7.052   6.489  0.1726 -0.2471  0.0603
 2289W        W 4489   9.499   7.665  19.690 -0.1506 -0.0002  0.0633
 2290W        W 4490   8.743   2.821   2.194  0.1617 -0.2050 -0.2346
 2291W        W 4491  22.443   4.787   5.043 -0.0207 -0.0506 -0.1026
 2292W        W 4492  29.723   4.785  23.020  0.0678  0.3027  0.0716
 2293W        W 4493   2.596   5.888   0.146 -0.1574 -0.0153 -0.2330
 2294W        W 4494  18.614   4.582  21.288  0.0432  0.0989  0.1473
 2295W        W 4495   5.256   0.284   2.408 -0.0315  0.0838  0.1581
 2296W        W 4496   4.362   1.914   1.742 -0.0632  0.0018 -0.0082
 2297W        W 4497  19.071   6.813  16.440  0.0008  0.3342 -0.1854
 2298W        W 4498  13.065   0.559  16.017 -0.0507  0.5287  0.0907
 2299W        W 4499  27.772   5.237   1.621 -0.0530  0.1247 -0.2619
 2300W        W 4500   4.966   6.298  25.686 -0.0124  0.0774 -0.0182
 2301W        W 4501   8.750   0.158   5.231  0.1464  0.3663 -0.1613
 2302W        W 4502  25.838   7.308  16.392 -0.0814 -0.2080 -0.0451
 2303W        W 4503  23.069   7.332   8.555  0.2530  0.3851 -0.1458
 2304W        W 4504   1.548   1.633  10.253  0.1053 -0.2231 -0.2005
 2305W        W 4505  18.315   4.193   5.365  0.0915  0.0070  0.0418
 2306W        W 4506  26.274   6.951  23.718  0.0757  0.1494  0.1074
 2307W        W 4507  29.719   0.486   9.374  0.0615 -0.2185 -0.4905
 2308W        W 4508  24.531   0.027  21.906 -0.2051  0.0142  0.1683
 2309W        W 4509  10.556   7.484  18.207 -0.0652  0.2509 -0.3992
 2310W        W 4510   8.320   2.878   7.957 -0.2256 -0.1022  0.0031
 2311W        W 4511  11.377   2.391   2.065 -0.0144 -0.0413  0.0438
 2312W        W 4512   7.238   4.020  25.535 -0.2516 -0.0502 -0.1596
 2313W        W 4513   8.568   5.761   0.331 -0.2756 -0.0367  0.0714
 2314W        W 4514  15.132   0.585  18.859  0.0783 -0.2887 -0.0557
 2315W        W 4515  27.791   7.652  19.722  0.1322  0.0695 -0.2587
 2316W        W 4516   1.466   6.552  25.967  0.2127 -0.1426  0.0270
 2317W        W 4517   9.497   5.064  22.730  0.2712  0.2237  0.0659
 2318W        W 4518  26.345   7.610   3.389  0.0360 -0.1976  0.2906
 2319W        W 4519  20.812   1.279  19.387  0.1679  0.1049 -0.0622
 2320W        W 4520  10.380   3.164   0.846 -0.2444 -0.1796 -0.1202
 2321W        W 4521   9.979   6.487   5.083  0.0255 -0.3849  0.1185
 2322W        W 4522  13.735   1.989   8.571 -0.0898  0.0631  0.4917
 2323W        W 4523  25.587   5.362  17.870  0.1145 -0.2065  0.0979
 2324W        W 4524   6.364   7.445  18.958  0.3287  0.3857  0.2960
 2325W        W 4525  27.187   1.856  18.073  0.0740 -0.2049 -0.0946
 2326W        W 4526  18.060   4.946  19.253 -0.1196 -0.1231 -0.0043
 2327W        W 4527  12.814   7.763   5.834 -0.3100 -0.1897 -0.1722
 2328W        W 4528  11.944   1.172   2.788 -0.3562 -0.0047 -0.2088
 2329W        W 4529  25.101   7.193  18.066 -0.1984 -0.1167  0.0935
 2330W        W 4530   5.672   4.106   6.024  0.0023 -0.1735  0.0122
 2331W        W 4531  30.694   4.416   0.142  0.2603  0.0765 -0.1359
 2332W        W 4532  30.611   6.717   5.325 -0.2116 -0.0214 -0.0938
 2333W        W 4533   4.481   1.741  19.261  0.2386 -0.3393 -0.1912
 2334W        W 4534   4.202   2.862  17.801  0.0432  0.1806 -0.1480
 2335W        W 4535  18.860   7.668   8.474 -0.2522 -0.3283 -0.2813
 2336W        W 4536  30.321   2.354   7.661 -0.0366  0.1013  0.0341
 2337W        W 4537   5.569   7.751  18.534 -0.0010  0.0368  0.0641
 2338W        W 4538  29.453   0.025  10.604 -0.0104 -0.1889 -0.5171
 2339W        W 4539   1.486   5.964  17.795 -0.1341 -0.0928 -0.2131
 2340W        W 4540  28.244   0.185  16.096  0.0003  0.0117  0.2169
 2341W        W 4541  16.141   0.864   2.475 -0.1881  0.0472  0.0617
 2342W        W 4542   0.750   5.747   1.736  0.0221  0.0014 -0.1344
 2343W        W 4543  25.519   6.282   1.979  0.1755  0.2659  0.0826
 2344W        W 4544  23.317   4.753   7.939 -0.0969 -0.0348  0.0328
 2345W        W 4545  28.187   0.363   1.260 -0.3835  0.2210  0.0962
 2346W        W 4546  22.916   6.567  25.403 -0.0417  0.3346 -0.1455
 2347W        W 4547  25.150   5.071  20.933 -0.1091 -0.1235 -0.0321
 2348W        W 4548   7.024   2.485   5.603  0.5796  0.1130 -0.3347
 2349W        W 4549   5.623   0.500  24.089 -0.2380 -0.0872 -0.1463
 2350W        W 4550  26.211   5.424   3.391 -0.0719 -0.0944 -0.1698
 2351W        W 4551   0.234   0.037  22.910 -0.0889 -0.3175  0.1901
 2352W        W 4552  24.537   1.466   1.453 -0.0298 -0.2265 -0.3774
 2353W        W 4553  14.935   4.875   5.546 -0.1918 -0.2603  0.1088
 2354W        W 4554  10.197   1.636   2.814 -0.0878 -0.2088 -0.4477
 2355W        W 4555  29.520   1.076   8.164 -0.1403  0.2876 -0.2063
 2356W        W 4556  10.019   1.361   8.311  0.1432 -0.1693 -0.0152
 2357W        W 4557  14.517   3.837   2.100 -0.0725  0.0668 -0.1313
 2358W        W 4558  17.804   6.861  22.234 -0.1095 -0.0185 -0.0093
 2359W        W 4559  18.772   1.127  17.448 -0.1544 -0.1505  0.0797
 2360W        W 4560   4.259   6.431  15.850  0.1159  0.1626 -0.1178
 2361W        W 4561  30.006   3.925   9.380  0.1926 -0.1438 -0.2098
 2362W        W 4562  30.260   5.364   8.200  0.2391 -0.0796 -0.0660
 2363W        W 4563   7.894   4.230  15.485 -0.1796 -0.4064 -0.2119
 2364W        W 4564  15.515   3.499  22.151  0.1737 -0.0252  0.1656
 2365W        W 4565  11.627   5.397  25.043 -0.1286 -0.0847  0.2925
 2366W        W 4566   4.734   5.050   3.746  0.0145  0.0682  0.1903
 2367W        W 4567   9.918   6.602   1.612  0.0978  0.0319 -0.0400
 2368W        W 4568   7.957   0.207   8.962 -0.2644 -0.0297  0.0230
 2369W        W 4569   5.541   3.447  22.565  0.0640 -0.1045  0.2952
 2370W        W 4570  25.711   5.075  24.517 -0.1037  0.1022 -0.0399
 2371W        W 4571  26.455   4.572  23.693 -0.1839 -0.0936  0.0051
 2372W        W 4572   4.669   6.440  16.156  0.3525 -0.0882 -0.2330
 2373W        W 4573  25.946   5.025   8.504  0.2224 -0.0915  0.2590
 2374W        W 4574  15.974   7.603   8.826  0.0159  0.0157 -0.3071
 2375W        W 4575   1.048   3.958  19.470  0.3222 -0.4764 -0.4076
 2376W        W 4576  14.133   3.167  24.446  0.0834 -0.2996 -0.2251
 2377W        W 4577   6.125   6.771  26.131  0.2033  0.3808  0.1411
 2378W        W 4578  18.786   5.677  22.610  0.0049  0.0268  0.0344
 2379W        W 4579  12.390   1.454  18.482 -0.0841  0.2796 -0.0802
 2380W        W 4580  24.184   7.213  25.854  0.1534  0.0610  0.0056
 2381W        W 4581   7.285   6.464  17.490  0.0340 -0.0171  0.1289
 2382W        W 4582  12.747   3.532  25.023 -0.0824 -0.1332 -0.0211
 2383W        W 4583  15.401   6.986   6.997  0.0816 -0.1140 -0.2722
 2384W        W 4584  11.260   6.643  16.382 -0.0538  0.1756  0.1752
 2385W        W 4585  21.606   7.505   4.466  0.0355 -0.1149  0.2263
 2386W        W 4586  31.226   2.952   6.278 -0.2074 -0.0247  0.1704
 2387W        W 4587  11.967   1.617   5.569 -0.0400 -0.0523  0.1027
 2388W        W 4588  12.967   2.591  19.498 -0.1527 -0.2482 -0.2190
 2389W        W 4589  23.862   0.260  22.528 -0.1142  0.0189 -0.2246
 2390W        W 4590  27.170   2.510  21.276 -0.1182  0.0648 -0.1445
 2391W        W 4591   8.484   7.066   6.913 -0.2981 -0.5175 -0.0444
 2392W        W 4592  27.809   3.852   1.858 -0.1214 -0.0863 -0.1437
 2393W        W 4593  10.970   2.819  18.539 -0.1568  0.2126  0.1382
 2394W        W 4594  19.681   4.899   2.007 -0.0952 -0.0371  0.0019
 2395W        W 4595  10.125   4.239  24.048 -0.2205 -0.0704 -0.0803
 2396W        W 4596  19.343   1.349  19.652  0.1267 -0.2166  0.1740
 2397W        W 4597  21.089   6.511   9.325  0.1518  0.1261  0.0197
 2398W        W 4598   2.137   6.749   4.447 -0.1448  0.1779 -0.0443
 2399W        W 4599  20.113   1.757   7.291 -0.3171 -0.1888 -0.1769
 2400W        W 4600  21.563   3.242   7.920  0.0562 -0.0338 -0.2093
 2401W        W 4601  20.632   1.702  24.285  0.0063  0.2072 -0.2739
 2402W        W 4602  23.602   5.716   2.313  0.1210  0.3594  0.1196
 2403W        W 4603   0.910   2.403   5.285  0.2539  0.2364  0.2066
 2404W        W 4604  11.891   1.952  22.467  0.1371  0.0980 -0.1539
 2405W        W 4605  22.268   1.773   1.962 -0.2818  0.0572  0.0586
 2406W        W 4606   7.355   0.914  15.928 -0.2242 -0.1363  0.1463
 2407W        W 4607  11.883   2.492  15.388 -0.1885 -0.0012  0.1143
 2408W        W 4608   7.986   4.421  16.210 -0.1694  0.1313  0.2607
 2409W        W 4609  16.528   6.155   2.376 -0.0300  0.1709  0.0186
 2410W        W 4610   9.919   2.499   2.842  0.0811  0.2409 -0.0890
 2411W        W 4611  24.381   2.817  22.492 -0.0846  0.0334  0.0484
 2412W        W 4612   2.673   0.842   7.669 -0.0157 -0.0747  0.0113
 2413W        W 4613  20.563   7.464   8.271  0.2111 -0.2246 -0.1963
 2414W        W 4614  15.741   4.711   1.452 -0.0065  0.1386  0.1619
 2415W        W 4615  19.541   6.552   3.034 -0.1226  0.1952  0.0900
 2416W        W 4616   1.200   7.167   0.295  0.0616  0.2367 -0.0429
 2417W        W 4617  11.305   3.870  19.206 -0.1503 -0.0976  0.0317
 2418W        W 4618   7.232   2.306   0.882  0.0201  0.1459 -0.0884
 2419W        W 4619   8.732   7.045  25.110 -0.2646  0.0774  0.0907
 2420W        W 4620  25.057   4.312   6.227 -0.1214 -0.1027  0.1820
 2421W        W 4621   3.026   2.760   5.611  0.0899 -0.0437  0.1968
 2422W        W 4622   3.262   5.769   1.973  0.1585 -0.0567 -0.1658
 2423W        W 4623  12.766   0.382   9.062 -0.0509 -0.0269 -0.0598
 2424W        W 4624  18.930   5.255   2.544 -0.0154  0.0260 -0.1257
 2425W        W 4625   6.927   7.689   8.758  0.3365 -0.0001  0.0532
 2426W        W 4626  29.147   7.480  15.312  0.1528  0.1254  0.0478
 2427W        W 4627   1.304   1.099  22.703 -0.1914  0.0702  0.4004
 2428W        W 4628   3.143   3.441   9.239 -0.0834 -0.0120  0.1058
 2429W        W 4629  22.812   5.538  23.602 -0.3490  0.1295  0.1359
 2430W        W 4630  19.461   1.846   3.707 -0.1884  0.0440  0.2030
 2431W        W 4631  24.270   2.142  23.349 -0.3137 -0.2968  0.0517
 2432W        W 4632  29.666   7.590   8.242 -0.1235  0.4395 -0.0430
 2433W        W 4633  10.274   0.341  15.385 -0.2462  0.2673  0.0420
 2434W        W 4634   5.739   1.918  23.739  0.2075  0.2940  0.1672
 2435W        W 4635  14.040   7.418   9.530  0.0850 -0.0900 -0.1419
 2436W        W 4636   7.147   4.849  19.713  0.1044 -0.3273 -0.1346
 2437W        W 4637   4.674   0.298  16.883  0.2775  0.1883 -0.0804
 2438W        W 4638  30.382   0.942   4.390 -0.0481  0.1351 -0.1372
 2439W        W 4639  25.201   3.834  10.343 -0.4467  0.0192  0.0318
 2440W        W 4640  31.220   6.860   4.401  0.1261 -0.1607 -0.0528
 2441W        W 4641   9.214   4.339  21.188  0.0045 -0.4465  0.1488
 2442W        W 4642  23.540   2.026  19.032 -0.0257 -0.2894  0.0552
 2443W        W 4643  18.197   1.722  15.939 -0.1378 -0.0456  0.1838
 2444W        W 4644  18.619   7.179  18.936 -0.1495  0.0435 -0.1401
 2445W        W 4645   8.888   4.076   7.377 -0.0513  0.2974  0.0963
 2446W        W 4646   4.486   1.606  21.668  0.0294  0.0333  0.0683
 2447W        W 4647  24.750   3.158  15.773 -0.1536 -0.0200 -0.0594
 2448W        W 4648  20.093   3.525   5.876  0.0514 -0.1307  0.0041
 2449W        W 4649  16.535   1.002   7.122 -0.0860 -0.1558 -0.0142
 2450W        W 4650   3.425   5.566   3.596 -0.1213 -0.2371  0.1039
 2451W        W 4651  24.719   4.586  23.395 -0.0459 -0.0160 -0.2304
 2452W        W 4652  23.964   3.912  22.049  0.0990 -0.0586  0.3127
 2453W        W 4653  13.824   2.527   7.154  0.4035 -0.0601 -0.2844
 2454W        W 4654   0.312   2.512  20.680 -0.1276 -0.1457 -0.0840
 2455W        W 4655  20.534   0.552   0.935 -0.0993 -0.1665 -0.1802
 2456W        W 4656  26.005   2.010  10.560 -0.1586 -0.0642 -0.1004
 2457W        W 4657  24.999   7.139  24.459 -0.0132 -0.3426 -0.0696
 2458W        W 4658  11.046   4.153  15.012  0.0479 -0.0600  0.0930
 2459W        W 4659  29.364   3.942   1.140  0.0501 -0.1524 -0.2605
 2460W        W 4660   2.982   1.950   3.526 -0.0050  0.1003 -0.0303
 2461W        W 4661  11.341   0.698   8.143  0.0045 -0.0585  0.2052
 2462W        W 4662   4.190   2.559  16.644  0.1256  0.0205 -0.1284
 2463W        W 4663  18.264   1.349  20.784 -0.0848  0.2947 -0.0339
 2464W        W 4664   8.305   4.537   8.088 -0.1365 -0.3716  0.0838
 2465W        W 4665  30.083   1.932  21.818 -0.2319  0.0327 -0.3700
 2466W        W 4666  18.485   6.809   0.795  0.0600  0.2611  0.2865
 2467W        W 4667  10.899   5.585   4.244  0.1376  0.1363  0.3392
 2468W        W 4668  18.705   3.591   4.929  0.0898  0.0569  0.1857
 2469W        W 4669  21.687   2.959  21.429 -0.1637 -0.0827  0.0424
 2470W        W 4670  19.578   6.236  23.949  0.0721  0.3824 -0.1480
 2471W        W 4671  29.412   5.483  10.782 -0.0370  0.0883  0.3295
 2472W        W 4672  14.716   1.113  18.573 -0.2837  0.0566  0.0246
 2473W        W 4673  31.211   1.820   8.451  0.0562 -0.1802  0.1629
 2474W        W 4674   2.754   6.059  10.600 -0.2964  0.1379 -0.3747
 2475W        W 4675   9.144   5.024  22.338 -0.3055 -0.0008 -0.2363
 2476W        W 4676  14.788   6.929   3.299 -0.1442 -0.1266  0.0690
 2477W        W 4677  16.004   1.942  18.310 -0.1657  0.0628 -0.0187
 2478W        W 4678  13.736   3.134   0.189  0.0585 -0.2499  0.2517
 2479W        W 4679  27.657   0.353   5.254  0.0642 -0.3985  0.2904
 2480W        W 4680  24.440   4.821   9.063  0.1990 -0.0949  0.1475
 2481W        W 4681  23.240   5.092  21.876 -0.3310  0.1559 -0.0774
 2482W        W 4682   2.088   3.218   3.770  0.1738 -0.0599  0.1276
 2483W        W 4683   0.211   7.576   9.125 -0.0807  0.1972  0.1142
 2484W        W 4684   7.016   3.035   6.701  0.1589 -0.0871  0.0164
 2485W        W 4685  14.601   7.750  25.638 -0.0360 -0.2617 -0.0847
 2486W        W 4686   2.629   6.250  19.347  0.1228  0.1618  0.0810
 2487W        W 4687  13.787   4.078  19.552  0.2108 -0.1751  0.1187
 2488W        W 4688  31.120   1.930  23.046 -0.1420  0.0407  0.1006
 2489W        W 4689  26.738   2.091  16.030 -0.1289  0.1289  0.2898
 2490W        W 4690  25.762   0.557  23.117  0.1702 -0.0363  0.0997
 2491W        W 4691  17.989   4.232   8.597 -0.1627  0.0627  0.0287
 2492W        W 4692  12.550   1.986   7.243  0.2764  0.1076  0.0595
 2493W        W 4693  14.607   0.949  24.119 -0.4135 -0.1916  0.0778
 2494W        W 4694   0.935   6.651   4.086  0.0618  0.0279  0.0678
 2495W        W 4695  15.399   7.129  17.619 -0.1613 -0.0575 -0.0398
 2496W        W 4696  26.777   6.423   9.963 -0.0676 -0.0438 -0.2925
 2497W        W 4697  20.085   1.668  22.599  0.1099  0.2399 -0.1363
 2498W        W 4698  25.952   6.579  24.928 -0.1482 -0.0155  0.0675
 2499W        W 4699  28.265   7.569  25.235 -0.1649  0.0153  0.0240
 2500W        W 4700   7.253   1.001   0.428  0.0215  0.0629  0.2047
 2501W        W 4701  15.165   6.360   6.133  0.2991 -0.0663 -0.0546
 2502W        W 4702  11.460   0.817   9.770 -0.0400 -0.0310  0.2842
 2503W        W 4703   5.106   4.524   5.540 -0.0764 -0.1626  0.1516
 2504W        W 4704  21.380   7.107  20.579  0.1859  0.0860  0.2708
 2505W        W 4705   2.288   5.891   9.008  0.0596  0.0598  0.0965
 2506W        W 4706  18.589   7.227   8.553  0.0810 -0.1551 -0.0360
 2507W        W 4707  29.324   0.361  17.851  0.2235 -0.2782 -0.1499
 2508W        W 4708  29.227   4.384   7.079  0.0089 -0.0166 -0.0571
 2509W        W 4709  20.229   4.966   5.620  0.0344 -0.2218 -0.0227
 2510W        W 4710  26.904   4.601  22.428 -0.1244 -0.4095 -0.3424
 2511W        W 4711  27.618   1.200  20.673 -0.2193  0.1408  0.0292
 2512W        W 4712   3.035   2.362   3.848  0.3265  0.0540  0.0455
 2513W        W 4713   7.393   2.990  10.901  0.1351 -0.1171  0.1789
 2514W        W 4714  30.912   7.062  22.766 -0.1111  0.0446 -0.2027
 2515W        W 4715  24.997   0.143  19.865 -0.4166  0.0337 -0.2649
 2516W        W 4716   3.006   7.493  17.666  0.1190 -0.2799 -0.1985
 2517W        W 4717  16.723   1.763  21.723  0.0600 -0.1080  0.1077
 2518W        W 4718   3.954   4.724  18.521  0.0805 -0.0125  0.1734
 2519W        W 4719  19.668   2.955  24.990  0.0567 -0.0358 -0.1173
 2520W        W 4720  21.529   4.999   0.614  0.5789  0.1591 -0.1033
 2521W        W 4721  14.659   6.467  18.108 -0.0681  0.1299  0.1888
 2522W        W 4722   3.691   0.787  23.561 -0.0930  0.1830 -0.0578
 2523W        W 4723   7.277   2.644   2.494 -0.0209 -0.3567 -0.0668
 2524W        W 4724  13.996   3.470   2.344  0.0647  0.1443  0.0957
 2525W        W 4725  10.281   4.923   9.743 -0.0187 -0.0022 -0.1935
 2526W        W 4726  24.711   7.376  21.245 -0.0340  0.2982 -0.0970
 2527W        W 4727  29.316   6.683  22.368  0.1984  0.0703 -0.4097
 2528W        W 4728  24.320   1.818   5.628  0.0689 -0.0772  0.0240
 2529W        W 4729  19.852   0.887   0.599 -0.1104  0.2514  0.1690
 2530W        W 4730  30.176   3.600   7.377  0.0406 -0.0145 -0.0622
 2531W        W 4731  19.060   0.407  22.369  0.1319 -0.0551 -0.4805
 2532W        W 4732  30.467   0.260  10.914 -0.0039  0.0827 -0.0387
 2533W        W 4733  28.070   7.568  20.611 -0.2628  0.1705 -0.0054
 2534W        W 4734  26.861   1.408   0.724  0.2361  0.2438  0.3190
 2535W        W 4735  17.767   5.384  18.041 -0.2889 -0.4189  0.0897
 2536W        W 4736  12.269   4.387   8.792 -0.1972  0.0132  0.2778
 2537W        W 4737  17.062   5.027  17.289 -0.2525 -0.3104 -0.0458
 2538W        W 4738  11.841   5.828   5.153 -0.2489 -0.1107 -0.0724
 2539W        W 4739   6.386   1.369  24.233 -0.0647  0.1029  0.1114
 2540W        W 4740  30.010   1.383   4.387 -0.0070  0.1084  0.1352
 2541W        W 4741  10.344   7.043   0.022 -0.0801 -0.1777 -0.2550
 2542W        W 4742  17.605   0.770  22.309  0.2604 -0.1914 -0.0439
 2543W        W 4743   5.945   2.790   0.954 -0.0349  0.0448  0.0950
 2544W        W 4744  24.979   7.592  21.666 -0.0329 -0.2262 -0.0018
 2545W        W 4745  18.263   7.007   6.903  0.1311  0.0625 -0.2556
 2546W        W 4746   0.233   2.948  15.680  0.0061 -0.1616 -0.1821
 2547W        W 4747  29.150   0.513   4.581 -0.0196  0.0787 -0.0199
 2548W        W 4748  23.950   5.905  10.949  0.0500  0.2274 -0.1015
 2549W        W 4749   7.251   5.768   8.705 -0.0872 -0.0619  0.1702
 2550W        W 4750   5.876   3.832   7.869 -0.2073  0.1170  0.2856
 2551W        W 4751  25.148   7.574  17.711  0.3003  0.2265  0.0024
 2552W        W 4752  12.218   1.889  23.321 -0.0390  0.1192 -0.1883
 2553W        W 4753   4.588   1.691  20.997 -0.1565  0.0280  0.1870
 2554W        W 4754   4.009   6.444   1.259 -0.1297 -0.0280  0.2633
 2555W        W 4755  18.920   1.172  10.193 -0.0078  0.0639  0.5018
 2556W        W 4756  14.470   4.656  19.051 -0.0287 -0.1072 -0.0604
 2557W        W 4757  24.515   3.252   3.517 -0.0260  0.2091 -0.0622
 2558W        W 4758  18.469   7.766  20.254  0.0392 -0.2226 -0.2746
 2559W        W 4759  29.569   4.476   8.155 -0.0862  0.2119 -0.1195
 2560W        W 4760  22.891   1.229  17.825 -0.1214 -0.1597 -0.2439
 2561W        W 4761   9.309   4.485  10.474  0.0858 -0.0603  0.0913
 2562W        W 4762  18.060   2.861   3.970 -0.0892  0.3881 -0.1921
 2563W        W 4763  23.375   2.275  24.760 -0.0669  0.2180  0.0606
 2564W        W 4764   8.492   0.800  23.016  0.1163  0.1474 -0.0346
 2565W        W 4765   1.239   5.053  23.626 -0.1931  0.1681  0.0869
 2566W        W 4766  10.236   3.648  18.273  0.0113  0.0724 -0.1375
 2567W        W 4767  21.068   2.724  20.543  0.0532 -0.2335  0.1320
 2568W        W 4768  27.442   4.445  19.607  0.1278 -0.0049  0.0777
 2569W        W 4769  28.203   2.329   8.516 -0.0422  0.0849  0.1277
 2570W        W 4770  12.344   3.463  26.042 -0.3784 -0.0896  0.1095
 2571W        W 4771  24.060   7.097   6.692 -0.0373  0.1465 -0.1064
 2572W        W 4772   1.226   1.673   4.555 -0.0432 -0.1071  0.2943
 2573W        W 4773   7.726   7.741  16.292  0.2286 -0.0252 -0.0291
 2574W        W 4774   1.552   5.501  20.773  0.0929  0.2683 -0.0067
 2575W        W 4775  11.514   3.539   1.869  0.1640 -0.2834 -0.0460
 2576W        W 4776   1.526   2.701  25.841 -0.0518  0.0138  0.0336
 2577W        W 4777  30.277   3.904  24.005  0.2608 -0.0974  0.4191
 2578W        W 4778  18.080   2.328  19.643  0.0152 -0.0892  0.1076
 2579W        W 4779   8.607   4.358  24.742 -0.2067 -0.2602  0.0993
 2580W        W 4780  20.531   5.117   3.921  0.1896 -0.2418 -0.1321
 2581W        W 4781  19.128   6.383   5.936  0.2312  0.1508  0.0842
 2582W        W 4782  27.316   3.872   7.449  0.1626  0.0634  0.0965
 2583W        W 4783  20.858   6.555   9.771 -0.0462  0.0809  0.0795
 2584W        W 4784  20.645   5.161   1.751  0.2761 -0.1376 -0.1608
 2585W        W 4785  15.071   5.306  25.919 -0.1615 -0.1492 -0.0736
 2586W        W 4786   4.526   0.266   4.400  0.1276 -0.1099 -0.3180
 2587W        W 4787  17.429   2.783   3.315  0.3587 -0.0839 -0.1874
 2588W        W 4788   6.289   4.136  10.986 -0.1394 -0.1191  0.1296
 2589W        W 4789  15.043   7.586  23.522  0.0422  0.1063  0.5814
 2590W        W 4790   1.090   7.387  23.418  0.1093  0.2653 -0.2538
 2591W        W 4791   9.793   0.530   3.145 -0.0095 -0.2919 -0.1895
 2592W        W 4792   6.805   4.472  19.015  0.2839  0.0403 -0.0104
 2593W        W 4793  16.303   2.749  21.957 -0.1453  0.0500 -0.0203
 2594W        W 4794  26.215   0.922  18.771 -0.2917  0.0157 -0.1233
 2595W        W 4795  19.288   5.283  16.300  0.1194 -0.1421 -0.2162
 2596W        W 4796   5.419   0.106  16.371  0.1267 -0.0547 -0.0632
 2597W        W 4797  26.997   1.899  21.799  0.0916  0.1861  0.0042
 2598W        W 4798  21.753   0.320  18.100 -0.3063 -0.2216 -0.2430
 2599W        W 4799   3.760   0.439  19.113 -0.0883  0.3653 -0.2277
 2600W        W 4800  10.428   1.270   2.497  0.1238  0.0246 -0.0866
 2601W        W 4801  18.580   4.018   7.909  0.2205 -0.0543 -0.2392
 2602W        W 4802   6.047   4.597   3.520 -0.0206  0.0160 -0.1545
 2603W        W 4803   0.821   6.812  17.400  0.0689 -0.2113 -0.2072
 2604W        W 4804  27.732   4.834  24.997 -0.2164 -0.0451  0.1449
 2605W        W 4805   3.033   3.541  22.185  0.2378 -0.4302  0.0041
 2606W        W 4806  17.383   0.904  17.239  0.0666  0.0306 -0.2729
 2607W        W 4807  23.189   2.027   5.262  0.0266 -0.0516  0.2927
 2608W        W 4808  22.861   3.909   3.716 -0.4156  0.2398  0.1654
 2609W        W 4809  11.849   3.826  18.011  0.2677  0.1478  0.0311
 2610W        W 4810   9.389   5.940   1.997 -0.1274 -0.3753  0.1952
 2611W        W 4811   1.067   7.740   6.947 -0.0096 -0.0185 -0.2984
 2612W        W 4812  20.493   0.841   2.973  0.1411  0.1249 -0.0611
 2613W        W 4813   4.112   3.008  23.218 -0.0237  0.4293 -0.3428
 2614W        W 4814   8.791   2.007  17.193 -0.3402 -0.0448  0.0002
 2615W        W 4815   2.914   7.699  22.576  0.0964  0.0722  0.0309
 2616W        W 4816   9.610   1.686   8.789  0.0684 -0.0033  0.0264
 2617W        W 4817   3.158   6.355   9.045 -0.0919  0.4262 -0.0077
 2618W        W 4818  21.404   1.787   4.236 -0.0504  0.0127 -0.1318
 2619W        W 4819  18.150   6.967   6.140 -0.0766  0.1216  0.0466
 2620W        W 4820   5.608   5.848   1.973 -0.0827  0.2322 -0.1839
 2621W        W 4821  15.626   3.207  24.297  0.1109  0.0376 -0.0910
 2622W        W 4822   3.360   0.885   8.244  0.1320  0.0310  0.0678
 2623W        W 4823  13.199   5.073   7.093 -0.0890 -0.0551  0.2675
 2624W        W 4824  15.992   6.148  23.558  0.1954  0.0782  0.0017
 2625W        W 4825  13.289   1.213   6.000 -0.2209  0.0745  0.1418
 2626W        W 4826  16.864   4.242   8.173  0.0579 -0.1072  0.1363
 2627W        W 4827  23.122   3.744  23.825 -0.1661 -0.0428 -0.0096
 2628W        W 4828  27.696   7.014   1.088  0.0746 -0.3676  0.0189
 2629W        W 4829  14.739   5.018   1.619  0.0876 -0.1814  0.1456
 2630W        W 4830  11.535   4.243   1.074  0.3116  0.1565 -0.0188
 2631W        W 4831   0.565   2.618  21.092 -0.0437  0.2333 -0.0953
 2632W        W 4832   9.418   3.165   3.446 -0.1609 -0.0571  0.1293
 2633W        W 4833  22.057   0.685  18.279 -0.3023 -0.0101 -0.0840
 2634W        W 4834   7.123   2.525   7.363  0.3176  0.2064 -0.0360
 2635W        W 4835   8.349   0.049  25.152 -0.0611 -0.0468  0.0019
 2636W        W 4836  17.454   2.511  22.646 -0.0834  0.1114  0.0852
 2637W        W 4837   4.622   3.069  25.019 -0.1015  0.3235 -0.1584
 2638W        W 4838  21.484   1.481  21.143 -0.3247 -0.1203 -0.0684
 2639W        W 4839   0.053   2.494   4.123 -0.0907 -0.1508  0.0333
 2640W        W 4840   6.567   7.065  23.185  0.0642 -0.0740 -0.1777
 2641W        W 4841  20.131   2.716   5.674  0.0449 -0.3270 -0.3132
 2642W        W 4842  16.512   4.001   2.033 -0.1372  0.3005  0.0465
 2643W        W 4843  12.705   4.838   4.305  0.2256 -0.2008 -0.0214
 2644W        W 4844  29.619   0.680  16.061 -0.1811 -0.0681  0.2568
 2645W        W 4845   7.679   6.062  21.643 -0.0986  0.0686 -0.2343
 2646W        W 4846   8.759   0.462  19.914 -0.2241  0.3779 -0.2387
 2647W        W 4847  14.062   3.743   3.272 -0.0972 -0.3194  0.0521
 2648W        W 4848  26.472   3.751  20.180 -0.0496 -0.2522  0.2142
 2649W        W 4849  28.420   2.821  25.582 -0.0741  0.2395  0.1424
 2650W        W 4850  13.560   4.946   4.199  0.1241 -0.0464 -0.0545
 2651W        W 4851  11.673   6.897  15.299 -0.1702  0.2259  0.1588
 2652W        W 4852  29.207   6.276  24.524 -0.3615 -0.0253 -0.4001
 2653W        W 4853  25.153   4.040  15.301 -0.1618  0.1759  0.0228
 2654W        W 4854  29.446   5.352  17.207 -0.0006  0.0776  0.2627
 2655W        W 4855   0.007   2.025   0.595 -0.0060 -0.0039 -0.0928
 2656W        W 4856   6.579   4.527  17.849  0.0450  0.3350 -0.1016
 2657W        W 4857   7.115   1.131   2.483 -0.0622  0.1750 -0.0356
 2658W        W 4858  11.601   7.180   3.545 -0.2467  0.0258  0.1818
 2659W        W 4859  25.307   3.918  25.545 -0.1647 -0.2486 -0.1397
 2660W        W 4860  11.286   4.894  22.685  0.0345 -0.0552 -0.2546
 2661W        W 4861   0.691   2.990  19.079 -0.1341  0.2042  0.0963
 2662W        W 4862  17.510   5.912  18.206 -0.1558 -0.0942 -0.2205
 2663W        W 4863   6.237   6.837  16.819 -0.3438  0.2192 -0.1721
 2664W        W 4864  21.799   4.546   3.622  0.1217  0.1696 -0.0384
 2665W        W 4865   5.083   3.511  23.633 -0.0640  0.2186 -0.0702
 2666W        W 4866   3.212   1.977  22.251  0.3633  0.1016 -0.1125
 2667W        W 4867   4.162   5.217  17.105 -0.0186  0.1198  0.2135
 2668W        W 4868  26.740   5.062   5.228  0.2125  0.1301  0.1508
 2669W        W 4869  25.469   1.266   4.285  0.0845 -0.1092  0.2821
 2670W        W 4870  15.406   6.758   5.093  0.1749  0.0223 -0.0466
 2671W        W 4871   4.500   3.994   8.012 -0.2496  0.0665  0.1767
 2672W        W 4872  21.532   7.287  18.813  0.2148 -0.1578  0.0041
 2673W        W 4873  23.743   7.087  16.983  0.1062 -0.1286  0.2371
 2674W        W 4874   2.473   5.470   9.867 -0.3121 -0.4226 -0.2666
 2675W        W 4875   6.145   6.296  16.101  0.1210 -0.1120  0.2303
 2676W        W 4876  16.797   7.141   0.005  0.4019 -0.0138 -0.0605
 2677W        W 4877  20.399   4.196  16.108 -0.1471  0.0943 -0.1523
 2678W        W 4878   0.945   3.930   8.189  0.0726  0.3128 -0.2445
 2679W        W 4879  28.744   5.188  21.222  0.0518  0.2759 -0.2586
 2680W        W 4880  14.340   0.315   6.228 -0.0420 -0.0821 -0.0295
 2681W        W 4881   1.497   6.041   1.292  0.1529 -0.0500 -0.0407
 2682W        W 4882  13.741   5.838  18.627 -0.3887 -0.2866 -0.2014
 2683W        W 4883  14.785   1.824   8.194  0.1821 -0.0776  0.0230
 2684W        W 4884  19.695   4.997  25.657  0.2881 -0.2621  0.0482
 2685W        W 4885  20.102   2.402  14.981 -0.0297 -0.0794 -0.1451
 2686W        W 4886  20.893   5.952  17.968 -0.1868  0.1831  0.1415
 2687W        W 4887  30.556   4.070  26.032  0.0454  0.2149  0.1196
 2688W        W 4888   4.256   6.528   4.708  0.1536 -0.1648  0.0145
 2689W        W 4889  12.556   1.856   6.738  0.0760 -0.0015 -0.0571
 2690W        W 4890  27.361   0.345  10.214 -0.1945  0.1542 -0.3026
 2691W        W 4891  14.159   0.643  25.969 -0.0767 -0.0675  0.0453
 2692W        W 4892   7.309   2.686  20.621  0.0328  0.0036  0.0622
 2693W        W 4893  30.984   1.700   7.032 -0.0558 -0.1176 -0.1035
 2694W        W 4894  13.170   2.268   3.582 -0.4340 -0.0439  0.1637
 2695W        W 4895   0.952   0.132   4.686 -0.2316  0.0064  0.1371
 2696W        W 4896   4.495   0.618  17.179  0.2191  0.0803  0.1273
 2697W        W 4897   3.776   5.500  18.999  0.0815 -0.1954 -0.0028
 2698W        W 4898   2.878   1.152  15.421 -0.0227  0.2388  0.1470
 2699W        W 4899   8.795   2.672   1.609  0.0726  0.5846  0.0259
 2700W        W 4900  15.477   3.723  18.327  0.1492  0.2156  0.1276
 2701W        W 4901  20.920   3.599   1.638 -0.2036  0.0094 -0.1758
 2702W        W 4902  29.667   5.679  25.554  0.0455 -0.0585 -0.0668
 2703W        W 4903  13.642   5.668   7.022 -0.1063 -0.0822 -0.2223
 2704W        W 4904  22.931   1.021  18.327  0.3528  0.3327 -0.1982
 2705W        W 4905  24.090   4.226   4.764  0.0768  0.1130  0.0122
 2706W        W 4906  11.467   7.560  16.737 -0.1323  0.1385  0.2399
 2707W        W 4907  22.191   3.392   1.800  0.1351 -0.0689 -0.0054
 2708W        W 4908  10.744   0.362  25.513 -0.0399  0.1293  0.3439
 2709W        W 4909   1.760   1.601   6.804 -0.2461 -0.0288  0.1592
 2710W        W 4910  27.294   6.268   9.739 -0.0321  0.4144  0.2510
 2711W        W 4911   5.822   5.830  17.300  0.0043 -0.2823 -0.1033
 2712W        W 4912   7.865   6.991   2.029  0.2453  0.0062  0.1493
 2713W        W 4913  27.522   7.304   1.449  0.0606  0.3548  0.1319
 2714W        W 4914  15.130   7.223  21.613 -0.2423  0.1940 -0.1599
 2715W        W 4915  20.377   6.021   8.296  0.3158  0.0238  0.0133
 2716W        W 4916   9.582   1.548   0.854  0.0617  0.1424 -0.4629
 2717W        W 4917  15.808   7.221   7.218  0.1198  0.2168 -0.0629
 2718W        W 4918   8.716   6.998  17.234  0.0270 -0.1001  0.0379
 2719W        W 4919  26.407   5.880   6.718 -0.1116  0.1049  0.0685
 2720W        W 4920   3.682   5.850   2.614 -0.1246  0.1099 -0.0125
 2721W        W 4921   5.440   0.122   5.718 -0.2554 -0.0092  0.1914
 2722W        W 4922  15.872   2.602   7.158 -0.2885 -0.0894  0.2605
 2723W        W 4923   8.036   6.561  20.142  0.0558  0.1136 -0.1275
 2724W        W 4924   4.058   1.051  23.695  0.0274 -0.1454 -0.0079
 2725W        W 4925  20.327   1.899  18.900 -0.1623  0.0714 -0.1441
 2726W        W 4926  18.758   5.870  14.927 -0.1041  0.1133  0.1893
 2727W        W 4927  24.912   4.654   5.239 -0.4321 -0.0846 -0.1473
 2728W        W 4928  29.971   5.409  16.961  0.0921 -0.3222  0.0743
 2729W        W 4929   7.974   7.571   9.114 -0.2556 -0.0246  0.1675
 2730W        W 4930  12.115   1.179  22.258  0.3265 -0.1090  0.0201
 2731W        W 4931   7.001   1.790  23.442  0.1298 -0.2726  0.2663
 2732W        W 4932   9.322   2.373  25.549  0.1188 -0.2648 -0.4245
 2733W        W 4933  25.764   5.810   1.208 -0.0463  0.0529 -0.0130
 2734W        W 4934  22.694   4.375   7.955 -0.2979  0.1376  0.0967
 2735W        W 4935   2.250   6.990   1.833  0.2858 -0.3057 -0.0335
 2736W        W 4936  26.667   6.767  16.203 -0.1608  0.0282 -0.0216
 2737W        W 4937  21.764   2.093   4.038 -0.3393 -0.2653 -0.0767
 2738W        W 4938   8.798   0.425  21.617  0.0347  0.4815 -0.1237
 2739W        W 4939  25.279   0.528  15.883 -0.0968  0.3640 -0.0474
 2740W        W 4940  31.043   6.044  22.547 -0.0652  0.0456  0.0603
 2741W        W 4941   9.425   2.810  22.829  0.0956 -0.0021  0.2258
 2742W        W 4942   3.638   0.956   4.730  0.0158  0.0092 -0.0535
 2743W        W 4943  24.042   3.442   6.945  0.0965 -0.1837 -0.2618
 2744W        W 4944   8.858   3.169  19.560 -0.0051 -0.2535 -0.0320
 2745W        W 4945  18.800   2.579  24.679 -0.2055  0.1319 -0.2075
 2746W        W 4946  11.600   1.924   7.697  0.1745 -0.1354 -0.2773
 2747W        W 4947  18.546   6.395  24.111  0.1669 -0.1758 -0.0934
 2748W        W 4948   9.090   6.230  19.074  0.0819  0.1103 -0.2910
 2749W        W 4949  17.864   4.643  25.831  0.1549  0.2727  0.1331
 2750W        W 4950   6.187   4.549  25.562  0.2420 -0.1636  0.2889
 2751W        W 4951  19.323   3.160  18.926 -0.0758  0.0881 -0.1646
 2752W        W 4952  24.040   6.333  17.609  0.1504  0.2069 -0.0060
 2753W        W 4953  20.585   3.587  17.192  0.0396  0.0498 -0.3468
 2754W        W 4954  30.259   0.404  19.163 -0.0775 -0.0931  0.1359
 2755W        W 4955  10.933   0.818  22.696 -0.1106  0.3935 -0.1356
 2756W        W 4956  24.004   0.420   7.892 -0.2746  0.0323  0.0730
 2757W        W 4957  17.067   5.492  10.476 -0.2201  0.0035  0.2582
 2758W        W 4958  11.579   5.463  19.901  0.2752 -0.0335 -0.0861
 2759W        W 4959   5.264   6.770  18.902  0.4130 -0.3124 -0.0058
 2760W        W 4960  28.495   7.551   0.638 -0.0072 -0.0492 -0.0727
 2761W        W 4961   9.966   1.496  25.719 -0.2375  0.2209 -0.0982
 2762W        W 4962  23.845   0.033   1.205  0.0146 -0.0778  0.4047
 2763W        W 4963  24.697   6.806   3.063 -0.1251  0.0896 -0.0228
 2764W        W 4964  29.509   6.107  18.513  0.2222  0.0300 -0.1130
 2765W        W 4965   4.393   0.363  16.482  0.1826  0.1386  0.1637
 2766W        W 4966  26.496   1.667  20.016 -0.2133  0.0940 -0.1551
 2767W        W 4967  16.708   6.750  17.125  0.0246  0.1761 -0.2479
 2768W        W 4968   9.043   3.497  14.397 -0.0859  0.0703  0.0948
 2769W        W 4969  15.087   5.113  24.257  0.2390  0.0811 -0.2706
 2770W        W 4970   6.771   3.003  16.360  0.0032 -0.0568 -0.3246
 2771W        W 4971   9.281   1.771   0.039  0.0074  0.3536  0.1246
 2772W        W 4972  23.898   0.366   5.565 -0.0096 -0.0026  0.3546
 2773W        W 4973   1.013   3.879  11.788 -0.1635 -0.3435  0.0410
 2774W        W 4974  11.655   6.529   4.531 -0.2532  0.1058  0.0551
 2775W        W 4975  11.543   5.324   7.223  0.1687 -0.0145  0.0979
 2776W        W 4976  16.435   1.168  26.077 -0.1000 -0.2968 -0.0253
 2777W        W 4977  24.328   2.756  22.996 -0.1247  0.4240 -0.3366
 2778W        W 4978   0.079   3.482   2.686 -0.0042  0.1207 -0.0528
 2779W        W 4979   1.680   4.574   5.553 -0.1293  0.2935 -0.0532
 2780W        W 4980  17.773   2.392   2.999 -0.0638  0.1187  0.0552
 2781W        W 4981  19.936   3.703  24.752 -0.2918 -0.0138  0.1005
 2782W        W 4982  10.570   7.426  24.439 -0.2599  0.3252 -0.2626
 2783W        W 4983  18.554   2.671   7.931 -0.0453  0.1547 -0.1265
 2784W        W 4984  24.967   1.814   0.830  0.2570 -0.1785  0.2501
 2785W        W 4985   2.355   6.471  24.284  0.0656 -0.0279 -0.3443
 2786W        W 4986  11.452   3.759  24.800  0.0085 -0.2861  0.0045
 2787W        W 4987   0.290   0.646   9.435  0.1301  0.2090  0.0333
 2788W        W 4988  17.151   0.453   5.187 -0.0213  0.0018 -0.1144
 2789W        W 4989  27.982   1.385  18.243  0.3950 -0.1586  0.0610
 2790W        W 4990  30.079   6.607   3.399  0.1094 -0.0535 -0.0858
 2791W        W 4991   2.723   0.815  21.833 -0.1074  0.0545  0.0002
 2792W        W 4992  25.678   5.028  23.297 -0.0047  0.2121 -0.1942
 2793W        W 4993  22.618   4.001  18.783 -0.0072 -0.1461  0.1068
 2794W        W 4994  12.535   1.019   0.957 -0.0883  0.0120  0.0340
 2795W        W 4995  15.811   1.511  24.825 -0.1028 -0.0518  0.0498
 2796W        W 4996  17.211   1.620  21.622 -0.4330 -0.3852 -0.2810
 2797W        W 4997   5.457   6.824  17.448  0.3220  0.1482 -0.0535
 2798W        W 4998  19.724   1.957   6.341  0.1924  0.0395  0.1757
 2799W        W 4999  19.976   0.707   8.411  0.1259 -0.1584  0.0103
 2800W        W 5000  20.373   0.134  19.332 -0.0895 -0.0614 -0.0740
 2801W        W 5001  11.447   1.292   6.263 -0.0501 -0.0173 -0.0657
 2802W        W 5002  28.905   6.493  21.337  0.2194 -0.1738  0.1173
 2803W        W 5003  14.176   3.456  10.823 -0.2972  0.1730 -0.1315
 2804W        W 5004   9.952   3.675   5.017 -0.3011  0.1256 -0.0788
 2805W        W 5005  20.499   7.383  16.537 -0.0005 -0.0804 -0.2879
 2806W        W 5006  18.150   0.520  16.340  0.0607 -0.0899 -0.7065
 2807W        W 5007  24.535   3.429   7.045  0.4559 -0.0381  0.2181
 2808W        W 5008  16.982   4.492  17.231 -0.1073  0.1145 -0.1353
 2809W        W 5009  13.116   0.988   2.189  0.0314  0.0831  0.1135
 2810W        W 5010  13.108   0.881   3.167 -0.1377  0.1503 -0.1958
 2811W        W 5011   5.583   4.343   5.620  0.1355 -0.0213 -0.0438
 2812W        W 5012  30.830   6.509   3.050 -0.0867 -0.0929  0.1456
 2813W        W 5013   5.721   3.084  21.767 -0.0901  0.1356 -0.0866
 2814W        W 5014  19.602   3.625  15.893 -0.1431  0.4693 -0.2167
 2815W        W 5015   1.009   6.773  19.850 -0.0542 -0.1370 -0.0848
 2816W        W 5016   5.801   4.018  10.226  0.0644  0.0246 -0.2923
 2817W        W 5017   9.838   5.951  24.268  0.0141  0.0207  0.0906
 2818W        W 5018  17.641   1.341   3.541 -0.0494  0.1566 -0.0441
 2819W        W 5019   2.370   0.432  17.664 -0.1359  0.0292  0.0087
 2820W        W 5020  23.831   4.190   5.220  0.0818 -0.0244  0.0616
 2821W        W 5021   0.158   2.887   5.436  0.1582 -0.0025  0.2717
 2822W        W 5022   5.280   5.989   4.350  0.1104 -0.0864 -0.1735
 2823W        W 5023  30.256   0.992  18.375 -0.1246  0.1578 -0.1587
 2824W        W 5024   3.410   7.633  24.561 -0.1803  0.0162  0.3773
 2825W        W 5025  24.378   3.235   4.382 -0.0087  0.2141 -0.2200
 2826W        W 5026  14.992   3.170   3.302 -0.2996 -0.1732 -0.1932
 2827W        W 5027  27.259   6.242   6.243  0.3446  0.2324  0.2344
 2828W        W 5028   2.967   7.493  23.721  0.1368 -0.0368  0.1017
 2829W        W 5029  16.358   0.077   5.197 -0.1034 -0.0708  0.0345
 2830W        W 5030   6.042   0.859   8.277  0.2305  0.0014 -0.0187
 2831W        W 5031  26.308   7.348  16.642 -0.2604 -0.4483 -0.0861
 2832W        W 5032  20.877   2.792   9.186  0.0395 -0.1177 -0.5568
 2833W        W 5033  27.539   5.348   8.972  0.1724 -0.0941 -0.2141
 2834W        W 5034  30.606   6.874  20.510 -0.2266 -0.0090 -0.0740
 2835W        W 5035  29.926   2.498  18.099 -0.3648  0.2572  0.0190
 2836W        W 5036   0.739   2.609   8.319 -0.0498 -0.3546 -0.1079
 2837W        W 5037   1.442   1.405  23.990  0.1178 -0.2665 -0.1585
 2838W        W 5038  24.979   6.469  18.861  0.0334  0.0073  0.1731
 2839W        W 5039   9.313   2.556   5.137 -0.0112 -0.0592  0.1939
 2840W        W 5040   8.040   2.692   2.641  0.0153 -0.0318  0.2753
 2841W        W 5041   8.171   1.763  23.294  0.1349 -0.1253 -0.0442
 2842W        W 5042  29.333   5.895   5.487  0.0182 -0.1499  0.0189
 2843W        W 5043  10.607   6.775  15.404  0.2263 -0.1126 -0.1254
 2844W        W 5044  30.075   1.742  19.316 -0.1283 -0.4559  0.0630
 2845W        W 5045  16.386   5.592   3.518  0.0477 -0.1604 -0.0509
 2846W        W 5046   7.501   3.702   1.918 -0.0332 -0.3208  0.0739
 2847W        W 5047  15.109   1.113  20.570 -0.1867 -0.0047 -0.2279
 2848W        W 5048  30.161   6.966  10.222 -0.1070  0.2317 -0.1160
 2849W        W 5049  18.270   0.712  21.827 -0.1508  0.3681  0.0675
 2850W        W 5050   7.917   4.889   6.700 -0.3646 -0.1449  0.2963
 2851W        W 5051  18.199   4.094   3.558 -0.0424  0.0594  0.0959
 2852W        W 5052  26.192   4.312   8.558  0.2150  0.0627 -0.2935
 2853W        W 5053   1.672   5.955  19.197 -0.0681 -0.0134 -0.3505
 2854W        W 5054   0.004   6.548  20.020 -0.2536 -0.0740  0.1255
 2855W        W 5055  11.817   2.413   5.199 -0.0436 -0.1335  0.0548
 2856W        W 5056  29.961   3.007   5.170  0.1447  0.0034 -0.3098
 2857W        W 5057  28.217   7.033  17.432 -0.0447 -0.0167 -0.1325
 2858W        W 5058  16.439   6.043  15.253 -0.1082 -0.2205  0.0731
 2859W        W 5059  18.432   7.282  15.803  0.1248  0.0882 -0.5355
 2860W        W 5060  30.711   1.569   5.865 -0.1546  0.3414 -0.1801
 2861W        W 5061  17.843   5.364   3.085  0.1930  0.1658 -0.0188
 2862W        W 5062  29.322   1.595  16.516 -0.0937  0.0220  0.2613
 2863W        W 5063  22.814   4.664   4.287  0.0051 -0.4864 -0.0430
 2864W        W 5064  11.650   1.276   0.579  0.0912  0.0668  0.2477
 2865W        W 5065  12.514   5.774   8.558 -0.1433  0.1620 -0.1661
 2866W        W 5066  19.902   6.869  18.004 -0.2474 -0.2940  0.1679
 2867W        W 5067  25.321   4.008   8.911  0.0259 -0.0415  0.1235
 2868W        W 5068  20.285   2.638   0.422  0.1223  0.0182  0.0719
 2869W        W 5069  23.130   6.873  23.209 -0.2503 -0.0568 -0.1024
 2870W        W 5070  23.487   2.486  10.200 -0.2564 -0.0211  0.0971
 2871W        W 5071   6.840   2.407  22.998  0.1530 -0.1696 -0.0725
 2872W        W 5072   0.976   6.705   1.940 -0.2626  0.2140  0.1166
 2873W        W 5073  21.017   1.560   5.597 -0.0482  0.0132 -0.0581
 2874W        W 5074  22.555   1.601  17.406  0.1996  0.0836  0.1253
 2875W        W 5075   3.943   1.438  22.861  0.1301  0.1709 -0.1060
 2876W        W 5076  24.158   5.492   7.102 -0.2098  0.0911 -0.3276
 2877W        W 5077   5.656   5.227   3.881  0.1928  0.0303  0.2069
 2878W        W 5078  18.356   3.314  20.054 -0.1573  0.0327  0.0663
 2879W        W 5079  29.615   6.215   6.362 -0.0027 -0.4285 -0.1051
 2880W        W 5080  21.959   7.576   2.718 -0.0859  0.0548  0.1895
 2881W        W 5081  25.383   4.881   7.354 -0.0119 -0.0216 -0.1712
 2882W        W 5082  16.882   3.838  21.576  0.2577 -0.2125 -0.2356
 2883W        W 5083   5.970   0.266   5.457  0.0353 -0.1871 -0.0675
 2884W        W 5084   0.356   3.402   5.213  0.1565  0.2208 -0.0258
 2885W        W 5085  24.680   0.628  10.118 -0.0419 -0.2179  0.1072
 2886W        W 5086   2.190   0.092   3.258  0.3280 -0.2426  0.1030
 2887W        W 5087  14.351   4.079  25.672  0.4486  0.1650 -0.0333
 2888W        W 5088  15.104   1.157  20.074  0.0391 -0.1826 -0.0748
 2889W        W 5089   3.121   7.293  16.187  0.0346 -0.0601  0.3161
 2890W        W 5090  27.656   3.285   0.690  0.1300 -0.0470  0.0496
 2891W        W 5091   3.676   1.588  16.580  0.1381 -0.2280 -0.0435
 2892W        W 5092   1.691   4.661  22.212  0.0999  0.0874 -0.2582
 2893W        W 5093   9.107   7.397   1.691 -0.0205 -0.0091 -0.2600
 2894W        W 5094  30.704   6.664   4.479 -0.1100 -0.3008  0.2148
 2895W        W 5095  26.526   0.676   1.244  0.2799  0.1666  0.1135
 2896W        W 5096  27.629   6.696  24.701  0.1134  0.2447 -0.3372
 2897W        W 5097  17.822   4.506   9.322  0.2828  0.1510  0.2751
 2898W        W 5098  19.393   6.724  25.603  0.2617  0.0379 -0.0163
 2899W        W 5099  25.949   3.943  24.072 -0.0326 -0.0081 -0.2713
 2900W        W 5100  10.384   0.990  24.431  0.2261  0.0561  0.0578
 2901W        W 5101   9.628   1.102  20.885  0.0551 -0.0764  0.3143
 2902W        W 5102   7.546   5.017   6.115 -0.0151  0.1029 -0.2209
 2903W        W 5103  28.617   7.454  17.642 -0.0086 -0.2085 -0.3294
 2904W        W 5104  30.946   7.128  18.594  0.1816 -0.0649  0.0612
 2905W        W 5105  22.844   1.087  19.042  0.0696  0.1108  0.0813
 2906W        W 5106  13.051   2.114   6.129  0.1028 -0.0511 -0.3628
 2907W        W 5107  20.625   7.329   5.012 -0.3652  0.0653  0.0277
 2908W        W 5108  17.170   0.675  25.415 -0.0577 -0.1328 -0.2064
 2909W        W 5109  20.475   3.986   0.909  0.2513  0.1038 -0.3009
 2910W        W 5110  13.807   5.869   8.162  0.0043 -0.0470 -0.1061
 2911W        W 5111   3.418   0.347  20.388  0.2908  0.0680 -0.0146
 2912W        W 5112  22.548   4.568   7.277  0.1892 -0.0903 -0.2394
 2913W        W 5113  29.851   6.052  25.166 -0.1077 -0.1616 -0.3965
 2914W        W 5114  16.848   0.255   4.318  0.0386  0.1559  0.0721
 2915W        W 5115  29.866   2.540  23.343 -0.2400 -0.1648  0.1480
 2916W        W 5116  27.270   1.044   2.290  0.0219  0.2974 -0.1298
 2917W        W 5117  21.121   1.846   1.399 -0.4670 -0.2713 -0.0828
 2918W        W 5118   1.885   5.850  19.890  0.3509 -0.2220  0.2520
 2919W        W 5119  11.218   1.701  21.167  0.0917  0.1079  0.2053
 2920W        W 5120  24.957   4.540  15.955 -0.0198 -0.3028 -0.2166
 2921W        W 5121  21.812   5.091   1.069  0.2143  0.2561  0.1902
 2922W        W 5122   5.440   6.101  19.600 -0.1567  0.0314 -0.0963
 2923W        W 5123   0.098   5.829   7.690  0.0616 -0.1344 -0.0414
 2924W        W 5124   6.619   0.163  20.850  0.0004  0.1683  0.0798
 2925W        W 5125  26.999   7.169  16.626 -0.0982 -0.1094 -0.3188
 2926W        W 5126  30.005   7.800  17.727  0.2915  0.1582 -0.2476
 2927W        W 5127   2.864   6.482   6.985  0.2063  0.0805  0.1030
 2928W        W 5128   5.683   4.296   3.925 -0.1705  0.3696  0.5122
 2929W        W 5129   4.443   7.796   8.274 -0.0542 -0.0100 -0.0013
 2930W        W 5130  25.455   2.609   2.772 -0.1249  0.0223 -0.1708
 2931W        W 5131   0.162   0.021  16.300 -0.1452 -0.1685 -0.0813
 2932W        W 5132  28.943   3.454   4.021  0.0033  0.2378 -0.1028
 2933W        W 5133  30.181   4.740  16.181 -0.2028  0.1666 -0.1240
 2934W        W 5134  17.022   6.680  20.869  0.2805  0.1315 -0.1682
 2935W        W 5135   4.728   7.327   6.084  0.2707 -0.1666 -0.0698
 2936W        W 5136  26.333   4.778  15.795  0.0952  0.0236 -0.2187
 2937W        W 5137  28.975   0.023  23.046  0.1900  0.0848 -0.2826
 2938W        W 5138   2.627   6.901  19.278 -0.3649  0.0718  0.2534
 2939W        W 5139  20.644   4.940   5.285  0.0427  0.1359  0.2237
 2940W        W 5140  27.126   0.514  24.053  0.3076 -0.2188 -0.0223
 2941W        W 5141  22.210   5.469  16.924  0.2021  0.5107 -0.0436
 2942W        W 5142  28.716   2.200   7.978 -0.2143  0.1512  0.2921
 2943W        W 5143   1.010   4.995  24.792  0.3887  0.0126 -0.3623
 2944W        W 5144  14.942   0.654   2.159 -0.0003 -0.2518 -0.0333
 2945W        W 5145  14.931   0.424   4.648 -0.1853  0.0736 -0.0298
 2946W        W 5146  12.229   3.668   6.324  0.1406  0.3338  0.1472
 2947W        W 5147   9.536   7.032  22.679 -0.2309  0.3271  0.0686
 2948W        W 5148  26.975   4.875   2.997  0.1286  0.1075  0.0814
 2949W        W 5149   8.060   6.144   0.963 -0.3800 -0.0381  0.0683
 2950W        W 5150  23.965   7.599  17.802  0.0745  0.2505 -0.0077
 2951W        W 5151   1.229   5.078  22.632 -0.3657  0.2092  0.2128
 2952W        W 5152  23.161   1.370   3.007 -0.1893  0.2349  0.0502
 2953W        W 5153  17.186   6.304  25.274  0.2613  0.1219  0.2318
 2954W        W 5154  10.531   0.661   8.789  0.0292  0.2586 -0.2428
 2955W        W 5155   5.067   4.967  23.366  0.0626 -0.1346  0.0901
 2956W        W 5156  14.841   2.358   5.080  0.1276 -0.0152  0.0775
 2957W        W 5157   3.059   5.835   7.593 -0.1423 -0.0386  0.2041
 2958W        W 5158  19.647   5.553   4.729  0.0062  0.0374  0.0214
 2959W        W 5159  13.850   4.892  17.454  0.1531  0.1261 -0.1268
 2960W        W 5160  23.392   6.488   0.508 -0.1445  0.0384 -0.1399
 2961W        W 5161  20.541   0.951  18.928 -0.1259  0.3065 -0.2135
 2962W        W 5162  25.326   3.544   1.375 -0.0725  0.2680  0.1543
 2963W        W 5163  24.922   4.517   1.564 -0.0729  0.2937  0.4060
 2964W        W 5164  20.432   4.975  19.375 -0.2032  0.0887  0.1623
 2965W        W 5165  21.307   0.512   3.688 -0.1261  0.0274  0.1427
 2966W        W 5166   2.880   5.939  24.818 -0.1624  0.0531 -0.3855
 2967W        W 5167  21.476   4.945  15.480  0.0749  0.1985  0.2943
 2968W        W 5168   2.739   3.219   7.942  0.0425 -0.3258  0.4222
 2969W        W 5169  11.045   6.461  19.035 -0.1023 -0.1713 -0.1548
 2970W        W 5170  23.403   5.042  24.604  0.4153 -0.1788 -0.1872
 2971W        W 5171  24.877   6.805  15.823  0.0995 -0.0488  0.2061
 2972W        W 5172  10.897   1.242  24.421  0.2071 -0.1427  0.0690
 2973W        W 5173  18.352   7.562   0.906 -0.0730 -0.0153 -0.0557
 2974W        W 5174  11.179   3.527  24.442  0.0936 -0.0091 -0.0915
 2975W        W 5175  29.428   4.179   4.633 -0.0768 -0.0793 -0.0238
 2976W        W 5176   1.143   2.247   3.355  0.1846 -0.0375  0.0514
 2977W        W 5177   2.412   7.756   0.727  0.0985 -0.1589  0.2971
 2978W        W 5178  30.224   0.319  22.568  0.1084  0.0023  0.0939
 2979W        W 5179  27.757   1.247  11.292 -0.0354 -0.1188 -0.0831
 2980W        W 5180   7.340   6.180  17.079  0.0105  0.0439 -0.1400
 2981W        W 5181  23.769   6.492   5.540  0.1192 -0.4394 -0.1715
 2982W        W 5182   5.160   0.915   1.128  0.0560  0.1311 -0.1635
 2983W        W 5183   6.172   1.013  21.438 -0.1475  0.0877  0.0953
 2984W        W 5184  19.355   0.977   4.924  0.1725 -0.0819  0.1566
 2985W        W 5185  14.485   2.988  10.278 -0.0467  0.1667  0.0610
 2986W        W 5186  25.941   3.557   7.781  0.1161  0.1412  0.0763
 2987W        W 5187   3.698   4.345   7.752  0.0119 -0.3344 -0.0346
 2988W        W 5188  18.044   0.085  17.933  0.0493 -0.0394 -0.0285
 2989W        W 5189  30.545   0.005  19.772  0.0236  0.0126  0.1351
 2990W        W 5190  23.750   3.557  10.046 -0.1966 -0.1317  0.0107
 2991W        W 5191   3.511   1.380   5.212  0.2160  0.0106  0.2818
 2992W        W 5192  13.270   6.755   1.439  0.0016 -0.4679  0.1171
 2993W        W 5193  22.770   1.351  10.114 -0.0263 -0.0634  0.3068
 2994W        W 5194  21.777   6.037  22.862 -0.1384  0.1626  0.1727
 2995W        W 5195   6.469   6.574  23.119 -0.1445 -0.0969 -0.2514
 2996W        W 5196  24.294   4.315   8.369  0.0368  0.0057  0.3491
 2997W        W 5197  17.540   2.478  15.414  0.2092 -0.0982 -0.1279
 2998W        W 5198  23.563   6.249  25.056  0.0607 -0.1997 -0.1045
 2999W        W 5199   1.208   3.171  18.981  0.0591 -0.2207  0.1927
 3000W        W 5200  11.443   0.850  22.806  0.1408  0.1108  0.2765
 3001W        W 5201  27.381   2.925  15.600 -0.1501 -0.2418  0.1195
 3002W        W 5202  14.554   5.990   6.142 -0.2299  0.0945  0.0923
 3003W        W 5203  23.924   3.393  19.056  0.0070 -0.0878  0.1394
 3004W        W 5204  20.188   6.191   0.256 -0.1949 -0.1678 -0.1229
 3005W        W 5205   0.614   1.236   4.725  0.0409 -0.2238 -0.3239
 3006W        W 5206  20.949   1.103   4.512 -0.0886  0.3771  0.1752
 3007W        W 5207   0.639   2.265   9.819  0.0566  0.2330 -0.0054
 3008W        W 5208   5.527   0.602  16.612 -0.2365 -0.2139  0.1448
 3009W        W 5209  19.615   2.386   8.951  0.1363  0.1299 -0.0148
 3010W        W 5210   2.791   0.445  18.845  0.0431  0.1784  0.1531
 3011W        W 5211  23.225   5.532  14.886 -0.0378 -0.0412  0.1620
 3012W        W 5212  30.029   5.236  23.118 -0.1451 -0.1043  0.1098
 3013W        W 5213  29.419   3.213  24.566 -0.0731 -0.1686  0.1335
 3014W        W 5214   2.447   5.913   6.205 -0.0069  0.2702  0.3909
 3015W        W 5215  30.370   7.396   7.383 -0.2177  0.1184  0.2634
 3016W        W 5216   2.304   2.898  24.959 -0.2039 -0.0571 -0.0720
 3017W        W 5217  15.251   6.885  22.208  0.1741  0.1612  0.1853
 3018W        W 5218   5.681   4.299   0.281 -0.0275  0.1226 -0.1727
 3019W        W 5219   8.888   1.105  20.946 -0.0911  0.0724  0.0690
 3020W        W 5220  10.611   1.891   5.046 -0.1512 -0.1138  0.0426
 3021W        W 5221  31.184   0.671   1.059  0.1102  0.4496  0.0167
 3022W        W 5222  29.855   7.752   9.020 -0.0169  0.0967 -0.0572
 3023W        W 5223   2.829   2.468   5.129  0.0025 -0.0464  0.0718
 3024W        W 5224  10.906   0.738   8.488  0.0617 -0.1326  0.0580
 3025W        W 5225  18.104   4.200   7.941  0.1174  0.3458  0.2758
 3026W        W 5226  28.210   1.823  21.956 -0.1411 -0.3284  0.0581
 3027W        W 5227  24.361   4.213   6.750  0.0080 -0.1271 -0.1781
 3028W        W 5228  14.566   7.711   3.019 -0.0090  0.0027  0.0135
 3029W        W 5229   2.375   5.281  19.207  0.0938 -0.0135  0.0742
 3030W        W 5230  14.117   6.236  21.412  0.0985 -0.1665  0.0827
 3031W        W 5231  19.738   4.085   6.459  0.0669 -0.0121  0.0346
 3032W        W 5232   3.041   3.663   3.192  0.3227  0.1653  0.0807
 3033W        W 5233  13.880   4.001  19.072  0.2405 -0.3188 -0.1560
 3034W        W 5234  16.214   0.832   1.837  0.4243 -0.2577 -0.2532
 3035W        W 5235  27.133   7.613   0.081 -0.0207  0.2709 -0.0040
 3036W        W 5236  18.035   6.656   5.067 -0.0150  0.2279 -0.1574
 3037W        W 5237  22.935   6.104   3.013 -0.1200  0.3395  0.0446
 3038W        W 5238   6.439   3.572  15.374 -0.0015  0.5660 -0.2241
 3039W        W 5239  18.085   7.428   7.801  0.1547 -0.2700 -0.2461
 3040W        W 5240   1.789   3.006   5.614  0.1692 -0.1894  0.1389
 3041W        W 5241  26.677   0.872  24.065 -0.0524 -0.0964 -0.3220
 3042W        W 5242  18.555   7.605   8.057  0.0209 -0.2453  0.0885
 3043W        W 5243  12.206   0.653   3.489 -0.0527  0.3314  0.0025
 3044W        W 5244  18.208   1.499   0.907 -0.0217  0.0210 -0.0036
 3045W        W 5245  16.714   4.550   3.293 -0.1462 -0.0792  0.1385
 3046W        W 5246  20.654   5.918  15.481 -0.1616 -0.1494  0.0151
 3047W        W 5247  17.336   2.203  16.302 -0.1760  0.0884  0.1252
 3048W        W 5248   7.793   4.483   6.935 -0.0131 -0.2970  0.0701
 3049W        W 5249   7.040   4.790  18.177 -0.0090  0.0358  0.0639
 3050W        W 5250   8.389   1.246  21.500  0.0737 -0.1450  0.0393
 3051W        W 5251  25.985   2.047  23.207 -0.1555 -0.1241 -0.2488
 3052W        W 5252  31.128   4.479   7.027  0.0800 -0.2131 -0.2540
 3053W        W 5253   0.689   1.919  21.830  0.0342 -0.2309 -0.2361
 3054W        W 5254   0.070   1.321  20.621  0.1116  0.1112 -0.0441
 3055W        W 5255  12.316   4.749   7.374  0.1676 -0.1122 -0.2125
 3056W        W 5256   4.871   1.755  15.357  0.1911  0.0929  0.0842
 3057W        W 5257   3.381   2.538   5.270 -0.0137 -0.0551  0.1717
 3058W        W 5258  30.300   6.421   7.801 -0.0107  0.1172  0.0626
 3059W        W 5259  29.548   1.329   4.636  0.1992  0.2991  0.1590
 3060W        W 5260  13.777   4.517  10.071 -0.1097  0.1356  0.2226
 3061W        W 5261   9.776   7.596  20.104  0.3803  0.0715 -0.0190
 3062W        W 5262  19.866   1.397   3.953  0.4029  0.1734  0.3397
 3063W        W 5263  25.609   1.110  10.494  0.0650 -0.0102  0.0382
 3064W        W 5264  10.597   6.004  18.407 -0.0036 -0.3389  0.2789
 3065W        W 5265  12.814   1.717   4.334 -0.1844  0.0754 -0.2992
 3066W        W 5266  11.385   4.880  24.141  0.0137 -0.0277  0.1412
 3067W        W 5267   4.583   3.836  21.734  0.0594 -0.0489 -0.0037
 3068W        W 5268  14.783   5.741   4.492 -0.2995  0.0448 -0.0272
 3069W        W 5269  15.842   2.912  16.342 -0.0628 -0.1089  0.1041
 3070W        W 5270  12.259   6.947  20.820  0.0412 -0.0442  0.1930
 3071W        W 5271  10.504   6.331   6.273 -0.1880 -0.2315  0.1564
 3072W        W 5272   8.452   2.327  17.335  0.0362 -0.0435  0.1223
 3073W        W 5273  23.944   7.428   8.400  0.1013 -0.1034 -0.2963
 3074W        W 5274   7.320   4.749  23.623 -0.2873 -0.0503 -0.0412
 3075W        W 5275  15.130   0.714  25.477 -0.0396 -0.0317  0.2414
 3076W        W 5276  15.904   7.168  17.542  0.3669 -0.0530  0.2596
 3077W        W 5277  25.776   1.922  17.830  0.1360  0.0335 -0.0335
 3078W        W 5278  30.375   5.412  17.736  0.0686  0.0677 -0.1954
 3079W        W 5279  21.610   4.734   7.127 -0.0092 -0.1952  0.3751
 3080W        W 5280  10.124   7.740  23.191 -0.1334  0.2608  0.0212
 3081W        W 5281   4.830   2.125   9.427  0.1432  0.0381  0.2374
 3082W        W 5282   8.576   6.649  23.392  0.1483  0.1794 -0.3085
 3083W        W 5283  12.217   1.256   0.370 -0.1039  0.0960  0.1385
 3084W        W 5284   6.980   2.077  18.677 -0.1896 -0.0225  0.0281
 3085W        W 5285  31.241   0.076  20.306  0.0518 -0.2910 -0.1274
 3086W        W 5286   4.260   1.822   4.215  0.1501 -0.1995  0.1991
 3087W        W 5287  30.545   2.310   4.393 -0.0514 -0.4763  0.2918
 3088W        W 5288  12.677   2.012  15.532  0.2212 -0.0826 -0.2450
 3089W        W 5289   9.151   5.317  23.892 -0.2162  0.0190 -0.2673
 3090W        W 5290   9.200   6.692   4.840 -0.0606 -0.0779  0.0779
 3091W        W 5291   1.088   0.692  25.479 -0.0102 -0.2943 -0.1096
 3092W        W 5292  17.575   7.343   2.401  0.2565 -0.0460  0.1863
 3093W        W 5293   5.173   1.113   3.019  0.0572 -0.0974 -0.3978
 3094W        W 5294  16.294   0.555  24.399  0.2602  0.0666 -0.3324
 3095W        W 5295  25.287   5.852  19.927  0.0573 -0.0302  0.1198
 3096W        W 5296  30.303   6.032  21.925 -0.0217 -0.3629  0.0944
 3097W        W 5297  18.791   4.067   3.691 -0.1735  0.0379 -0.2030
 3098W        W 5298  14.309   4.848  15.478  0.1478  0.1243  0.0136
 3099W        W 5299   7.754   6.500  25.925  0.0521  0.0791 -0.1573
 3100W        W 5300   2.342   4.225   3.255  0.0193 -0.1164  0.1731
 3101W        W 5301  13.308   7.780  15.458 -0.2971 -0.3750 -0.1671
 3102W        W 5302  11.410   7.678   9.540 -0.0941 -0.1743  0.2279
 3103W        W 5303  27.433   1.344  10.875  0.0901 -0.0601 -0.0131
 3104W        W 5304   1.087   4.439  18.734  0.0681  0.0373 -0.3547
 3105W        W 5305   7.507   6.783   2.490  0.1220 -0.1817 -0.4378
 3106W        W 5306  23.633   5.175  10.555  0.1537  0.0933  0.2713
 3107W        W 5307   2.850   6.774  24.843  0.1365 -0.3504 -0.0028
 3108W        W 5308   1.874   0.488   7.821 -0.3027  0.2844  0.0368
 3109W        W 5309  27.287   7.634   3.134 -0.0862 -0.0012 -0.0726
 3110W        W 5310   6.302   1.862  24.179  0.2722  0.1998 -0.2105
 3111W        W 5311  14.409   6.741  19.799  0.1802 -0.1057 -0.0158
 3112W        W 5312   7.589   6.240  25.018  0.0671  0.0542 -0.1413
 3113W        W 5313   3.202   4.721   3.382 -0.0735  0.0471  0.1563
 3114W        W 5314  22.712   2.171   9.374  0.0251  0.0296  0.2880
 3115W        W 5315   1.569   0.716  24.585 -0.0018 -0.0868  0.4116
 3116W        W 5316   8.595   5.852  16.583  0.0387 -0.1689  0.2204
 3117W        W 5317  22.456   0.420  16.301 -0.1213  0.1276 -0.0517
 3118W        W 5318   9.231   6.199  23.240  0.0489  0.4508 -0.1432
 3119W        W 5319  18.376   0.035  10.010 -0.2443  0.2951 -0.0978
 3120W        W 5320   0.752   5.771  23.991 -0.1122  0.0464 -0.0234
 3121W        W 5321   5.811   7.048  15.403 -0.0401 -0.2759 -0.0406
 3122W        W 5322   7.153   7.095  25.241  0.2156  0.0980 -0.2499
 3123W        W 5323   9.286   5.769   4.694 -0.0802 -0.0464 -0.2365
 3124W        W 5324  22.767   7.692   6.459 -0.0753  0.2440 -0.2601
 3125W        W 5325   5.262   4.813  20.074 -0.0236 -0.0022  0.3306
 3126W        W 5326  24.835   4.770  20.651 -0.2442  0.2632 -0.2037
 3127W        W 5327   2.530   0.981   2.127  0.0568 -0.1823 -0.4752
 3128W        W 5328  31.129   0.390  17.767 -0.1646 -0.1184 -0.0510
 3129W        W 5329   7.934   3.091  15.729 -0.0397 -0.0533 -0.1796
 3130W        W 5330  22.737   4.209  24.017 -0.1229 -0.0665  0.2443
 3131W        W 5331  18.529   3.865   9.679  0.1377  0.0747  0.0797
 3132W        W 5332  16.114   3.896  19.135  0.0109  0.2880 -0.1652
 3133W        W 5333  24.885   1.214  26.151  0.0886  0.2430 -0.0190
 3134W        W 5334  21.882   0.704   8.168 -0.2282  0.0489  0.0434
 3135W        W 5335   9.545   6.356  19.934 -0.0901  0.2342 -0.1959
 3136W        W 5336  24.980   5.283   4.544  0.0017  0.2544  0.1988
 3137W        W 5337  12.410   5.240   8.705 -0.2399  0.2420 -0.2314
 3138W        W 5338  27.844   0.362  10.279  0.0298 -0.0777 -0.4409
 3139W        W 5339  28.410   3.505  17.717  0.1829 -0.4671 -0.0825
 3140W        W 5340   2.732   3.786   2.800 -0.1663 -0.2945  0.0879
 3141W        W 5341  19.045   5.384   7.418 -0.1762  0.2743  0.0345
 3142W        W 5342   8.586   1.429   9.592  0.0298 -0.2370 -0.2886
 3143W        W 5343  30.287   7.826   5.385  0.2654  0.0364  0.0259
 3144W        W 5344  27.962   2.192  19.683  0.4818 -0.1243  0.1139
 3145W        W 5345  23.631   1.412  25.767  0.2204 -0.0320  0.2669
 3146W        W 5346  25.603   4.457   7.114 -0.3091  0.0937  0.0156
 3147W        W 5347  18.018   3.851   9.778 -0.0264 -0.0638  0.0392
 3148W        W 5348  23.154   4.345   4.924 -0.0591 -0.2479 -0.0360
 3149W        W 5349   2.464   6.280   3.947  0.1169  0.1142 -0.0458
 3150W        W 5350   3.328   7.210  23.446  0.0320 -0.0872  0.0277
 3151W        W 5351  20.758   5.358   0.442 -0.0954  0.0933 -0.4243
 3152W        W 5352   6.872   0.049   5.269 -0.2767  0.1136  0.2287
 3153W        W 5353   2.821   6.599  22.976  0.0792  0.0950 -0.0332
 3154W        W 5354   6.725   1.601   1.145 -0.1507  0.0793 -0.1107
 3155W        W 5355  21.240   5.517   3.469 -0.1380 -0.1134 -0.1469
 3156W        W 5356  27.848   0.844  10.468 -0.0634  0.2080 -0.3809
 3157W        W 5357  10.262   4.164  18.237  0.4003  0.0344 -0.0333
 3158W        W 5358   1.639   5.446   8.457 -0.1129 -0.0966  0.3106
 3159W        W 5359  27.225   3.773  20.355  0.1469 -0.0374  0.2037
 3160W        W 5360  23.888   6.795   8.902  0.0657 -0.1265  0.1382
 3161W        W 5361  10.797   0.902  16.049 -0.0599  0.4861  0.0987
 3162W        W 5362   8.354   5.178  17.370 -0.1641 -0.2521  0.4147
 3163W        W 5363   4.829   3.833   8.379 -0.1285 -0.0036 -0.3149
 3164W        W 5364   8.079   1.988   6.453  0.0699 -0.1814 -0.1353
 3165W        W 5365   4.386   1.722   4.718 -0.0385 -0.3093 -0.1126
 3166W        W 5366   5.693   0.286  19.964 -0.1318  0.3046  0.0590
 3167W        W 5367   0.661   5.489  16.782 -0.2073 -0.2946  0.2163
 3168W        W 5368   8.353   5.128  18.307  0.1452  0.1485 -0.0262
 3169W        W 5369  13.072   1.574   0.562  0.3711 -0.3114 -0.3113
 3170W        W 5370  24.117   6.945   5.600  0.1293  0.0247 -0.0647
 3171W        W 5371  22.211   1.238   9.696  0.1340  0.0455  0.2367
 3172W        W 5372   1.566   3.055  16.629 -0.0436 -0.4044  0.2311
 3173W        W 5373  27.744   3.948  25.526  0.1061  0.0165  0.2940
 3174W        W 5374  30.005   6.390  10.815 -0.2270  0.0266 -0.0870
 3175W        W 5375  12.354   0.395  22.786  0.3136  0.1036  0.0323
 3176W        W 5376  27.704   3.788   2.360 -0.5019  0.2761  0.0422
 3177W        W 5377   4.165   1.492   7.222  0.1214  0.1220 -0.0649
 3178W        W 5378  20.178   1.305   0.418 -0.2292  0.1260  0.0619
 3179W        W 5379  30.676   2.663   0.907 -0.1343  0.0605 -0.1413
 3180W        W 5380  15.776   3.343  21.210 -0.4445 -0.2770  0.0201
 3181W        W 5381  12.470   5.167   2.122 -0.0662  0.0713  0.2785
 3182W        W 5382  30.390   5.015   9.057 -0.0872  0.1001 -0.0085
 3183W        W 5383  22.425   4.735  21.763 -0.2959 -0.1332 -0.0350
 3184W        W 5384   8.633   6.616  19.645  0.2462 -0.1387  0.0136
 3185W        W 5385   3.799   2.552   2.477 -0.1844 -0.1547 -0.0316
 3186W        W 5386   2.145   4.343   0.304 -0.2917 -0.1359 -0.1861
 3187W        W 5387   1.059   5.279   3.868 -0.1782  0.0497 -0.2359
 3188W        W 5388   6.281   1.816  16.400 -0.2089 -0.1288 -0.1225
 3189W        W 5389  12.444   7.762  20.712  0.0042  0.0377  0.0211
 3190W        W 5390  11.669   7.171  26.003  0.1787 -0.1564  0.1768
 3191W        W 5391  16.278   2.271   3.866  0.0779  0.1670  0.1181
 3192W        W 5392  29.772   3.491   9.234  0.0964 -0.1014  0.0341
 3193W        W 5393   8.160   4.982   8.785 -0.0453  0.0392 -0.1403
 3194W        W 5394  20.117   0.845  25.406 -0.3747  0.0596  0.1109
 3195W        W 5395  26.028   1.836  23.766  0.2542  0.2492 -0.1095
 3196W        W 5396  13.224   2.092   9.623  0.1408 -0.0494  0.0941
 3197W        W 5397  12.123   0.673   7.853 -0.0060  0.0740 -0.0326
 3198W        W 5398  15.385   1.254   8.498 -0.0497  0.0488  0.0991
 3199W        W 5399  16.754   7.748   6.107 -0.2821  0.0301  0.0703
 3200W        W 5400  10.803   4.418  10.394  0.3658  0.0351  0.0057
 3201W        W 5401  16.975   1.071  24.468 -0.1879  0.0871 -0.1517
 3202W        W 5402  15.499   0.000   5.542 -0.0364  0.1173 -0.0977
 3203W        W 5403  11.817   7.599  18.224  0.2197  0.2301 -0.1512
 3204W        W 5404   1.687   2.175  22.288  0.1339 -0.1070  0.0940
 3205W        W 5405   8.252   0.384  17.690 -0.4125 -0.1616  0.0813
 3206W        W 5406  11.486   7.670   7.181 -0.2816  0.3582  0.1463
 3207W        W 5407  22.019   5.981   4.325  0.0446 -0.0202 -0.0344
 3208W        W 5408   9.399   1.475  11.255 -0.3507  0.0194  0.1320
 3209W        W 5409   3.240   6.486  16.180 -0.2672  0.2595  0.1605
 3210W        W 5410  20.297   3.910   9.388  0.0415  0.2438  0.2163
 3211W        W 5411  24.371   4.481   7.518 -0.2021  0.2258 -0.2208
 3212W        W 5412   4.328   0.520  22.791  0.0756  0.4412  0.4033
 3213W        W 5413  10.718   6.971  19.514  0.1289  0.1091 -0.1641
 3214W        W 5414  20.855   1.137  22.188 -0.2068  0.1499 -0.0006
 3215W        W 5415  26.668   1.116  24.562  0.0262  0.1337 -0.1846
 3216W        W 5416  27.166   2.368  25.946  0.1885 -0.1417  0.1971
 3217W        W 5417  11.071   1.791   9.967  0.0574  0.0484  0.0729
 3218W        W 5418   2.905   0.189   5.364 -0.0106 -0.2105  0.1523
 3219W        W 5419   0.101   6.007   1.152 -0.1357  0.0925 -0.2207
 3220W        W 5420  16.736   6.406  18.542  0.0947  0.0390 -0.1323
 3221W        W 5421  22.688   1.069  21.256  0.1699  0.2096  0.2665
 3222W        W 5422  13.177   5.277   3.094 -0.0969 -0.1891  0.1149
 3223W        W 5423  20.026   1.952  24.887 -0.1872 -0.1096 -0.0057
 3224W        W 5424  15.909   3.482  21.740  0.3524  0.2909  0.3001
 3225W        W 5425   9.039   3.820  18.743 -0.0841  0.1008 -0.1613
 3226W        W 5426  10.188   3.042   5.509  0.1462  0.3257 -0.2055
 3227W        W 5427  30.533   4.104   7.964 -0.1752  0.1619  0.1710
 3228W        W 5428  20.609   4.041   9.914 -0.0312  0.1401 -0.3916
 3229W        W 5429   1.048   0.615   1.934  0.0738 -0.0237  0.2302
 3230W        W 5430  16.218   5.610  15.435  0.1603  0.0635  0.0823
 3231W        W 5431   5.096   0.452   4.164 -0.0943  0.3281 -0.1734
 3232W        W 5432   4.303   1.690   5.221 -0.3513  0.1254  0.0027
 3233W        W 5433   5.699   5.735   6.438  0.1190 -0.3614  0.0374
 3234W        W 5434   0.965   0.900   3.419 -0.2546  0.0951  0.0685
 3235W        W 5435  12.669   0.011   4.824 -0.0947  0.0028  0.2657
 3236W        W 5436  23.297   1.030  17.989 -0.0957  0.0075  0.0900
 3237W        W 5437   3.741   1.696   5.538  0.0282 -0.1558  0.0423
 3238W        W 5438   9.220   2.465   1.351 -0.3313  0.0132  0.3273
 3239W        W 5439  14.709   6.292   9.134 -0.2486  0.1042  0.4303
 3240W        W 5440   0.416   2.601  16.016 -0.2899  0.0815  0.0682
 3241W        W 5441   5.433   5.391   2.258 -0.0768 -0.1722  0.0371
 3242W        W 5442  22.464   4.819  23.919 -0.1517 -0.1749 -0.0499
 3243W        W 5443  23.553   4.624   5.322  0.0264 -0.0410  0.1360
 3244W        W 5444   2.006   0.361  10.646 -0.0554 -0.0788  0.3074
 3245W        W 5445   5.567   3.213  20.873  0.0987  0.1707 -0.1269
 3246W        W 5446  10.874   5.958  19.495  0.0370  0.0552  0.1192
 3247W        W 5447  17.591   1.820  16.485 -0.1830  0.1980  0.1685
 3248W        W 5448  25.484   7.281  17.247  0.1987  0.1450 -0.2510
 3249W        W 5449   5.833   5.522   7.915  0.2688  0.1121 -0.0761
 3250W        W 5450   9.012   4.865  20.042 -0.0888 -0.2081 -0.1763
 3251W        W 5451  14.465   5.003   1.133  0.0450  0.0882  0.1358
 3252W        W 5452   9.600   7.072  25.127  0.0621 -0.1181  0.0969
 3253W        W 5453  20.072   2.061   5.069  0.0256 -0.1452  0.1557
 3254W        W 5454   7.097   0.124   7.925  0.0621  0.0317 -0.1238
 3255W        W 5455   8.143   7.577   9.583 -0.1268 -0.0525 -0.0641
 3256W        W 5456   1.142   1.802   7.327 -0.1164  0.2117 -0.2504
 3257W        W 5457  28.525   2.640   1.071 -0.1041  0.0476  0.1876
 3258W        W 5458   6.288   4.169  16.664  0.1314  0.0685 -0.3634
 3259W        W 5459  24.365   1.198  18.139 -0.3463  0.1459 -0.0276
 3260W        W 5460   2.144   1.709  25.710 -0.0456  0.1425 -0.0290
 3261W        W 5461   4.487   5.293   2.551 -0.2212 -0.3090  0.3595
 3262W        W 5462  11.424   7.185   9.821 -0.0086 -0.3222  0.0922
 3263W        W 5463   3.485   6.515  16.764 -0.0655 -0.0310 -0.1810
 3264W        W 5464  26.198   1.549   2.115  0.0796  0.2991  0.2076
 3265W        W 5465  29.494   2.420  10.991  0.0220 -0.1782 -0.1474
 3266W        W 5466   7.278   5.905  15.673 -0.2807  0.2292 -0.0367
 3267W        W 5467  31.277   5.910  10.509  0.1684 -0.1310 -0.0006
 3268W        W 5468  29.735   6.620  18.418 -0.0481 -0.1466 -0.2088
 3269W        W 5469  27.675   2.387   0.588 -0.1894 -0.1000 -0.0265
 3270W        W 5470  31.230   7.343  21.545 -0.0391  0.0771 -0.1373
 3271W        W 5471  14.661   3.187  21.720  0.1036  0.0737  0.2348
 3272W        W 5472  28.897   5.443   9.913 -0.1500  0.1573 -0.0190
 3273W        W 5473  14.994   4.651  22.894  0.0549  0.0845  0.0749
 3274W        W 5474   9.852   5.370  21.426 -0.0362  0.0279  0.0793
 3275W        W 5475  22.309   0.365  25.370 -0.0978 -0.0081 -0.2911
 3276W        W 5476   9.102   2.284   5.589 -0.4443 -0.0841 -0.2531
 3277W        W 5477  28.459   6.249  23.199 -0.0785 -0.0813  0.1419
 3278W        W 5478  28.761   1.757  18.196  0.0258  0.3892  0.0763
 3279W        W 5479  27.778   0.687  20.618  0.1927 -0.2464  0.0388
 3280W        W 5480  15.478   6.003  23.702 -0.2774  0.2462 -0.0397
 3281W        W 5481  12.683   6.574  24.556  0.0596 -0.2836  0.1343
 3282W        W 5482  12.194   0.149   3.525  0.1959  0.0152  0.0512
 3283W        W 5483   1.879   7.652   0.664  0.1615 -0.2302 -0.0233
 3284W        W 5484  26.844   0.907   2.696  0.1876 -0.0974  0.0913
 3285W        W 5485  21.730   5.734   3.409 -0.2173 -0.0680  0.1015
 3286W        W 5486  23.215   4.588   0.051  0.1382 -0.1401 -0.1546
 3287W        W 5487   4.146   6.708   3.201 -0.0099 -0.1831  0.4074
 3288W        W 5488  11.749   4.288   1.976  0.2971 -0.0943  0.2374
 3289W        W 5489  28.084   1.586   8.563 -0.2887  0.1900 -0.1302
 3290W        W 5490   1.511   0.151  20.301  0.0508 -0.0253  0.2037
 3291W        W 5491  30.766   5.347   8.877 -0.0367 -0.0551 -0.0268
 3292W        W 5492  20.701   1.197  18.475 -0.2965  0.0799  0.2902
 3293W        W 5493   7.866   5.727  15.045 -0.0073 -0.1441 -0.2867
 3294W        W 5494  10.514   3.864   7.112  0.1561  0.2332 -0.3918
 3295W        W 5495   5.689   7.385   1.005  0.0396 -0.2912 -0.0999
 3296W        W 5496  22.265   6.417  10.147 -0.2455  0.0406  0.2731
 3297W        W 5497   2.747   2.339   2.857  0.2772  0.2569 -0.0252
 3298W        W 5498  15.462   2.826   6.411 -0.1478 -0.1175  0.3639
 3299W        W 5499  13.429   1.259   6.887 -0.0099 -0.0840  0.0868
 3300W        W 5500  12.079   6.026  16.571  0.2230  0.2878  0.1821
 3301W        W 5501   1.615   2.539  16.625 -0.0909  0.0338  0.2205
 3302W        W 5502  23.203   5.626   6.434 -0.2410 -0.1692 -0.1253
 3303W        W 5503  28.521   0.228   0.366  0.2653 -0.1104  0.1500
 3304W        W 5504  29.143   5.613   8.977  0.3035  0.0376 -0.0366
 3305W        W 5505   9.935   6.669  21.515  0.0901 -0.0671 -0.2641
 3306W        W 5506  21.190   7.620  18.714 -0.0758 -0.0519  0.0561
 3307W        W 5507   1.645   1.180   5.481  0.0684  0.0830 -0.1437
 3308W        W 5508  19.299   0.072   0.728 -0.1928 -0.1790 -0.2925
 3309W        W 5509   0.015   7.765  25.072 -0.1361  0.1317  0.0439
 3310W        W 5510   8.466   2.802  10.255 -0.1099 -0.0561  0.1280
 3311W        W 5511   7.087   4.497   6.200 -0.0150  0.0857  0.0411
 3312W        W 5512  25.856   4.940  24.002  0.1990  0.1385  0.0072
 3313W        W 5513   2.778   5.073   6.987 -0.0903 -0.0454  0.3202
 3314W        W 5514  19.712   7.554  23.501  0.0079 -0.0078  0.2611
 3315W        W 5515   9.047   1.543  23.750 -0.2001 -0.2988  0.1921
 3316W        W 5516  15.073   4.070   8.831 -0.0387 -0.0123  0.1192
 3317W        W 5517   4.769   6.920  17.046 -0.1976  0.1316 -0.3167
 3318W        W 5518  23.091   4.016  18.882  0.0306 -0.1912  0.0645
 3319W        W 5519  16.077   5.030  24.171 -0.0951  0.0130 -0.1332
 3320W        W 5520  24.171   2.389   9.739  0.0099  0.1086  0.0295
 3321W        W 5521  28.483   0.427   7.072  0.2531 -0.2855 -0.0441
 3322W        W 5522  17.061   7.011   8.539  0.0373  0.2151  0.0404
 3323W        W 5523  16.463   3.899   2.511  0.0048 -0.1833 -0.1119
 3324W        W 5524  30.306   5.663  26.123  0.0025 -0.4607  0.1726
 3325W        W 5525   8.389   6.823   0.819  0.1087 -0.2710  0.1704
 3326W        W 5526  13.494   4.242  20.732 -0.0929  0.0077 -0.2017
 3327W        W 5527  15.654   3.583  23.498 -0.0550  0.1927  0.0084
 3328W        W 5528  15.816   4.009   0.725  0.3366 -0.2503  0.0302
 3329W        W 5529  10.445   0.707  20.795  0.1849  0.1854 -0.1789
 3330W        W 5530   6.828   2.904  19.451  0.0140  0.0584  0.1239
 3331W        W 5531  20.871   1.769   3.068 -0.1085  0.1485 -0.1100
 3332W        W 5532  29.541   5.542  24.467  0.1684 -0.2490 -0.0007
 3333W        W 5533  22.947   7.168   1.697 -0.0323  0.1334  0.2742
 3334W        W 5534  16.726   5.795  23.977  0.0505  0.0544  0.2864
 3335W        W 5535  19.773   3.555   6.259  0.2678 -0.0814  0.3526
 3336W        W 5536  21.121   0.838   8.695 -0.1498 -0.0493 -0.1740
 3337W        W 5537  21.817   7.754   3.112 -0.0928 -0.1544  0.1446
 3338W        W 5538   9.416   4.471  18.823  0.0556  0.1413  0.0256
 3339W        W 5539  28.834   2.095   2.323  0.1543  0.1245  0.0391
 3340W        W 5540  10.879   0.680   1.259  0.1309  0.1395  0.2790
 3341W        W 5541  30.574   3.000  23.683  0.2490 -0.0161  0.3449
 3342W        W 5542  11.463   3.079  10.673  0.1240  0.0024  0.0333
 3343W        W 5543   4.434   3.669   4.025 -0.0120  0.0081  0.1356
 3344W        W 5544  16.973   6.428   4.368 -0.2179  0.3914 -0.0102
 3345W        W 5545  14.770   3.923  17.911  0.0443  0.1062  0.3623
 3346W        W 5546  13.848   7.392  23.097 -0.1836 -0.1135 -0.1771
 3347W        W 5547  25.227   4.974  11.425  0.2112 -0.1517 -0.2091
 3348W        W 5548  11.483   6.690  19.130 -0.1687 -0.0985 -0.0497
 3349W        W 5549  22.642   7.162   4.448 -0.2976 -0.3054  0.0777
 3350W        W 5550   6.371   7.630  20.555  0.3323  0.0021 -0.0287
 3351W        W 5551  27.200   6.834   5.018  0.0140 -0.0797 -0.0564
 3352W        W 5552   2.603   3.093   6.263  0.0642  0.3033  0.0036
 3353W        W 5553  11.263   6.934  14.884 -0.1455 -0.4011  0.2750
 3354W        W 5554  23.423   7.744  25.206  0.0756  0.0824 -0.0651
 3355W        W 5555   5.497   2.521  17.797  0.2284  0.0651 -0.2636
 3356W        W 5556  19.650   1.107   6.302  0.1437  0.1658  0.2122
 3357W        W 5557   2.801   1.571  24.552 -0.0818 -0.2000 -0.2114
 3358W        W 5558   1.345   3.381   2.137  0.0707  0.3571  0.0259
 3359W        W 5559  16.090   5.325  26.176 -0.0117  0.1664 -0.2696
 3360W        W 5560  27.760   7.119  17.217  0.0206  0.0668 -0.2552
 3361W        W 5561   3.770   0.422  22.701 -0.0572  0.0979 -0.0345
 3362W        W 5562  16.498   2.184  21.640  0.3176 -0.2574  0.1035
 3363W        W 5563  21.426   3.100  23.692  0.3283 -0.1153 -0.1152
 3364W        W 5564  13.184   3.613  21.300  0.1377  0.1870  0.0581
 3365W        W 5565   3.461   4.503   6.691  0.1993 -0.1163 -0.1210
 3366W        W 5566  22.737   5.201   3.545 -0.2426  0.0167  0.0909
 3367W        W 5567  28.693   6.143  20.535 -0.1975 -0.0648 -0.3202
 3368W        W 5568  16.020   2.674  14.858 -0.3099 -0.1901 -0.1924
 3369W        W 5569   8.140   7.031  19.259 -0.1768 -0.1548 -0.0449
 3370W        W 5570   5.790   1.021   7.242  0.2433  0.0183  0.0389
 3371W        W 5571   0.434   3.037  19.497  0.0444 -0.2239 -0.1626
 3372W        W 5572  12.678   2.319   5.252  0.0869  0.0390  0.0838
 3373W        W 5573   7.039   4.440   4.401  0.0879 -0.0516 -0.1916
 3374W        W 5574  13.540   4.080  24.468 -0.1036  0.0057 -0.0516
 3375W        W 5575  12.945   1.868  10.113  0.2365  0.1109 -0.2450
 3376W        W 5576  22.040   6.522   9.580  0.1005  0.0690  0.0921
 3377W        W 5577   7.638   6.756  19.759 -0.0721  0.1957  0.1047
 3378W        W 5578  10.895   2.846  26.127  0.1545 -0.0824 -0.0576
 3379W        W 5579  27.063   2.429   1.478 -0.2098  0.0098 -0.2514
 3380W        W 5580   7.639   1.301   8.175  0.1062  0.2492  0.0407
 3381W        W 5581  28.887   5.199   0.232 -0.0420 -0.1951  0.2361
 3382W        W 5582   1.313   7.479  24.325  0.2129 -0.3129  0.3729
 3383W        W 5583  17.224   4.418  20.796  0.0366  0.0373 -0.0801
 3384W        W 5584   2.476   3.514   4.050 -0.0967  0.1355  0.0097
 3385W        W 5585  20.864   2.896   8.343 -0.1353  0.0531 -0.1795
 3386W        W 5586  15.845   4.505   0.497 -0.0712  0.2817 -0.0183
 3387W        W 5587  17.969   0.402   9.973  0.0521  0.0207  0.2375
 3388W        W 5588  11.442   3.604   5.990  0.0696 -0.2379 -0.4490
 3389W        W 5589  10.825   4.605  20.121 -0.2217 -0.3958 -0.1504
 3390W        W 5590  12.493   0.788  23.585 -0.1059 -0.3804 -0.1339
 3391W        W 5591  23.578   7.590  23.770  0.1634 -0.0610  0.0553
 3392W        W 5592  18.803   4.887  22.681  0.1003  0.0501  0.1863
 3393W        W 5593  12.785   4.385  25.603  0.2783 -0.0748  0.2148
 3394W        W 5594  15.782   2.318  15.188  0.2571 -0.4038 -0.2202
 3395W        W 5595  12.357   4.268   3.267 -0.1909  0.2932 -0.1159
 3396W        W 5596  18.493   0.793  16.554  0.2244 -0.1427  0.0088
 3397W        W 5597   4.117   0.426  18.517 -0.0165 -0.3502 -0.0156
 3398W        W 5598  21.528   5.094   1.490 -0.1667  0.2187 -0.2268
 3399W        W 5599  23.555   3.255   6.889 -0.1398 -0.0520  0.2373
 3400W        W 5600  20.257   6.658  17.027  0.0889  0.1548 -0.1084
 3401W        W 5601   6.432   3.440  16.330  0.1640 -0.0155  0.0306
 3402W        W 5602  20.242   1.834   1.203  0.1508 -0.0081 -0.0881
 3403W        W 5603  30.983   2.281  15.889 -0.1100  0.0506 -0.0477
 3404W        W 5604  17.430   2.483   5.964  0.3190  0.0886  0.1525
 3405W        W 5605  18.567   1.181   1.110  0.1747  0.1264  0.0034
 3406W        W 5606  21.167   0.806   4.087 -0.0053 -0.1000  0.2398
 3407W        W 5607   8.260   6.690   3.245 -0.1057  0.0394  0.0300
 3408W        W 5608   9.336   3.726   3.333  0.2438 -0.3139 -0.4166
 3409W        W 5609  19.231   3.138   9.652 -0.1169 -0.1364  0.3115
 3410W        W 5610  29.070   5.453  22.521  0.1245 -0.0954  0.3838
 3411W        W 5611   9.842   4.032  23.329  0.2940 -0.1078 -0.1516
 3412W        W 5612   2.372   4.404  16.174  0.1827 -0.2926 -0.3127
 3413W        W 5613  18.611   4.239  25.965  0.0105 -0.1390 -0.1205
 3414W        W 5614  11.111   0.620   2.918  0.1393 -0.0277 -0.0767
 3415W        W 5615  29.843   6.542  24.545 -0.0347  0.2489 -0.0881
 3416W        W 5616   4.903   3.761   3.637  0.1495  0.0774 -0.1145
 3417W        W 5617  16.543   6.246  23.715 -0.0084 -0.0918 -0.0693
 3418W        W 5618   1.471   3.076  11.250  0.0206 -0.1376 -0.2774
 3419W        W 5619   2.752   3.883  16.530  0.6054 -0.2035  0.1102
 3420W        W 5620  18.465   0.821  17.697  0.1099 -0.1876 -0.2227
 3421W        W 5621   3.700   7.606   5.397 -0.0489 -0.1200  0.1422
 3422W        W 5622   8.795   3.443  25.694  0.1082 -0.0549 -0.3058
 3423W        W 5623  18.667   0.315  21.588 -0.3836  0.2629 -0.2202
 3424W        W 5624   0.512   4.774  21.679 -0.2536  0.1498  0.0559
 3425W        W 5625  12.064   5.457  24.954  0.2309 -0.0754 -0.0306
 3426W        W 5626  17.945   2.613   4.982 -0.0344 -0.0138  0.2290
 3427W        W 5627  27.696   6.333  10.471 -0.0241  0.0317  0.3217
 3428W        W 5628  28.974   3.110   9.736 -0.2486 -0.2899  0.0610
 3429W        W 5629  13.070   0.321   7.689 -0.1371  0.3430  0.1730
 3430W        W 5630  26.176   3.523  22.554 -0.0646  0.1967 -0.0818
 3431W        W 5631  30.208   7.440   6.886 -0.0110  0.3610  0.1929
 3432W        W 5632   7.298   6.209  14.779 -0.2484  0.0860 -0.1082
 3433W        W 5633  17.744   6.155  20.787 -0.0717 -0.3824  0.0742
 3434W        W 5634   1.885   2.639   5.942  0.0625  0.2289 -0.0930
 3435W        W 5635  17.624   1.149   1.726  0.0633 -0.3031  0.2018
 3436W        W 5636  21.669   1.157   2.450  0.0097  0.0527  0.0737
 3437W        W 5637  25.014   2.468   7.439  0.2249 -0.1132 -0.1739
 3438W        W 5638  15.137   2.751   5.019 -0.2812  0.0003  0.2890
 3439W        W 5639  16.724   2.904  24.064  0.0414 -0.4236  0.1369
 3440W        W 5640  19.669   4.545  14.775 -0.0287 -0.1253 -0.1597
 3441W        W 5641   9.675   6.815   5.587  0.1979 -0.1633  0.0020
 3442W        W 5642   2.323   2.575   9.884 -0.1742  0.0295  0.1954
 3443W        W 5643  20.286   1.268  22.861 -0.0602  0.0186 -0.1301
 3444W        W 5644   2.259   4.686  16.905 -0.2307 -0.1632  0.3168
 3445W        W 5645  12.833   2.761  21.015 -0.2464  0.2505 -0.0084
 3446W        W 5646  29.256   6.758  20.616 -0.1709  0.1515 -0.3672
 3447W        W 5647  16.555   3.191  25.796  0.1424  0.0103  0.1214
 3448W        W 5648   8.237   0.620  18.218  0.1528  0.2838 -0.0571
 3449W        W 5649   3.735   5.318  24.730 -0.1266 -0.0138  0.0705
 3450W        W 5650   8.922   3.363   8.273  0.1185  0.1559 -0.2259
 3451W        W 5651  17.703   1.028   8.143  0.0628  0.2822 -0.1142
 3452W        W 5652  10.766   3.049  10.043  0.1043 -0.2152  0.0136
 3453W        W 5653  25.525   3.084   5.786  0.1597  0.0307 -0.0811
 3454W        W 5654  12.341   4.658  24.722  0.0787  0.0593  0.0558
 3455W        W 5655  14.424   6.398   2.204  0.1670 -0.1585  0.1263
 3456W        W 5656  29.018   1.219  25.549  0.1804 -0.0455 -0.1935
 3457W        W 5657   8.857   5.359  25.720  0.0428 -0.1686 -0.1187
 3458W        W 5658   9.140   1.912   6.403  0.2017 -0.0495 -0.0573
 3459W        W 5659   4.419   6.922  21.691  0.0711  0.0883  0.3805
 3460W        W 5660  25.038   3.910   1.564  0.0278  0.0341  0.2419
 3461W        W 5661  23.872   2.301   8.867 -0.1528 -0.1035 -0.1507
 3462W        W 5662   1.776   0.254  25.473  0.3266  0.1957 -0.0198
 3463W        W 5663  13.900   6.199  22.425 -0.1129  0.2583  0.0319
 3464W        W 5664  25.616   2.020  19.801 -0.1693 -0.0100 -0.2048
 3465W        W 5665  15.974   0.536  23.037  0.1040  0.2023  0.1132
 3466W        W 5666  18.505   0.101   1.714 -0.2172  0.0454 -0.1731
 3467W        W 5667  15.295   6.366   8.817 -0.2816  0.0158  0.1292
 3468W        W 5668   7.447   5.602  24.455  0.1222 -0.2174  0.0299
 3469W        W 5669  28.617   6.117   0.652 -0.3588 -0.0432  0.1104
 3470W        W 5670  25.839   4.311   0.962  0.1687 -0.2839 -0.1499
 3471W        W 5671  26.334   2.740  15.311 -0.1787  0.4320 -0.1455
 3472W        W 5672   3.996   3.392  21.594  0.1075  0.0358 -0.2572
 3473W        W 5673   5.396   6.824   5.755 -0.0643  0.0132 -0.0393
 3474W        W 5674  26.548   6.080   1.724  0.0400 -0.2295  0.2331
 3475W        W 5675  26.194   3.783   1.498  0.2334 -0.2302  0.3805
 3476W        W 5676  21.087   7.800  15.455  0.1107  0.3455 -0.2961
 3477W        W 5677  29.490   0.633  10.687 -0.0313 -0.1862 -0.0980
 3478W        W 5678  30.257   3.038  20.815 -0.0180 -0.0674  0.0420
 3479W        W 5679  18.919   5.533  26.053  0.0948  0.1228  0.1048
 3480W        W 5680  16.973   5.449   8.277 -0.2588  0.2226 -0.1874
 3481W        W 5681   2.334   3.319   2.106  0.0630  0.2385 -0.3518
 3482W        W 5682   8.560   4.960  10.200  0.0218  0.0417 -0.0381
 3483W        W 5683  10.650   3.916   0.318  0.0196 -0.0666  0.1993
 3484W        W 5684  27.592   0.570  25.913 -0.1776  0.4647 -0.2384
 3485W        W 5685   9.784   3.421   9.567  0.0447  0.0190  0.2065
 3486W        W 5686   1.723   7.040   1.644 -0.0547  0.2022 -0.0340
 3487W        W 5687  14.138   1.427   8.270  0.1675  0.0178 -0.0128
 3488W        W 5688   1.300   7.722   5.121 -0.2085 -0.2370 -0.1492
 3489W        W 5689  11.850   6.792   2.594 -0.0207 -0.0344 -0.0353
 3490W        W 5690  16.060   5.394  25.151 -0.0549  0.0577  0.2131
 3491W        W 5691  11.075   3.691  18.788 -0.0185  0.4019  0.2172
 3492W        W 5692  15.744   7.157   0.848 -0.2551  0.2012  0.0267
 3493W        W 5693   6.455   1.087   2.358 -0.0525  0.0941 -0.3181
 3494W        W 5694  18.707   6.500  10.177 -0.1449  0.0214 -0.1023
 3495W        W 5695  17.536   5.173  21.865 -0.2158  0.0767  0.2325
 3496W        W 5696  24.301   4.090   5.548  0.0772 -0.3260 -0.1318
 3497W        W 5697  23.970   1.453  15.585  0.1358 -0.0544 -0.0969
 3498W        W 5698   6.618   1.083  16.609  0.0640  0.2957  0.0236
 3499W        W 5699  25.028   5.396  22.487  0.1986  0.1233  0.0040
 3500W        W 5700   1.108   3.577  22.228 -0.0079  0.1210 -0.4542
 3501W        W 5701  10.222   2.156  22.440 -0.0608 -0.0518  0.0388
 3502W        W 5702   7.148   5.753   2.435 -0.1011  0.1384 -0.2616
 3503W        W 5703   0.518   4.933  24.296 -0.4709  0.2163 -0.1401
 3504W        W 5704   8.590   4.336   2.295  0.1475 -0.0420  0.2363
 3505W        W 5705   6.165   3.063  23.506  0.4446 -0.1109 -0.1357
 3506W        W 5706  16.646   5.986   7.644  0.0675  0.1769  0.2142
 3507W        W 5707  10.989   5.431   9.469  0.0150 -0.2808 -0.0486
 3508W        W 5708   9.411   1.453  18.786 -0.2563  0.0050  0.0454
 3509W        W 5709   4.929   1.695   0.545  0.2603 -0.4689  0.2475
 3510W        W 5710  23.838   3.031   5.992  0.2642 -0.2184  0.2517
 3511W        W 5711  20.335   6.969  18.256 -0.1623 -0.0705  0.0409
 3512W        W 5712   4.387   0.634  25.287 -0.1463  0.1224 -0.1807
 3513W        W 5713   4.232   1.749   2.585 -0.0184 -0.1956 -0.1818
 3514W        W 5714  13.277   7.290  17.746 -0.2705  0.0964 -0.0548
 3515W        W 5715  18.439   5.838  23.486  0.1495  0.3180  0.0446
 3516W        W 5716  24.109   1.977  24.238 -0.0651  0.0514  0.1457
 3517W        W 5717  30.351   7.278   6.104 -0.0156 -0.2578 -0.3246
 3518W        W 5718   4.268   4.617  20.004  0.0771 -0.0480  0.2497
 3519W        W 5719  22.910   2.286  10.115 -0.2753  0.0188  0.3207
 3520W        W 5720  25.531   5.419   7.038  0.0434  0.0199 -0.4190
 3521W        W 5721  11.400   1.025   3.006 -0.1994  0.1492  0.1237
 3522W        W 5722  23.054   5.482  18.103  0.1863 -0.0045  0.1457
 3523W        W 5723  30.333   5.082  20.849 -0.1833  0.0052  0.0357
 3524W        W 5724  25.032   7.377  24.883  0.1435 -0.1107  0.1660
 3525W        W 5725  15.038   2.709  24.458  0.0229  0.2260 -0.2199
 3526W        W 5726  30.465   7.258   1.377  0.2153 -0.1075  0.1101
 3527W        W 5727  21.099   0.467   2.329  0.0063  0.2069 -0.0736
 3528W        W 5728  30.956   4.337   9.208  0.4849  0.0918 -0.1336
 3529W        W 5729  10.079   2.922   6.680  0.1394  0.2599 -0.0414
 3530W        W 5730  29.799   6.290  10.119  0.1584 -0.0999 -0.0583
 3531W        W 5731   3.405   1.973   2.072  0.0107 -0.1889 -0.1122
 3532W        W 5732  13.724   7.625   1.873 -0.0355  0.1555 -0.0411
 3533W        W 5733  23.341   2.889  10.548 -0.0954 -0.0100 -0.1319
 3534W        W 5734  20.951   4.877  18.500 -0.1445 -0.1943 -0.0886
 3535W        W 5735  20.715   3.537  22.089  0.3209 -0.3055 -0.0915
 3536W        W 5736  21.631   3.253   2.269 -0.1719 -0.0225  0.2383
 3537W        W 5737   1.449   7.343   6.183 -0.0426  0.2784 -0.3571
 3538W        W 5738  31.044   5.772   5.421  0.0066 -0.0824 -0.0770
 3539W        W 5739  22.400   7.766   7.518 -0.2698  0.1800  0.2295
 3540W        W 5740  12.472   3.961   8.927  0.1073  0.0802 -0.0034
 3541W        W 5741  27.713   1.697  16.944  0.3319  0.1509  0.1552
 3542W        W 5742  30.623   3.427  10.022 -0.0915  0.0581  0.3384
 3543W        W 5743   0.004   1.023  18.609  0.0381  0.2741  0.0697
 3544W        W 5744   3.038   2.567  16.459  0.3265  0.1384 -0.0193
 3545W        W 5745  15.135   5.320  22.137 -0.1416 -0.1423 -0.0294
 3546W        W 5746   5.265   3.401   5.397  0.2758 -0.0582  0.3196
 3547W        W 5747  10.817   3.954   5.010 -0.0260 -0.0698  0.0106
 3548W        W 5748  17.393   7.699   2.673 -0.0619 -0.2343  0.0796
 3549W        W 5749  10.050   5.166  22.294 -0.1472  0.2548 -0.1567
 3550W        W 5750  26.982   3.014  22.099 -0.1317  0.0494  0.1528
 3551W        W 5751  12.799   5.951  19.251  0.1539 -0.1459 -0.1874
 3552W        W 5752   2.777   3.920  10.244  0.0274  0.1267 -0.0563
 3553W        W 5753  24.518   1.188   0.369  0.1951  0.0677  0.2564
 3554W        W 5754  10.681   4.068   0.864 -0.1021  0.5326 -0.1874
 3555W        W 5755  22.859   6.412  19.112  0.2599  0.0746 -0.1268
 3556W        W 5756  22.862   4.767  21.430  0.3939 -0.0054  0.0459
 3557W        W 5757  29.912   3.753  25.518 -0.0592  0.0135  0.4362
 3558W        W 5758  18.699   5.483   1.622 -0.0888 -0.0390 -0.1983
 3559W        W 5759  22.349   7.521   4.688  0.2116  0.0190  0.0130
 3560W        W 5760  12.000   3.724  21.110 -0.0033 -0.0378  0.0669
 3561W        W 5761   5.946   2.435  20.478  0.1320 -0.0983  0.0673
 3562W        W 5762  10.089   4.161  21.938  0.1167  0.1609  0.1774
 3563W        W 5763  15.453   2.669   0.224  0.3374  0.4465  0.0200
 3564W        W 5764   9.599   4.546  20.875 -0.0686 -0.0903 -0.0044
 3565W        W 5765   0.631   3.809   5.201  0.0173 -0.2025 -0.3176
 3566W        W 5766  17.096   4.395  24.675  0.3325  0.4150  0.2196
 3567W        W 5767  20.327   7.180  24.047 -0.0167 -0.1972 -0.0622
 3568W        W 5768  27.457   0.200   7.199 -0.3453 -0.0867 -0.2549
 3569W        W 5769   9.741   3.071  19.326 -0.2010  0.0854 -0.0234
 3570W        W 5770  17.668   2.440  15.922 -0.0850  0.2640  0.2818
 3571W        W 5771  17.131   7.661  21.058  0.0516  0.0625  0.3862
 3572W        W 5772  20.223   0.322   8.155 -0.1178 -0.1310 -0.0042
 3573W        W 5773  21.021   2.480  21.558 -0.0785  0.0726  0.3002
 3574W        W 5774  23.963   0.157   0.184 -0.0686  0.0508  0.1789
 3575W        W 5775  27.469   3.428  10.191  0.0998  0.0591 -0.2174
 3576W        W 5776  29.459   6.898   1.172 -0.1604  0.1430  0.1230
 3577W        W 5777  10.820   4.720   7.204 -0.0982 -0.1491 -0.0557
 3578W        W 5778   7.316   1.658   0.956  0.0316  0.0780  0.0606
 3579W        W 5779  26.844   2.212  25.111 -0.2725  0.0103  0.0578
 3580W        W 5780  15.457   6.558  11.450  0.0909 -0.1243  0.4967
 3581W        W 5781  16.039   5.606  10.288 -0.0085 -0.0655  0.3589
 3582W        W 5782  21.041   3.997  17.766  0.0779  0.0715 -0.1965
 3583W        W 5783  29.328   6.583  22.869  0.3776  0.0691  0.0062
 3584W        W 5784  15.772   7.052  25.446  0.0302  0.0987 -0.2786
 3585W        W 5785  13.575   0.921  16.132 -0.2806  0.0122  0.0653
 3586W        W 5786  17.661   5.333  23.389 -0.0524 -0.3037  0.0311
 3587W        W 5787  25.339   6.629  23.294 -0.2624  0.0808  0.2094
 3588W        W 5788  30.934   5.035  16.038  0.3797 -0.0310 -0.0445
 3589W        W 5789   1.319   5.307  25.115  0.2684  0.0138 -0.3815
 3590W        W 5790  23.697   3.837   9.509 -0.1196  0.0061 -0.1931
 3591W        W 5791  14.473   1.923   5.442 -0.1872  0.1309 -0.1246
 3592W        W 5792  14.577   1.191  22.010  0.1044  0.1046  0.0302
 3593W        W 5793  25.406   7.377   5.660  0.0724 -0.1010 -0.0535
 3594W        W 5794   8.823   5.264  17.013  0.2078 -0.0098  0.2114
 3595W        W 5795  16.103   2.339  23.651 -0.1479 -0.1719 -0.0588
 3596W        W 5796  21.133   2.731   7.002 -0.0847  0.1063 -0.1215
 3597W        W 5797   6.582   2.588   5.418 -0.0090 -0.2805 -0.0977
 3598W        W 5798  13.270   3.631   6.684 -0.1644  0.0153  0.1410
 3599W        W 5799   1.843   1.505   3.215  0.2673  0.1098  0.1507
 3600W        W 5800  22.003   2.763  15.985 -0.0235  0.2238 -0.0282
 3601W        W 5801   8.221   2.821   6.481 -0.2187  0.6694 -0.1810
 3602W        W 5802   5.720   1.266  21.000 -0.0017  0.0213 -0.0979
 3603W        W 5803  24.309   3.083   9.393 -0.0083  0.0197  0.1914
 3604W        W 5804  14.367   3.639  18.156 -0.0166  0.0082  0.0631
 3605W        W 5805   8.111   0.818   3.787  0.3380  0.0478  0.1943
 3606W        W 5806   6.905   6.388  23.878 -0.0234 -0.1246  0.1161
 3607W        W 5807  21.066   0.179   9.383 -0.2287  0.1848 -0.1248
 3608W        W 5808  10.204   7.215   9.125 -0.2412  0.0592 -0.0606
 3609W        W 5809   9.728   6.411  15.520  0.0495 -0.0859 -0.0556
 3610W        W 5810   4.256   1.732  22.115  0.1623 -0.1667  0.0245
 3611W        W 5811  18.636   1.654  15.521  0.3797 -0.0072  0.1520
 3612W        W 5812  22.752   3.407   3.291  0.0215 -0.2088  0.1731
 3613W        W 5813   1.492   1.820  11.508 -0.0511 -0.0610 -0.1186
 3614W        W 5814  30.755   0.517  19.109  0.1700  0.1401 -0.1841
 3615W        W 5815  11.165   5.695   2.071  0.0384  0.1159 -0.0305
 3616W        W 5816   3.460   7.130  10.375 -0.1294 -0.0276  0.1677
 3617W        W 5817  26.900   0.448  24.500  0.0397 -0.2669 -0.0117
 3618W        W 5818   8.351   5.643   1.166 -0.2556  0.1223 -0.1054
 3619W        W 5819   5.896   1.728  20.994 -0.1694 -0.0058  0.0201
 3620W        W 5820  30.352   4.700  23.934  0.0052  0.1086 -0.0761
 3621W        W 5821  13.533   4.493   0.076  0.1423  0.0054 -0.0809
 3622W        W 5822  26.431   5.314  16.036  0.1585 -0.1705  0.0490
 3623W        W 5823   2.716   1.217  10.122  0.1168 -0.1323 -0.1106
 3624W        W 5824  28.619   5.090   2.875 -0.0700 -0.2116  0.2500
 3625W        W 5825  30.141   2.946  18.945  0.1478  0.1559  0.0580
 3626W        W 5826  21.324   2.702  21.140 -0.2675 -0.0399  0.0628
 3627W        W 5827  30.297   2.069  26.139  0.0491 -0.4582 -0.2077
 3628W        W 5828  14.584   7.220  25.547  0.2810 -0.1685 -0.1947
 3629W        W 5829   8.185   4.748  22.281  0.1142  0.0226  0.0885
 3630W        W 5830  20.659   6.134  20.008 -0.1579 -0.0718  0.0548
 3631W        W 5831  21.029   6.124   5.445 -0.0352  0.0692 -0.0516
 3632W        W 5832  26.077   4.344  26.002 -0.0692  0.1494  0.0481
 3633W        W 5833  15.874   3.520   1.224  0.3213 -0.3197  0.4516
 3634W        W 5834  28.189   3.093  24.143 -0.3801  0.2353  0.1378
 3635W        W 5835  18.194   1.653   9.065 -0.0842 -0.0573  0.1135
 3636W        W 5836  27.740   0.534  16.991  0.0287  0.0439 -0.0533
 3637W        W 5837  30.068   4.203  18.206  0.0019  0.3060 -0.2404
 3638W        W 5838  23.678   6.292  19.882  0.0221  0.0002  0.3766
 3639W        W 5839  23.388   3.502  19.940 -0.2596 -0.0818  0.0179
 3640W        W 5840   2.102   7.621  19.777  0.0318  0.0723 -0.1624
 3641W        W 5841   5.725   5.444  21.043 -0.2045 -0.1990  0.1830
 3642W        W 5842  18.452   4.613  22.852 -0.0354 -0.2421 -0.0399
 3643W        W 5843  19.180   0.998   8.662  0.0150  0.0570 -0.0061
 3644W        W 5844  13.833   0.130  18.208 -0.0896 -0.0567 -0.2248
 3645W        W 5845   0.602   4.241  19.625 -0.0210  0.0571 -0.0880
 3646W        W 5846   3.671   0.349  12.150  0.3179  0.0386 -0.2240
 3647W        W 5847   5.928   0.739  24.976 -0.0771 -0.2011 -0.0326
 3648W        W 5848  19.197   0.897  21.370 -0.0143 -0.2292 -0.3669
 3649W        W 5849   6.508   5.363  10.477 -0.0554  0.0187 -0.2317
 3650W        W 5850   5.332   3.400  19.084 -0.0234  0.0215 -0.0831
 3651W        W 5851  25.654   7.288   4.365  0.2025  0.1012  0.3181
 3652W        W 5852  24.902   3.622  15.911  0.0623 -0.4788  0.3243
 3653W        W 5853   7.629   2.803   0.092 -0.1645  0.0365 -0.1382
 3654W        W 5854   8.469   1.431  25.101  0.0808  0.1729 -0.0657
 3655W        W 5855  23.829   4.453  17.347 -0.2514  0.0754 -0.0783
 3656W        W 5856  12.618   1.565  24.419  0.1094  0.1744  0.3499
 3657W        W 5857  22.548   5.646  22.025  0.2072 -0.0218  0.0786
 3658W        W 5858   5.140   2.979   3.986 -0.0178 -0.0994  0.4352
 3659W        W 5859  14.578   6.143   4.658 -0.1359  0.0587  0.2350
 3660W        W 5860  11.813   4.881  22.649  0.0039  0.0721 -0.2015
 3661W        W 5861  15.077   0.230  21.590 -0.0575  0.0203  0.0035
 3662W        W 5862  26.456   6.333  21.347  0.1242 -0.0023 -0.1996
 3663W        W 5863  27.796   6.685   7.933 -0.0433 -0.0598 -0.4646
 3664W        W 5864  29.865   2.291   1.223 -0.2085  0.3749 -0.0745
 3665W        W 5865   8.317   7.701   5.257  0.0958  0.0597 -0.2111
 3666W        W 5866  16.636   2.659  25.944 -0.4119 -0.1006 -0.1957
 3667W        W 5867   2.311   5.387   8.963 -0.2881  0.2416  0.1590
 3668W        W 5868  11.058   6.360  24.474 -0.4530  0.0970  0.0716
 3669W        W 5869  12.947   1.074  24.805  0.1390 -0.2534  0.2435
 3670W        W 5870   8.692   2.188  19.744 -0.3107 -0.0474 -0.1310
 3671W        W 5871   4.212   7.615  20.913 -0.0127 -0.1708  0.0210
 3672W        W 5872  24.831   4.407  22.409 -0.0036  0.2400  0.0079
 3673W        W 5873  16.791   7.380   6.874  0.1734 -0.3478  0.0722
 3674W        W 5874   5.120   7.668  10.429  0.4363  0.1278 -0.0786
 3675W        W 5875  14.269   6.146  18.403  0.0360 -0.1684 -0.0998
 3676W        W 5876  26.534   0.290  22.686  0.2898  0.0833  0.1711
 3677W        W 5877  18.735   2.976  25.296  0.1846  0.0606 -0.0235
 3678W        W 5878  17.810   1.278  25.709  0.0864 -0.0849 -0.1609
 3679W        W 5879   4.570   5.431   7.112  0.1647  0.0115  0.0264
 3680W        W 5880   4.540   1.211  19.233  0.0233  0.0105 -0.3867
 3681W        W 5881  27.925   5.945  10.699  0.2049 -0.0151  0.1951
 3682W        W 5882  30.299   1.307  17.595  0.0984 -0.1931  0.0668
 3683W        W 5883   6.847   1.149   3.645 -0.2792 -0.2893 -0.1880
 3684W        W 5884  28.577   6.970  20.941  0.2019  0.1569 -0.0716
 3685W        W 5885  14.989   6.238  20.715  0.1412 -0.1515 -0.1114
 3686W        W 5886   6.203   5.689   5.607 -0.3326 -0.2137  0.2556
 3687W        W 5887  19.232   3.730   6.222 -0.0188  0.0469  0.1143
 3688W        W 5888   9.271   6.291  15.730  0.0226  0.1235  0.0666
 3689W        W 5889  21.904   7.773  25.945 -0.0551  0.1697 -0.2087
 3690W        W 5890   2.842   3.098   7.092  0.0717 -0.1337 -0.2831
 3691W        W 5891  11.423   1.620  21.646  0.1894  0.2904 -0.1171
 3692W        W 5892   1.570   7.470  23.442 -0.0323 -0.1831 -0.2072
 3693W        W 5893  25.014   1.126  22.349  0.3453  0.2618  0.1272
 3694W        W 5894   7.969   0.348   4.117 -0.2032  0.0299  0.1407
 3695W        W 5895   6.731   5.828  21.737  0.0810 -0.0177 -0.1506
 3696W        W 5896  12.091   5.317  17.463 -0.1084  0.2014  0.0508
 3697W        W 5897  26.312   5.203  14.723  0.2557  0.3447  0.2894
 3698W        W 5898  29.307   4.238  20.081  0.0328 -0.0620  0.0104
 3699W        W 5899  20.797   6.766   6.969 -0.0943 -0.0642 -0.0864
 3700W        W 5900  21.619   6.274  20.929  0.1839  0.2601 -0.2245
 3701W        W 5901   5.396   1.037  18.274  0.4819 -0.1968  0.3688
 3702W        W 5902  20.428   1.366   1.830  0.2049  0.0022  0.1827
 3703W        W 5903   6.694   2.979   1.278 -0.0649 -0.1250  0.0203
 3704W        W 5904  11.158   5.917  10.238  0.1811 -0.0426  0.0939
 3705W        W 5905  11.834   3.088   0.449 -0.0223 -0.1512 -0.1482
 3706W        W 5906   8.543   6.580   6.881  0.0305  0.1187  0.0918
 3707W        W 5907  12.964   7.097  21.407 -0.2848 -0.4338  0.0284
 3708W        W 5908  27.964   2.397  25.902  0.0612  0.1947  0.2115
 3709W        W 5909  13.198   2.101  16.653 -0.2022 -0.0241 -0.1062
 3710W        W 5910  25.283   6.372   3.129 -0.0082 -0.1494  0.2021
 3711W        W 5911  18.539   5.113  19.033 -0.0161  0.0688 -0.0549
 3712W        W 5912   8.677   4.019  19.102  0.4476 -0.1276 -0.1600
 3713W        W 5913  10.503   0.801   5.844  0.0749  0.1558 -0.0146
 3714W        W 5914   3.703   3.225  18.505  0.0248  0.1600  0.0319
 3715W        W 5915  12.093   4.965   6.101  0.0676 -0.0207 -0.1466
 3716W        W 5916   4.670   0.462  10.187 -0.0979 -0.3250 -0.0920
 3717W        W 5917   1.858   3.623  21.353  0.0148  0.3020  0.0886
 3718W        W 5918   5.915   3.281   0.608 -0.2566 -0.1997  0.0801
 3719W        W 5919   8.958   0.588  25.472  0.2020  0.1825 -0.1995
 3720W        W 5920   4.413   2.556   3.069 -0.0841  0.2812 -0.4665
 3721W        W 5921  24.707   4.329  15.577 -0.2117  0.0479  0.2726
 3722W        W 5922  17.582   1.666  25.387  0.3144  0.2382 -0.3560
 3723W        W 5923   8.923   2.615  21.507 -0.2424 -0.3680  0.0610
 3724W        W 5924   3.010   6.988  17.497  0.0653 -0.2777 -0.0517
 3725W        W 5925  13.052   4.839  17.104  0.1038  0.2969  0.0538
 3726W        W 5926  18.507   5.222  22.974  0.0881  0.1518 -0.1192
 3727W        W 5927   3.926   1.057   3.247 -0.1345 -0.0581 -0.2568
 3728W        W 5928  31.060   1.945   5.797 -0.3082 -0.1854 -0.0583
 3729W        W 5929  20.920   6.380  17.747 -0.0784  0.1400  0.0168
 3730W        W 5930   8.002   7.652   7.575  0.0731 -0.0364 -0.0321
 3731W        W 5931  15.513   3.164  18.919 -0.0234 -0.1519 -0.2696
 3732W        W 5932  25.553   2.951  17.845 -0.0708  0.0848 -0.1237
 3733W        W 5933   0.538   4.882   2.125 -0.1886 -0.0129 -0.2976
 3734W        W 5934   9.463   0.033   3.961  0.0699  0.1032 -0.1555
 3735W        W 5935  12.601   7.790   1.738 -0.1649 -0.1461 -0.2495
 3736W        W 5936  13.794   6.721  22.512 -0.2163 -0.2336 -0.1338
 3737W        W 5937   9.938   2.019   8.521 -0.0141  0.0120 -0.0704
 3738W        W 5938  29.461   3.276  20.228  0.2561 -0.1447 -0.0034
 3739W        W 5939  23.246   3.459  25.659  0.2064  0.0376 -0.1570
 3740W        W 5940   1.734   0.171   5.175 -0.2595  0.1598  0.0465
 3741W        W 5941  20.748   0.134  22.343  0.0613 -0.2183 -0.1319
 3742W        W 5942   1.668   2.309   2.373 -0.1087  0.1989 -0.1064
 3743W        W 5943   2.963   7.562   9.183 -0.0985  0.3370  0.1459
 3744W        W 5944  13.125   2.499   4.949 -0.0360 -0.0945  0.0707
 3745W        W 5945  16.258   3.551  18.544 -0.0510  0.0722 -0.6255
 3746W        W 5946  12.527   6.065  25.403 -0.3110  0.1779 -0.0620
 3747W        W 5947   5.782   2.777  24.442  0.3474 -0.1990  0.1695
 3748W        W 5948  24.747   2.521  18.672 -0.0432  0.3164  0.2859
 3749W        W 5949  28.238   3.106  16.171  0.4440 -0.1860  0.1166
 3750W        W 5950  29.918   6.986  17.585  0.1332 -0.0198 -0.1578
 3751W        W 5951  11.867   6.836   3.775  0.5002 -0.1219 -0.2761
 3752W        W 5952  13.236   0.544  23.171 -0.0262  0.2545 -0.1062
 3753W        W 5953  22.832   0.345  20.289  0.1547 -0.0811 -0.1654
 3754W        W 5954  27.993   2.477   3.137  0.1775 -0.2278  0.1734
 3755W        W 5955  22.065   2.547  18.175  0.0558  0.0269 -0.0292
 3756W        W 5956  15.964   7.445   2.456  0.1376  0.0307  0.1362
 3757W        W 5957  16.885   5.922   5.665  0.0363 -0.2298 -0.0081
 3758W        W 5958   0.554   3.842   1.757  0.0995 -0.1288 -0.2260
 3759W        W 5959   4.653   0.500   7.624  0.0512 -0.0338  0.2417
 3760W        W 5960  10.950   6.690  21.129  0.2576  0.2004  0.1684
 3761W        W 5961  19.592   2.105  22.325 -0.1510  0.0537 -0.0012
 3762W        W 5962  10.395   1.618  22.661 -0.2649 -0.1567  0.1474
 3763W        W 5963  14.028   1.728   1.395 -0.0150 -0.0581  0.2486
 3764W        W 5964   2.972   5.542   3.968  0.2030 -0.2401  0.1609
 3765W        W 5965  22.332   5.456   0.778  0.1412  0.2164 -0.0875
 3766W        W 5966   6.525   4.225  25.704  0.1077 -0.1403  0.0022
 3767W        W 5967   7.577   2.594   1.041 -0.3447 -0.1369  0.2630
 3768W        W 5968  24.120   3.282  16.458 -0.0840 -0.0617 -0.0820
 3769W        W 5969   0.936   3.740   4.780 -0.2579  0.0407  0.2926
 3770W        W 5970   8.022   4.549  11.094  0.2535 -0.1095  0.0215
 3771W        W 5971   8.298   7.567  21.562  0.2133 -0.0269  0.3456
 3772W        W 5972  15.685   2.360  21.269 -0.0928 -0.2673  0.1202
 3773W        W 5973  21.427   1.514   7.250  0.7418 -0.2758 -0.3563
 3774W        W 5974  23.918   5.763  21.499  0.0052 -0.0956  0.3959
 3775W        W 5975  14.213   4.681  14.611  0.0490  0.1556 -0.1286
 3776W        W 5976  10.326   6.174   7.596  0.3830 -0.1332  0.2509
 3777W        W 5977  28.999   7.654  16.255 -0.0094 -0.0433  0.2235
 3778W        W 5978  15.864   6.223   8.884  0.0327  0.0222  0.1204
 3779W        W 5979   7.367   0.422  23.885  0.0741 -0.2623 -0.0166
 3780W        W 5980  26.540   0.866  23.228  0.4918 -0.0665  0.3602
 3781W        W 5981   1.264   2.421   4.009  0.0425 -0.1459 -0.1158
 3782W        W 5982  15.706   4.471  18.497  0.0788  0.3603  0.0188
 3783W        W 5983   8.332   1.257   4.330  0.0971  0.0295  0.2841
 3784W        W 5984  13.258   0.860  21.670 -0.0430  0.0920  0.0110
 3785W        W 5985  12.373   0.874  24.058  0.2188  0.2363 -0.5278
 3786W        W 5986   5.627   2.609   3.322 -0.0726 -0.2814 -0.0963
 3787W        W 5987  15.681   5.762   6.289 -0.0621 -0.1134 -0.1877
 3788W        W 5988  21.932   0.068  24.927  0.0211 -0.0737 -0.2090
 3789W        W 5989  21.788   6.030   0.878  0.1293  0.1195  0.1363
 3790W        W 5990  14.765   0.162   5.903 -0.0840  0.1640 -0.0196
 3791W        W 5991  19.656   6.986  22.269 -0.1691 -0.0779  0.1031
 3792W        W 5992   5.562   1.303  24.419 -0.1748  0.2795  0.0216
 3793W        W 5993  10.753   0.036  21.941  0.0329 -0.1148 -0.0710
 3794W        W 5994  22.360   5.107   1.164  0.2992  0.1693  0.1849
 3795W        W 5995   5.441   6.554   4.658  0.2968 -0.3242  0.0285
 3796W        W 5996  12.651   7.307   3.740 -0.1286 -0.0333  0.0116
 3797W        W 5997  28.847   6.204  23.586 -0.0119  0.0699  0.4008
 3798W        W 5998  15.944   6.263   4.537  0.2689 -0.1256 -0.1141
 3799W        W 5999  24.219   3.174   7.704 -0.0938 -0.1645  0.2053
 3800W        W 6000  27.941   4.712   2.371 -0.1605 -0.1420 -0.1407
 3801W        W 6001  25.348   2.051   4.720  0.1592  0.4015 -0.0105
 3802W        W 6002   8.654   6.438   6.373 -0.2080  0.1297 -0.0122
 3803W        W 6003  20.511   4.198  21.839 -0.3235  0.1111 -0.0831
 3804W        W 6004   9.843   3.861   3.040  0.0001  0.0517  0.0033
 3805W        W 6005  18.001   1.764  23.180  0.0860  0.0549  0.0402
 3806W        W 6006  21.212   7.225   0.513  0.1710  0.1416 -0.0141
 3807W        W 6007   5.790   5.837  21.480 -0.0990 -0.2423  0.1226
 3808W        W 6008   2.667   7.561   2.533  0.2130 -0.0280 -0.0946
 3809W        W 6009   5.944   3.670  21.242  0.3644 -0.0235 -0.1941
 3810W        W 6010   7.124   3.784  18.739  0.2563  0.3371 -0.2150
 3811W        W 6011   4.278   1.661  26.159 -0.2133  0.0328 -0.0450
 3812W        W 6012  28.820   4.461   5.733 -0.0146 -0.1252  0.3061
 3813W        W 6013  26.977   7.027   0.644  0.1362  0.1009 -0.2484
 3814W        W 6014   9.772   4.770  21.339  0.1493 -0.0410  0.1777
 3815W        W 6015  15.518   1.968  20.696  0.0252  0.1365  0.2268
 3816W        W 6016  11.756   0.886   7.181 -0.0481 -0.0763 -0.1118
 3817W        W 6017  22.890   4.543   1.040 -0.1497 -0.1618 -0.4380
 3818W        W 6018   5.919   3.891  19.974  0.0824  0.1741  0.1473
 3819W        W 6019  19.064   3.711   2.484 -0.1321 -0.1839  0.0434
 3820W        W 6020   7.893   3.664  10.583 -0.1740  0.1546 -0.0085
 3821W        W 6021  30.334   5.801  16.914 -0.2810  0.2961 -0.2361
 3822W        W 6022   4.210   2.146   7.771  0.2181 -0.1615 -0.1775
 3823W        W 6023   3.255   5.543   4.493 -0.1518  0.2289 -0.1181
 3824W        W 6024  18.828   1.104  14.949 -0.0035  0.2410 -0.0543
 3825W        W 6025   9.564   6.692   1.305  0.2169 -0.2389 -0.1176
 3826W        W 6026   0.258   2.940   3.466  0.1474  0.1050  0.0750
 3827W        W 6027  17.786   6.354   7.839 -0.0909  0.2938 -0.1664
 3828W        W 6028   8.158   5.786  15.937 -0.0100 -0.0612 -0.2470
 3829W        W 6029  19.876   7.462  24.070 -0.2009  0.0708 -0.0282
 3830W        W 6030   3.762   2.320  25.270  0.2373  0.0302  0.0071
 3831W        W 6031  22.626   1.434   6.485 -0.2372  0.0125  0.1786
 3832W        W 6032  20.458   3.326   3.899 -0.0165 -0.3400 -0.1694
 3833W        W 6033  16.998   2.349  18.504 -0.1137  0.2896 -0.2423
 3834W        W 6034  29.451   0.284  18.360 -0.0097 -0.1126 -0.1747
 3835W        W 6035  19.999   6.998  24.316  0.0609 -0.0868  0.0123
 3836W        W 6036   5.085   4.223  10.065 -0.2721  0.0262  0.1189
 3837W        W 6037  25.880   7.670   1.455  0.2479 -0.1169 -0.3934
 3838W        W 6038   3.377   2.572  16.880 -0.1800 -0.0284  0.2726
 3839W        W 6039   4.231   4.575  15.636  0.0092 -0.0748  0.0993
 3840W        W 6040  22.757   7.805  24.838 -0.1425  0.0624  0.2196
 3841W        W 6041  19.959   4.910  20.389  0.0804  0.0945 -0.0221
 3842W        W 6042   5.912   3.901   5.646  0.4205  0.3633  0.3298
 3843W        W 6043  29.928   6.810   3.988  0.0807 -0.0862  0.1275
 3844W        W 6044   3.558   3.257   1.200  0.0115 -0.2847  0.0512
 3845W        W 6045  14.973   0.353   9.285  0.1932  0.0272 -0.1532
 3846W        W 6046   2.436   6.154  25.215 -0.2179  0.0236 -0.1819
 3847W        W 6047   0.204   4.773  24.987 -0.0618 -0.2839 -0.3887
 3848W        W 6048  23.605   1.572   9.971 -0.1436 -0.1211  0.1654
 3849W        W 6049   5.688   6.887  23.899  0.1702  0.2340  0.0915
 3850W        W 6050  27.678   4.927   2.786 -0.0102  0.0241 -0.1371
 3851W        W 6051  28.617   3.801   6.938  0.1543  0.2109  0.0052
 3852W        W 6052   7.777   1.076  18.091  0.0343  0.2061 -0.0650
 3853W        W 6053  21.771   0.434  18.564  0.3137  0.1226 -0.0815
 3854W        W 6054  20.895   2.023   4.364 -0.2194 -0.1317 -0.0983
 3855W        W 6055  22.772   1.090   1.853 -0.0067 -0.2271 -0.0555
 3856W        W 6056  17.113   2.040  19.507  0.0310 -0.3496  0.1600
 3857W        W 6057   2.903   7.094  25.217  0.2516  0.1898 -0.1010
 3858W        W 6058  21.790   3.233   1.200  0.1353 -0.3291 -0.1597
 3859W        W 6059   9.296   1.453   7.228  0.2136 -0.1800  0.1350
 3860W        W 6060  23.132   5.072  17.861 -0.1993  0.1199 -0.0769
 3861W        W 6061  14.592   3.398  10.536 -0.0941  0.0693 -0.0553
 3862W        W 6062  30.119   0.217  21.238 -0.3110  0.0579  0.2533
 3863W        W 6063   8.284   7.295  14.863 -0.0414 -0.2052  0.2805
 3864W        W 6064  11.683   5.357   6.330 -0.0567 -0.0578  0.1624
 3865W        W 6065  13.310   5.474  22.873 -0.1880 -0.0273  0.0901
 3866W        W 6066   5.494   7.099  19.974 -0.3489  0.0671  0.3022
 3867W        W 6067  24.781   2.801  19.683 -0.1817  0.0810  0.0224
 3868W        W 6068  21.389   5.770  10.021  0.2196 -0.0367 -0.0434
 3869W        W 6069  28.564   1.352   6.441  0.0851 -0.1520 -0.1330
 3870W        W 6070  30.406   1.526  22.572  0.2088 -0.0166  0.0576
 3871W        W 6071  27.027   5.077   5.935  0.1433  0.0554 -0.1120
 3872W        W 6072   2.588   6.971  25.633 -0.0035  0.0806  0.2559
 3873W        W 6073  25.107   7.133   3.013 -0.1804 -0.1926 -0.0285
 3874W        W 6074  21.851   4.054   5.218  0.1996  0.0927 -0.0004
 3875W        W 6075  25.899   5.479   1.556 -0.3663  0.0932 -0.3159
 3876W        W 6076  29.335   3.967  14.659 -0.1146 -0.1881  0.0975
 3877W        W 6077  15.721   6.349   6.245  0.1844 -0.1365  0.0844
 3878W        W 6078  22.473   5.503   7.895 -0.2958  0.3487 -0.0510
 3879W        W 6079  13.528   0.733  10.373 -0.2040 -0.1980 -0.3198
 3880W        W 6080  10.585   1.787  16.341  0.1095  0.0315  0.0265
 3881W        W 6081  23.413   1.979  23.158  0.1161  0.2058 -0.1396
 3882W        W 6082  17.702   2.622   1.726  0.1818 -0.1418 -0.1116
 3883W        W 6083  11.556   4.897  23.222 -0.0972 -0.1063 -0.1384
 3884W        W 6084   9.800   5.978  20.226 -0.4024 -0.1491 -0.2714
 3885W        W 6085  18.668   0.462  19.074 -0.1551  0.3456 -0.2816
 3886W        W 6086  19.937   4.519   5.607 -0.0412 -0.0211 -0.2635
 3887W        W 6087  21.592   3.055  20.052 -0.1726  0.2909 -0.1672
 3888W        W 6088  16.748   1.143  19.055 -0.0883 -0.1222 -0.3709
 3889W        W 6089  19.332   5.613   5.712 -0.0958 -0.1710 -0.0141
 3890W        W 6090  12.293   0.220   9.966 -0.2640  0.1795  0.0115
 3891W        W 6091  15.552   0.529  23.908  0.0358 -0.0086  0.4075
 3892W        W 6092   3.129   2.400  10.264  0.0193  0.2559  0.1346
 3893W        W 6093   6.358   0.104   1.230 -0.0921  0.0668  0.2780
 3894W        W 6094   2.180   3.419   0.223 -0.0855  0.0250 -0.0289
 3895W        W 6095  28.118   7.229  24.123  0.1269  0.3419 -0.1324
 3896W        W 6096   0.443   7.189   8.673 -0.0645 -0.3002  0.0389
 3897W        W 6097  21.124   2.132  17.085  0.1355 -0.2785  0.0191
 3898W        W 6098  18.823   1.483   6.276 -0.2189 -0.0269 -0.1462
 3899W        W 6099  20.506   7.531  10.214 -0.0549  0.0036  0.1591
 3900W        W 6100  16.186   7.068  18.459  0.2653  0.0943  0.0905
 3901W        W 6101  19.614   5.363   9.644 -0.1761 -0.1243 -0.5161
 3902W        W 6102  10.640   1.316   5.829  0.3074 -0.0443  0.0236
 3903W        W 6103  28.246   2.781   1.924  0.3086 -0.3360  0.2354
 3904W        W 6104  21.406   0.332   2.795 -0.1070 -0.1066  0.2214
 3905W        W 6105  10.005   1.765   0.003  0.0689  0.1564  0.0822
 3906W        W 6106  22.533   5.446  19.661 -0.1395  0.2706  0.3557
 3907W        W 6107  20.274   3.697   3.158  0.1282  0.0793  0.0362
 3908W        W 6108  17.308   5.031  18.751 -0.0348  0.1702  0.1958
 3909W        W 6109  25.893   0.563   4.775 -0.0179  0.0347 -0.0828
 3910W        W 6110  18.592   3.941  17.906  0.1907 -0.1782  0.3657
 3911W        W 6111  17.789   3.610   4.356 -0.0639 -0.0405 -0.0519
 3912W        W 6112   2.092   6.258   3.597  0.0304  0.3656 -0.3613
 3913W        W 6113  25.802   7.343  21.987 -0.1713  0.0311  0.0270
 3914W        W 6114  15.978   4.703  23.783 -0.2771  0.1487 -0.1238
 3915W        W 6115   0.907   5.373  20.306 -0.0130 -0.2110  0.0595
 3916W        W 6116  16.592   5.370  22.491  0.1483 -0.2133  0.1212
 3917W        W 6117  12.116   0.361  19.748 -0.2279 -0.0420  0.0084
 3918W        W 6118  16.674   6.179   5.272 -0.0241  0.0550 -0.1260
 3919W        W 6119  29.801   6.811   3.033  0.1321 -0.2667  0.0391
 3920W        W 6120  20.837   7.740  16.539 -0.0890 -0.4849  0.1108
 3921W        W 6121   8.969   5.944  15.513 -0.4448  0.0415  0.1783
 3922W        W 6122  10.413   4.744  19.756 -0.0611  0.0918 -0.0223
 3923W        W 6123  16.192   1.041  21.905  0.1368 -0.1038 -0.0895
 3924W        W 6124   8.251   3.297   8.268  0.1278  0.0557 -0.1214
 3925W        W 6125   7.419   4.424  17.468  0.2138  0.0740 -0.1404
 3926W        W 6126   4.917   0.249   6.544  0.1965 -0.0165  0.2311
 3927W        W 6127   2.450   0.594  22.741  0.2046  0.0172  0.2480
 3928W        W 6128  16.844   0.412  25.058 -0.1996  0.0957 -0.0605
 3929W        W 6129  12.035   4.630  20.517  0.3295 -0.1816 -0.2658
 3930W        W 6130   4.152   0.137  11.499  0.1102 -0.0640 -0.3405
 3931W        W 6131   7.080   3.019   5.720  0.0158  0.0479 -0.0323
 3932W        W 6132  11.449   2.782   5.371  0.0069  0.0828 -0.1975
 3933W        W 6133  23.847   1.532  14.747 -0.0238 -0.0181 -0.1271
 3934W        W 6134  15.276   3.569   5.134  0.0743  0.2525 -0.2086
 3935W        W 6135  15.522   0.856   8.192  0.1228 -0.1736 -0.0256
 3936W        W 6136   5.307   6.528  21.464 -0.1903  0.2801 -0.2462
 3937W        W 6137   4.382   2.157  11.762  0.0996  0.1093  0.0266
 3938W        W 6138  25.906   5.628   8.388 -0.0647 -0.1810 -0.0060
 3939W        W 6139  15.079   4.858  16.997 -0.0032  0.2361 -0.1133
 3940W        W 6140  19.185   0.394   6.628  0.0863 -0.0795  0.1603
 3941W        W 6141   6.963   3.306  16.802 -0.1882  0.1697  0.0488
 3942W        W 6142  13.855   7.471  24.356 -0.3478  0.0789 -0.0464
 3943W        W 6143  29.904   6.468   9.423 -0.2389  0.0022  0.0712
 3944W        W 6144  24.830   3.342   7.441 -0.0993  0.1018 -0.0263
 3945W        W 6145   6.373   4.010  22.511 -0.2468  0.0278 -0.1807
 3946W        W 6146   4.103   2.899   2.766 -0.2957  0.4931  0.0773
 3947W        W 6147   2.015   2.363  11.051  0.1164 -0.0311  0.2810
 3948W        W 6148  15.767   2.449   5.791 -0.1401 -0.0834  0.1763
 3949W        W 6149   2.202   7.473   5.104 -0.3800 -0.0460 -0.0826
 3950W        W 6150   5.797   1.188   5.574 -0.1989  0.0103  0.0194
 3951W        W 6151  13.769   2.299   2.566 -0.1734 -0.0132  0.2620
 3952W        W 6152   6.079   3.609  18.581  0.2502 -0.3818  0.0263
 3953W        W 6153   3.357   1.774   2.686  0.2355  0.1367  0.0508
 3954W        W 6154  25.859   7.753   0.263 -0.4677 -0.0145  0.1767
 3955W        W 6155  30.811   0.949   1.269 -0.2481  0.1491  0.2165
 3956W        W 6156  13.425   0.791  19.749  0.0140 -0.3853  0.0434
 3957W        W 6157  21.558   6.917  24.010 -0.0953  0.1102  0.1650
 3958W        W 6158  13.753   6.746  18.446  0.3596  0.0407  0.0737
 3959W        W 6159  25.309   1.080  21.889  0.1852  0.1065 -0.1209
 3960W        W 6160  29.861   4.600   1.811 -0.1842  0.0262 -0.0390
 3961W        W 6161   1.979   4.339  10.606  0.1006  0.0929 -0.0169
 3962W        W 6162  25.505   3.762  24.066 -0.2654  0.6110 -0.0025
 3963W        W 6163  11.722   5.456  16.534  0.0330  0.3902  0.1886
 3964W        W 6164  23.778   3.786   4.776 -0.1968  0.1994 -0.0499
 3965W        W 6165  20.704   4.553  24.100  0.0018  0.2858  0.0117
 3966W        W 6166  22.110   0.088  18.706  0.1598  0.0426  0.1915
 3967W        W 6167   3.943   3.769  17.878 -0.0892 -0.2168 -0.1320
 3968W        W 6168   1.062   3.184  10.528  0.0397 -0.1695 -0.0098
 3969W        W 6169   2.020   1.810  10.466  0.2119 -0.5158 -0.2925
 3970W        W 6170   9.566   0.523   5.598 -0.2536 -0.0595  0.0389
 3971W        W 6171  28.793   5.870  25.258  0.1594  0.1477 -0.4007
 3972W        W 6172   2.814   2.662   6.254 -0.1192  0.2063  0.2590
 3973W        W 6173   0.047   3.248   3.105  0.0056 -0.1323 -0.1424
 3974W        W 6174  24.699   5.056   4.972  0.4067 -0.1129  0.4158
 3975W        W 6175  30.836   2.319   5.534  0.0827 -0.1706 -0.1049
 3976W        W 6176  23.631   1.436  11.308 -0.0007 -0.1927  0.5629
 3977W        W 6177  15.249   5.531   5.632 -0.2748 -0.0972  0.0087
 3978W        W 6178  23.625   6.950   0.032  0.2481 -0.2222  0.0008
 3979W        W 6179   7.003   5.419  22.731  0.0394 -0.3065 -0.1260
 3980W        W 6180   3.111   3.734   8.372 -0.1606 -0.2992 -0.0518
 3981W        W 6181  24.080   2.690  15.751  0.1566 -0.0745  0.1980
 3982W        W 6182  24.951   1.456  17.757  0.0301  0.0335  0.0618
 3983W        W 6183  18.969   1.920   3.559  0.0546  0.0255  0.1574
 3984W        W 6184   8.200   3.679  22.522  0.2924  0.2830  0.0207
 3985W        W 6185  10.122   5.256   9.315  0.0502  0.0824  0.1482
 3986W        W 6186  10.681   2.429  18.594  0.0907 -0.0003  0.0696
 3987W        W 6187  12.782   2.509   3.325  0.1071  0.2902  0.0860
 3988W        W 6188   3.574   6.667  26.152  0.0314  0.3614 -0.0618
 3989W        W 6189  20.218   1.337   4.536  0.1646 -0.0104  0.1259
 3990W        W 6190   0.615   7.163  23.660  0.1306  0.1266  0.0623
 3991W        W 6191   9.237   6.396   2.505 -0.0630 -0.0376  0.1720
 3992W        W 6192   0.544   6.294  23.714  0.1414 -0.1545  0.0781
 3993W        W 6193  20.538   3.534  14.602 -0.2255 -0.1171 -0.0691
 3994W        W 6194  27.162   6.275  19.926 -0.1043 -0.0143  0.0140
 3995W        W 6195   2.710   6.191   9.904  0.2159  0.0260  0.0408
 3996W        W 6196  14.571   5.510  15.944  0.0893 -0.3743 -0.0567
 3997W        W 6197  20.430   3.212  15.996 -0.1568 -0.1663  0.2038
 3998W        W 6198  15.047   1.925   2.450 -0.0573  0.1886  0.0067
 3999W        W 6199   6.921   3.872   8.045 -0.3310 -0.0520  0.1734
 4000W        W 6200   8.206   4.858   0.607  0.0640  0.0636  0.1419
 4001W        W 6201   2.094   7.034  25.559 -0.0214 -0.0999 -0.0435
 4002W        W 6202  24.277   1.045  19.185 -0.2515 -0.2024  0.2798
 4003W        W 6203   8.207   0.672   8.724  0.1822 -0.1393 -0.0876
 4004W        W 6204  15.792   0.024   8.398  0.1220 -0.0450  0.2427
 4005W        W 6205  17.296   2.970  15.311 -0.1398  0.1181 -0.1539
 4006W        W 6206  15.660   7.577  16.824  0.2650  0.3274 -0.2666
 4007W        W 6207   5.881   7.468  25.757 -0.2697 -0.0530 -0.1710
 4008W        W 6208  10.873   1.965   4.159 -0.1029 -0.2288 -0.1236
 4009W        W 6209  14.023   6.743  18.932 -0.1996  0.1268 -0.0564
 4010W        W 6210   5.767   7.228  16.394  0.3102 -0.1879 -0.3033
 4011W        W 6211  13.293   0.115   7.119 -0.3471 -0.2813  0.0246
 4012W        W 6212   3.764   0.790  17.768 -0.2164 -0.0337 -0.2015
 4013W        W 6213   9.569   2.010  15.469 -0.1084  0.0796  0.1817
 4014W        W 6214   0.118   0.805   2.960 -0.1402 -0.0009 -0.0816
 4015W        W 6215   9.919   0.103   1.176  0.1020 -0.0134 -0.4951
 4016W        W 6216   8.925   1.395  17.328  0.1325  0.0825  0.0005
 4017W        W 6217  20.475   6.545   6.029 -0.1511 -0.0963 -0.0165
 4018W        W 6218  17.337   2.926   4.608 -0.2245  0.0352  0.0440
 4019W        W 6219  28.898   1.488  17.718  0.0204 -0.2208 -0.0516
 4020W        W 6220   1.068   4.581  25.773 -0.0821  0.2777 -0.0625
 4021W        W 6221  30.364   3.810  22.657  0.1300  0.0216 -0.0730
 4022W        W 6222  26.790   5.343  18.440 -0.0234  0.2073  0.0665
 4023W        W 6223   9.055   4.255  16.503  0.1395 -0.0914 -0.1121
 4024W        W 6224   7.818   5.076   9.198  0.0243 -0.1057 -0.0494
 4025W        W 6225  22.645   4.618  10.031  0.1210  0.3030 -0.2056
 4026W        W 6226   4.822   5.702   9.449 -0.0650  0.0196 -0.2996
 4027W        W 6227  23.682   1.207  24.477  0.0850  0.0670 -0.2773
 4028W        W 6228  30.242   1.622   5.812  0.2750  0.1231 -0.3575
 4029W        W 6229  21.190   2.701  20.027  0.0238  0.2318 -0.2932
 4030W        W 6230  22.793   6.238   0.308 -0.1993 -0.1180  0.2700
 4031W        W 6231  18.909   1.302  25.904  0.1745 -0.0139 -0.0124
 4032W        W 6232  29.104   1.563   8.887  0.0588 -0.0594 -0.2875
 4033W        W 6233   9.281   2.386   0.509 -0.0126 -0.0799  0.0263
 4034W        W 6234  26.045   2.473  10.331 -0.1245  0.1477  0.0583
 4035W        W 6235  11.546   0.286  25.150  0.1422  0.0518 -0.0043
 4036W        W 6236  29.117   4.316  21.954  0.1338  0.1238 -0.0400
 4037W        W 6237   5.854   5.470   8.974  0.0292 -0.1098  0.1312
 4038W        W 6238   1.716   4.522  11.709  0.0719 -0.3003 -0.0143
 4039W        W 6239  17.821   4.662   8.770 -0.1191  0.1049 -0.0126
 4040W        W 6240  28.270   3.414  23.210 -0.0808 -0.4151  0.0638
 4041W        W 6241   0.976   4.275   2.833  0.0505  0.1665  0.2364
 4042W        W 6242  26.403   7.207  22.807 -0.0643  0.3079 -0.1183
 4043W        W 6243  13.995   2.060  19.804 -0.2798 -0.0513  0.0444
 4044W        W 6244  18.734   6.922  15.629  0.1407  0.0668 -0.2149
 4045W        W 6245  10.139   2.937   0.411  0.0319 -0.2034  0.3597
 4046W        W 6246  11.724   2.843   9.161 -0.1310  0.3633  0.0941
 4047W        W 6247  28.320   4.697  20.705 -0.0820  0.1161  0.0983
 4048W        W 6248   6.907   7.587   3.565 -0.2100 -0.1490 -0.1143
 4049W        W 6249  25.381   3.596   7.821 -0.1316  0.0536  0.0368
 4050W        W 6250  23.709   4.988   3.063 -0.2888  0.3671  0.1546
 4051W        W 6251  11.680   0.395  21.956  0.1245  0.1823 -0.0702
 4052W        W 6252  21.019   1.356   0.172 -0.2372  0.2496  0.3103
 4053W        W 6253  30.134   7.531  23.411 -0.1347 -0.0766 -0.1068
 4054W        W 6254  15.765   5.067   5.080 -0.2826  0.0236 -0.0696
 4055W        W 6255  30.730   4.708  21.915 -0.2960  0.1390 -0.1024
 4056W        W 6256  10.476   6.041  16.090 -0.1200 -0.1917  0.1543
 4057W        W 6257  30.246   7.240   4.517 -0.1011 -0.0891  0.2092
 4058W        W 6258  25.666   6.422   7.258 -0.1066 -0.0697  0.2299
 4059W        W 6259   8.455   0.993  24.000  0.1282 -0.3351  0.0077
 4060W        W 6260  15.295   5.830  16.560 -0.0326  0.2429 -0.0029
 4061W        W 6261  30.431   7.420  16.972  0.1114  0.0788 -0.2392
 4062W        W 6262   5.528   2.699   0.134 -0.0928 -0.0586 -0.2148
 4063W        W 6263  26.547   5.860   9.070 -0.0628 -0.2369  0.0983
 4064W        W 6264  20.952   1.523   8.103 -0.1245  0.1563  0.2179
 4065W        W 6265  20.089   4.302  23.680  0.0621  0.0032  0.0294
 4066W        W 6266  16.460   3.316   1.289  0.0024 -0.0354  0.1618
 4067W        W 6267   7.451   6.890  21.932  0.3834 -0.0473 -0.1915
 4068W        W 6268  11.795   2.624  25.953  0.1256 -0.2802 -0.2933
 4069W        W 6269   1.442   2.112   9.707 -0.1479  0.1146 -0.2867
 4070W        W 6270  30.742   5.726  24.847  0.1403 -0.0912  0.2886
 4071W        W 6271   2.735   7.037   1.573 -0.2357 -0.1510 -0.1079
 4072W        W 6272   8.159   4.436   4.849 -0.0873 -0.1631  0.1243
 4073W        W 6273  30.282   7.167  19.288 -0.3486  0.4463  0.3524
 4074W        W 6274   2.018   1.248  24.765  0.0391  0.0497 -0.3008
 4075W        W 6275   3.095   1.633  21.424 -0.3620  0.1383 -0.2615
 4076W        W 6276   7.253   7.499   0.803  0.0690  0.1118  0.2221
 4077W        W 6277  20.847   2.364   9.473  0.2747 -0.0106  0.0731
 4078W        W 6278  18.708   0.712   3.119  0.0658 -0.1640 -0.2033
 4079W        W 6279  23.196   2.631   2.798 -0.0491 -0.0045 -0.3494
 4080W        W 6280   5.612   5.450  24.651 -0.1603 -0.1072 -0.0357
 4081W        W 6281  19.622   6.153  19.124 -0.2348 -0.3213 -0.2207
 4082W        W 6282  24.602   3.814  18.719 -0.0071  0.2098  0.2626
 4083W        W 6283  24.980   1.126   2.321  0.0960 -0.0044 -0.0300
 4084W        W 6284  20.677   0.118  23.626 -0.0843 -0.1584  0.0650
 4085W        W 6285  30.585   3.845   9.691 -0.0242 -0.0627 -0.0900
 4086W        W 6286  13.959   7.544   3.308  0.2003  0.1099 -0.4109
 4087W        W 6287  19.111   0.158   7.447  0.0533  0.1191  0.0915
 4088W        W 6288  10.442   2.710  19.752 -0.1594 -0.3555 -0.0195
 4089W        W 6289  28.417   6.794   4.584  0.0081 -0.2155  0.1075
 4090W        W 6290  18.403   4.482   2.347 -0.0534  0.1817  0.2116
 4091W        W 6291  13.786   1.104   6.136 -0.2415  0.2165  0.3356
 4092W        W 6292  22.159   4.613  15.264 -0.0643 -0.2790  0.0320
 4093W        W 6293  13.346   6.016   3.030  0.2378  0.1076  0.1978
 4094W        W 6294  15.907   3.819   4.037  0.1469 -0.1752  0.1045
 4095W        W 6295  22.678   3.856  21.895 -0.3082 -0.1234  0.0433
 4096W        W 6296   6.176   5.368   6.614  0.1825 -0.0102  0.0472
 4097W        W 6297  30.067   0.895  17.409  0.2965  0.1926 -0.0187
 4098W        W 6298  21.762   3.846   7.390  0.1515  0.3403  0.4649
 4099W        W 6299  31.125   0.242  22.545 -0.0199  0.0391  0.3866
 4100W        W 6300   2.244   7.056  19.026  0.1773  0.1073  0.1383
 4101W        W 6301  19.480   0.834   1.986  0.0418  0.0742  0.3386
 4102W        W 6302  16.286   7.042   5.127  0.1924 -0.0593  0.0580
 4103W        W 6303  26.988   1.432  24.989 -0.0710 -0.1235  0.2284
 4104W        W 6304   1.844   0.750   6.264 -0.0966 -0.0607 -0.1306
 4105W        W 6305   9.443   5.490  20.463 -0.1298 -0.3086 -0.1236
 4106W        W 6306  11.677   3.510  16.394 -0.2317  0.4631  0.1498
 4107W        W 6307  17.239   0.974   8.524  0.0426  0.1746  0.0283
 4108W        W 6308  20.165   4.836  25.494 -0.1908 -0.0769 -0.2297
 4109W        W 6309  27.405   7.468   8.288 -0.2465 -0.1384 -0.1779
 4110W        W 6310  16.176   2.880   6.639 -0.1671  0.0738  0.0720
 4111W        W 6311  13.260   0.116  16.349 -0.0170 -0.2205 -0.2163
 4112W        W 6312  28.508   7.306  23.272  0.0156  0.4730  0.2350
 4113W        W 6313  20.819   1.575  25.189  0.2956 -0.0500  0.1010
 4114W        W 6314  16.667   1.422   6.426  0.1353  0.0746 -0.2102
 4115W        W 6315  30.124   0.427   0.697 -0.0587  0.0344 -0.0207
 4116W        W 6316  16.396   1.567   2.569 -0.1857 -0.3041 -0.0570
 4117W        W 6317   8.076   4.060   7.002  0.0648 -0.2394  0.0347
 4118W        W 6318   2.730   5.558  20.519  0.0405  0.0027  0.0506
 4119W        W 6319  27.775   3.332   5.363 -0.0183 -0.0341 -0.0395
 4120W        W 6320  27.879   7.551  22.593  0.0296  0.2169 -0.1372
 4121W        W 6321  11.426   1.116   9.255  0.1034 -0.5469 -0.0920
 4122W        W 6322  11.542   6.325  18.712 -0.0357  0.0216  0.0468
 4123W        W 6323   0.944   4.596  20.363  0.1200 -0.0340  0.2143
 4124W        W 6324  29.677   6.199   0.299 -0.0463  0.1189 -0.1456
 4125W        W 6325  26.293   3.303   3.793  0.2384  0.1780 -0.1961
 4126W        W 6326  17.494   5.419   5.234  0.0809  0.2844  0.0623
 4127W        W 6327   1.017   0.249   7.409 -0.1309 -0.0333  0.3619
 4128W        W 6328   2.454   7.210   4.311 -0.0399 -0.0228  0.0301
 4129W        W 6329   3.675   2.488   4.378 -0.1194 -0.1274  0.1352
 4130W        W 6330  10.117   7.231  24.460  0.1071  0.0913 -0.2004
 4131W        W 6331  19.788   5.596   7.672 -0.1844  0.3542 -0.4261
 4132W        W 6332   3.240   6.894  23.075 -0.1809  0.1529  0.1063
 4133W        W 6333  26.969   5.132  23.058 -0.0040 -0.0432 -0.1021
 4134W        W 6334  15.084   7.155  24.277  0.1978  0.2088 -0.0232
 4135W        W 6335  15.838   0.588  22.447 -0.0928 -0.2767 -0.0651
 4136W        W 6336   6.987   2.019   7.155 -0.0912 -0.0689  0.0882
 4137W        W 6337  27.957   3.424   4.372  0.2609  0.2172 -0.1521
 4138W        W 6338  17.760   3.562   6.694 -0.0620  0.2419 -0.0593
 4139W        W 6339   1.633   0.152   3.162  0.1181  0.2496  0.0709
 4140W        W 6340  18.988   5.281  22.841 -0.3156 -0.0216  0.2409
 4141W        W 6341   7.142   0.398   0.117 -0.1674  0.0695 -0.2467
 4142W        W 6342  26.473   1.183   0.992 -0.2355  0.0635  0.0175
 4143W        W 6343  15.405   5.762  22.940  0.2282 -0.2755  0.2583
 4144W        W 6344  28.014   1.714   3.957 -0.1915 -0.1937  0.1243
 4145W        W 6345   7.922   7.375  15.394 -0.0032  0.0752  0.0305
 4146W        W 6346  21.357   4.469  17.495 -0.0241 -0.2589 -0.1882
 4147W        W 6347  21.959   5.030   1.746 -0.3159 -0.0857  0.2117
 4148W        W 6348  26.541   6.819   1.652  0.1008 -0.1016 -0.3014
 4149W        W 6349  25.233   6.217  22.924 -0.0084 -0.1547 -0.1224
 4150W        W 6350   7.346   3.106  17.996 -0.2523 -0.2404 -0.2494
 4151W        W 6351   1.769   4.180  10.993 -0.1898 -0.0043  0.0422
 4152W        W 6352   1.809   2.449   0.602 -0.1359  0.1187 -0.1341
 4153W        W 6353  17.254   1.886  20.002  0.2185 -0.0876  0.0930
 4154W        W 6354  26.191   3.006  25.068 -0.0194 -0.0627 -0.0819
 4155W        W 6355   3.996   3.955  21.740  0.0119 -0.0619  0.0969
 4156W        W 6356  21.593   7.309   7.724  0.0512  0.2778  0.0291
 4157W        W 6357  16.796   4.459  16.699 -0.2609  0.2297  0.1453
 4158W        W 6358  18.015   2.441  21.238 -0.1961  0.0247  0.0023
 4159W        W 6359  21.871   1.093   6.192 -0.3628  0.0500 -0.4758
 4160W        W 6360  18.496   5.891  16.273  0.3881  0.0936  0.0101
 4161W        W 6361   5.408   5.736  24.991  0.1473  0.0619 -0.1662
 4162W        W 6362  21.780   2.621  17.704 -0.1885  0.4769 -0.0295
 4163W        W 6363  18.800   1.154  23.314  0.0059  0.2532 -0.0079
 4164W        W 6364  25.849   7.484  25.087 -0.1576 -0.2114 -0.0259
 4165W        W 6365  11.401   2.917  26.085 -0.1855  0.1608  0.0310
 4166W        W 6366  16.950   3.217  25.003  0.0242  0.1450  0.2516
 4167W        W 6367   0.248   1.512  17.137 -0.1182 -0.1381  0.0857
 4168W        W 6368  12.253   1.999  16.931  0.1407  0.0121  0.1455
 4169W        W 6369  28.750   6.416   7.634  0.0425  0.0649  0.2086
 4170W        W 6370  11.354   3.540  20.483  0.2441 -0.1183 -0.0085
 4171W        W 6371  23.259   7.713   4.229  0.0717  0.0297 -0.3621
 4172W        W 6372  18.281   2.678  14.965 -0.2595 -0.1101  0.1174
 4173W        W 6373  13.145   3.647   9.260 -0.0730 -0.0090 -0.0933
 4174W        W 6374   0.933   2.391  11.168 -0.1277  0.0357  0.2066
 4175W        W 6375  16.679   1.586  25.277 -0.1454 -0.1179 -0.0730
 4176W        W 6376  15.861   5.596  25.571  0.2855 -0.0552  0.1335
 4177W        W 6377   1.858   1.983  25.352 -0.1111 -0.1616  0.0167
 4178W        W 6378   6.604   1.930  16.001 -0.3089  0.5759  0.0659
 4179W        W 6379  21.386   2.536  24.515  0.3075 -0.1934  0.0614
 4180W        W 6380  24.340   6.771  15.287 -0.3259  0.0642  0.4130
 4181W        W 6381  26.405   6.027  16.721  0.3620 -0.1371 -0.0668
 4182W        W 6382   4.147   0.302  16.927  0.1803 -0.0937  0.1711
 4183W        W 6383  12.478   4.811  20.865  0.2299  0.1688 -0.1333
 4184W        W 6384  14.148   3.619   4.662  0.1401 -0.0639  0.2954
 4185W        W 6385  10.601   0.471  17.188 -0.0399 -0.2629 -0.0823
 4186W        W 6386  25.574   5.958   5.455 -0.1152 -0.4437 -0.1044
 4187W        W 6387   6.093   0.337   1.698 -0.2537  0.3479 -0.0518
 4188W        W 6388  17.380   2.260  23.583 -0.0361  0.1596 -0.0028
 4189W        W 6389  16.703   3.344  20.189  0.1468 -0.1592 -0.0181
 4190W        W 6390   1.992   4.223   5.884  0.1980  0.1579  0.1425
 4191W        W 6391  13.991   2.423  20.291 -0.0421 -0.2761 -0.2674
 4192W        W 6392  30.492   7.219   2.698  0.0029 -0.1598 -0.1385
 4193W        W 6393  23.337   0.003   9.397 -0.1744  0.3036  0.0329
 4194W        W 6394  29.996   5.585  23.573 -0.1024 -0.0323  0.2480
 4195W        W 6395   7.834   3.001  19.735 -0.3129 -0.1992 -0.0305
 4196W        W 6396   5.261   1.060   5.247 -0.1662 -0.4002  0.0710
 4197W        W 6397  15.665   1.364   4.302 -0.0346 -0.0350  0.1847
 4198W        W 6398  16.142   7.531   4.095  0.0193 -0.0339  0.1004
 4199W        W 6399   2.466   4.101   7.527 -0.1362 -0.0832 -0.3049
 4200W        W 6400  23.001   6.083  10.500  0.2644  0.1338  0.1191
 4201W        W 6401   9.879   7.250  19.204 -0.2711 -0.2119  0.1747
 4202W        W 6402  25.914   2.306  14.900 -0.2959  0.0586  0.1061
 4203W        W 6403   0.460   4.162  24.884  0.2749 -0.0631  0.1509
 4204W        W 6404  14.120   4.745   9.354  0.0365 -0.1303  0.0386
 4205W        W 6405  19.625   3.346   9.038  0.1418 -0.0360 -0.0381
 4206W        W 6406  20.311   2.214  23.071  0.2753 -0.2192  0.1997
 4207W        W 6407   6.818   2.120  10.567 -0.1626  0.1902  0.3395
 4208W        W 6408   3.322   0.450   1.066 -0.0673 -0.2111  0.1089
 4209W        W 6409   7.720   3.013   8.950  0.1702  0.1327 -0.1102
 4210W        W 6410   5.373   4.221   2.850  0.2431 -0.1614  0.0546
 4211W        W 6411  10.902   0.354   3.364 -0.3890 -0.1590 -0.0632
 4212W        W 6412   3.676   6.507   6.064  0.1279  0.0711 -0.0696
 4213W        W 6413  10.617   0.031   5.075 -0.1415  0.1392 -0.0346
 4214W        W 6414  24.928   7.180  18.702  0.0364 -0.0279 -0.2547
 4215W        W 6415   2.474   3.155  20.662 -0.3259 -0.0944 -0.2733
 4216W        W 6416  30.094   4.869  25.721  0.2676 -0.1127  0.0705
 4217W        W 6417   4.946   4.758   9.420  0.2030  0.0364  0.1553
 4218W        W 6418  20.864   1.089   0.627  0.0696 -0.0450  0.2351
 4219W        W 6419   0.831   1.465   3.879  0.1654  0.2798 -0.0461
 4220W        W 6420   1.162   2.502   1.865 -0.3497 -0.0634  0.2705
 4221W        W 6421  24.902   7.012  21.548 -0.0994  0.2709 -0.1114
 4222W        W 6422  17.782   5.116  24.926  0.2159  0.2040  0.2483
 4223W        W 6423  17.494   4.196  20.435  0.2133  0.1315  0.3067
 4224W        W 6424  18.090   7.038  19.102 -0.1028 -0.0088 -0.1768
 4225W        W 6425  14.846   0.744  23.273 -0.0593  0.1115 -0.1503
 4226W        W 6426   6.563   4.011  17.837  0.3229  0.1441 -0.1453
 4227W        W 6427  22.377   0.899  25.848  0.0447 -0.1836 -0.1397
 4228W        W 6428   5.205   0.080  25.182 -0.2350 -0.0612 -0.0291
 4229W        W 6429  19.459   7.263   2.219 -0.1634  0.1195 -0.1223
 4230W        W 6430  23.889   1.751  17.703 -0.0988  0.2375  0.0161
 4231W        W 6431   8.628   0.995  25.911  0.2305  0.0123  0.0793
 4232W        W 6432  29.630   6.189   5.849 -0.0653  0.1682 -0.3116
 4233W        W 6433   1.882   3.132  17.919 -0.2061 -0.2205 -0.0714
 4234W        W 6434   2.827   0.729  25.973  0.2318 -0.1749 -0.1361
 4235W        W 6435   0.386   5.729   8.248 -0.1060  0.2267 -0.2798
 4236W        W 6436  21.394   0.591   5.495  0.0700 -0.2269  0.3076
 4237W        W 6437  26.350   3.882   7.808  0.1368  0.1565  0.1263
 4238W        W 6438   0.461   4.276   8.012 -0.0880 -0.0458 -0.0780
 4239W        W 6439   9.816   3.300   5.426  0.3316  0.0302 -0.1633
 4240W        W 6440   9.855   2.661  20.610  0.1868  0.1744  0.1595
 4241W        W 6441  29.142   3.321   2.289 -0.1899  0.1365  0.1996
 4242W        W 6442  16.477   6.509   8.056  0.0582  0.4428  0.0800
 4243W        W 6443  18.273   5.555  18.248  0.0014 -0.1046  0.1811
 4244W        W 6444  21.020   5.195   3.907 -0.1245 -0.0583 -0.0965
 4245W        W 6445   5.968   7.198  23.675  0.2327 -0.2004 -0.3858
 4246W        W 6446  16.323   0.175   4.189  0.2563  0.1523  0.0253
 4247W        W 6447  28.146   3.572   8.123 -0.0004 -0.0400  0.1999
 4248W        W 6448  14.807   4.304   7.574 -0.0047  0.0510 -0.1249
 4249W        W 6449  21.750   7.444  20.310  0.0362  0.0233  0.0658
 4250W        W 6450   5.121   0.895  24.677  0.2000  0.1100 -0.0374
 4251W        W 6451  21.215   4.394   9.472  0.0306 -0.1494  0.0999
 4252W        W 6452  23.985   2.392  18.365  0.3304  0.1298 -0.0638
 4253W        W 6453   1.566   0.093   4.645  0.0431 -0.3365  0.3702
 4254W        W 6454  30.601   4.745   3.964 -0.0257  0.1161 -0.1325
 4255W        W 6455   8.988   7.615   3.926 -0.1259  0.1015 -0.1929
 4256W        W 6456   6.784   7.112   3.552  0.2540 -0.2751  0.1839
 4257W        W 6457  11.341   0.154  24.719 -0.0577 -0.0060  0.2033
 4258W        W 6458  26.171   1.478  24.603 -0.1621 -0.0726 -0.1697
 4259W        W 6459  14.095   0.372  25.044 -0.0736 -0.3158 -0.0290
 4260W        W 6460  21.257   7.399   3.816  0.0773 -0.0003  0.0865
 4261W        W 6461  12.240   6.332   6.644 -0.1391  0.0659 -0.0027
 4262W        W 6462  25.365   2.995  20.499 -0.0774  0.3187  0.1789
 4263W        W 6463   6.408   4.501  21.057 -0.3325 -0.0463 -0.1050
 4264W        W 6464  29.838   3.222  24.937 -0.0588 -0.3094 -0.1438
 4265W        W 6465   4.657   7.522   1.000  0.2319 -0.1095  0.0798
 4266W        W 6466  20.945   5.053   2.174 -0.2117  0.0167  0.1062
 4267W        W 6467   9.244   3.191  17.368  0.2879  0.0805 -0.0004
 4268W        W 6468   8.763   2.719  19.502  0.0129 -0.0265  0.1952
 4269W        W 6469  23.835   5.509   4.569 -0.3407 -0.1224  0.1258
 4270W        W 6470  16.599   2.612  23.002  0.1466 -0.0707  0.1728
 4271W        W 6471  25.690   5.339   1.076  0.1596  0.1208  0.0933
 4272W        W 6472  12.941   0.327   1.627 -0.1568 -0.0940  0.0207
 4273W        W 6473  27.017   7.409   6.571  0.0301  0.0160 -0.0006
 4274W        W 6474  12.307   4.216  23.745  0.0079 -0.0663 -0.3194
 4275W        W 6475  16.155   3.002  22.377 -0.1931  0.1270 -0.3486
 4276W        W 6476  24.536   6.151  23.554  0.0500 -0.2225  0.3329
 4277W        W 6477  21.880   4.475  25.036  0.0853 -0.2114  0.1172
 4278W        W 6478   6.070   3.779  16.477  0.1870  0.0621 -0.3703
 4279W        W 6479  23.516   0.759  22.246  0.3986 -0.0872  0.2497
 4280W        W 6480   0.083   5.504   4.101 -0.1237  0.0225  0.1902
 4281W        W 6481  17.571   5.904   7.740 -0.1570  0.1638  0.0682
 4282W        W 6482  23.381   5.258   8.865 -0.2687  0.2579 -0.1584
 4283W        W 6483   7.278   2.188   5.181  0.1222 -0.1968  0.2680
 4284W        W 6484   7.906   5.693   1.376 -0.2209 -0.1514  0.1622
 4285W        W 6485  12.244   6.184  17.987 -0.0139  0.0142 -0.1630
 4286W        W 6486   2.665   0.235   1.497  0.5044  0.3254 -0.1603
 4287W        W 6487  12.525   5.862  15.308 -0.1025 -0.1771  0.1775
 4288W        W 6488  17.065   2.092   1.391 -0.2676 -0.0537 -0.5030
 4289W        W 6489   0.451   7.587  10.211 -0.1799  0.1687 -0.0447
 4290W        W 6490   6.142   1.363   6.569 -0.0037  0.0440 -0.1874
 4291W        W 6491  16.801   2.878  18.338 -0.1315 -0.0789  0.0415
 4292W        W 6492   0.429   3.262  18.127 -0.2766  0.0376 -0.0300
 4293W        W 6493   6.079   0.184  23.962  0.2264  0.1945  0.1695
 4294W        W 6494  21.668   6.652   7.563  0.0600 -0.1728 -0.0370
 4295W        W 6495  24.070   7.500   4.702  0.4463  0.0559 -0.0798
 4296W        W 6496   0.612   3.308  23.232  0.2171  0.0894 -0.2926
 4297W        W 6497   6.688   2.385  21.330  0.0144  0.1904  0.0518
 4298W        W 6498   0.597   3.754  19.354  0.1326 -0.2079 -0.0137
 4299W        W 6499  22.015   6.098  15.703 -0.0321  0.0821 -0.0627
 4300W        W 6500  20.290   6.787  24.750  0.0725 -0.0166 -0.1184
 4301W        W 6501   9.916   6.172  25.952 -0.0203  0.2623  0.0050
 4302W        W 6502  31.148   0.460  21.139  0.0374 -0.4053 -0.0537
 4303W        W 6503   1.896   5.670  10.214  0.0140  0.5170 -0.2630
 4304W        W 6504  29.679   6.880  20.418 -0.2408  0.0303 -0.0694
 4305W        W 6505  19.063   7.292   3.468 -0.0853  0.0357  0.1453
 4306W        W 6506  28.066   6.920   5.033 -0.0802 -0.0991 -0.0566
 4307W        W 6507   8.524   6.722  18.607  0.1680  0.0480 -0.1831
 4308W        W 6508  25.193   5.106   5.360  0.1389  0.1875  0.0142
 4309W        W 6509  18.795   2.568   3.934 -0.1111 -0.1351  0.2612
 4310W        W 6510   8.642   4.560   1.708 -0.1065  0.0417  0.0328
 4311W        W 6511  24.123   7.027   0.176  0.0752  0.0564  0.2951
 4312W        W 6512  31.116   0.984  22.658  0.0731  0.2377  0.0217
 4313W        W 6513  30.522   7.060  18.254  0.2032  0.0061  0.3042
 4314W        W 6514  21.322   6.737   0.577  0.1483  0.2309 -0.2137
 4315W        W 6515  26.629   6.937   6.303  0.3589 -0.2002  0.2359
 4316W        W 6516   9.280   7.776  15.893 -0.1420  0.0217  0.1055
 4317W        W 6517  31.077   1.055   6.463 -0.1142  0.2646  0.0443
 4318W        W 6518  22.583   5.354  16.285 -0.0364  0.2349  0.0527
 4319W        W 6519  25.327   0.631   4.848 -0.3557  0.1288 -0.1528
 4320W        W 6520   6.369   7.359  22.533  0.2187 -0.1607  0.2371
 4321W        W 6521  12.717   5.099   4.797  0.0078 -0.1298  0.0398
 4322W        W 6522  13.352   2.127   8.977 -0.1252 -0.0024 -0.0970
 4323W        W 6523  19.523   0.060  22.969 -0.1366  0.2024  0.1811
 4324W        W 6524  28.819   3.553   9.619 -0.1109  0.2208  0.0818
 4325W        W 6525  18.320   7.457  19.822  0.2810  0.2429  0.2158
 4326W        W 6526   8.011   1.410   7.102  0.3600 -0.0238  0.1801
 4327W        W 6527  20.292   6.518  23.427 -0.1545 -0.1918 -0.2582
 4328W        W 6528   4.111   5.381  22.546  0.3948  0.0604  0.0423
 4329W        W 6529  24.500   2.576  16.841 -0.1571  0.1512  0.1675
 4330W        W 6530   1.396   3.303   5.268  0.2304 -0.0028  0.1790
 4331W        W 6531  23.163   1.718  21.383 -0.0952 -0.0510 -0.1414
 4332W        W 6532  27.426   6.038  10.804  0.2607  0.1460 -0.2471
 4333W        W 6533  22.399   1.060   6.922  0.2830  0.3545  0.1594
 4334W        W 6534  21.444   2.552  25.851  0.1805 -0.0568 -0.1078
 4335W        W 6535  10.413   7.215   5.128 -0.1311 -0.1191  0.1827
 4336W        W 6536  26.207   3.222  18.141 -0.0323 -0.1845 -0.0922
 4337W        W 6537  21.556   1.464  18.293  0.0079 -0.3265  0.1952
 4338W        W 6538   2.568   6.354  20.276 -0.0603 -0.2368 -0.2421
 4339W        W 6539  23.569   3.963   0.692  0.3399  0.3461  0.0245
 4340W        W 6540  27.866   7.631  21.523 -0.2074 -0.3246  0.2379
 4341W        W 6541   6.034   5.448   2.915  0.1483  0.1332  0.0470
 4342W        W 6542  18.177   3.912  20.831  0.4406  0.0141 -0.1730
 4343W        W 6543  22.069   5.750   0.396  0.2501  0.0486  0.3324
 4344W        W 6544   2.535   1.002   3.295  0.0411 -0.0353 -0.1123
 4345W        W 6545   9.785   0.716  25.180 -0.3737  0.0782 -0.3378
 4346W        W 6546  22.843   3.102   9.248  0.2794 -0.0177  0.3833
 4347W        W 6547   2.520   7.377   2.040 -0.1945 -0.0385  0.2898
 4348W        W 6548   3.944   3.278   0.323  0.1509  0.1169  0.3409
 4349W        W 6549  14.268   5.462   1.052 -0.3731  0.0157  0.2176
 4350W        W 6550  15.060   0.243  25.354 -0.0564 -0.0510 -0.1420
 4351W        W 6551  13.620   3.953  23.980 -0.0574 -0.1433 -0.3155
 4352W        W 6552  13.557   5.040   8.583  0.0372  0.1402 -0.0090
 4353W        W 6553   8.002   2.493   0.851 -0.1057  0.3449  0.1401
 4354W        W 6554  21.800   6.728   5.114  0.0939  0.1862  0.2151
 4355W        W 6555   4.024   1.498   8.271 -0.3836  0.1444 -0.0729
 4356W        W 6556   7.495   7.693  18.017  0.1708  0.1116  0.1669
 4357W        W 6557  23.565   2.529  23.011  0.0005  0.2644  0.0308
 4358W        W 6558   0.287   0.037   0.887 -0.0969 -0.0656  0.2489
 4359W        W 6559   3.618   7.172   5.090  0.2179 -0.2318  0.3381
 4360W        W 6560   9.110   5.823   4.055  0.1307 -0.2639 -0.0778
 4361W        W 6561   8.533   4.828   6.339 -0.2361 -0.1364 -0.0517
 4362W        W 6562   8.360   0.102  18.065  0.0662  0.0770 -0.0193
 4363W        W 6563   0.824   5.766   9.170  0.1546 -0.0871  0.1086
 4364W        W 6564  27.269   7.132  24.941 -0.2204 -0.0033  0.1153
 4365W        W 6565   1.317   7.381   1.315  0.0294  0.0115  0.1424
 4366W        W 6566   4.781   1.961   3.203 -0.1109  0.3706  0.2196
 4367W        W 6567   0.226   3.949   9.812  0.0172 -0.0666 -0.0365
 4368W        W 6568  12.790   2.954  19.255 -0.1003 -0.0707 -0.1035
 4369W        W 6569   5.561   4.339   9.929 -0.1740  0.2986 -0.0543
 4370W        W 6570  18.719   6.641  25.661  0.0226  0.0428  0.2232
 4371W        W 6571  20.862   5.966  16.779 -0.1875  0.1213  0.2221
 4372W        W 6572  12.504   7.568  25.015 -0.0524  0.2035  0.2404
 4373W        W 6573  13.137   5.391   9.254 -0.4747 -0.0373 -0.1294
 4374W        W 6574  27.312   0.191  16.272  0.0371 -0.0400 -0.1206
 4375W        W 6575   6.349   4.845  22.868  0.0528 -0.1356  0.2101
 4376W        W 6576   9.614   1.630  16.498  0.0643  0.0654 -0.1024
 4377W        W 6577  27.872   4.339   6.748  0.0327 -0.2123 -0.3221
 4378W        W 6578   2.631   5.943  11.117 -0.2493 -0.0081 -0.2740
 4379W        W 6579  19.561   4.471  23.515  0.1190  0.1689 -0.4042
 4380W        W 6580   4.327   0.975  19.693  0.0902  0.2328 -0.0156
 4381W        W 6581  22.409   2.766  17.277  0.0826 -0.2604  0.2369
 4382W        W 6582   0.307   6.935  25.355  0.0094 -0.1020 -0.2898
 4383W        W 6583  16.713   3.308   7.487 -0.2717  0.0284 -0.0735
 4384W        W 6584  23.229   2.485  25.734 -0.0658 -0.0991 -0.1014
 4385W        W 6585  12.544   2.761  16.497 -0.0272  0.2132 -0.1351
 4386W        W 6586  20.692   4.771   2.481  0.1391  0.1036 -0.2194
 4387W        W 6587  21.157   2.840  11.008  0.1557 -0.0258  0.2705
 4388W        W 6588  17.793   5.539   1.194 -0.3097  0.0336  0.0290
 4389W        W 6589   0.944   4.642  24.366  0.0409 -0.2902 -0.1306
 4390W        W 6590  22.653   3.967   8.275 -0.0450  0.1309  0.0207
 4391W        W 6591  20.428   6.006  20.561 -0.0201  0.1409  0.0067
 4392W        W 6592  30.633   5.302  15.792 -0.4722 -0.0432  0.0176
 4393W        W 6593   6.118   2.634  10.387 -0.2555 -0.1221  0.2752
 4394W        W 6594   5.178   0.457  24.397 -0.0343 -0.0522  0.3152
 4395W        W 6595  29.284   2.693  21.898  0.2928  0.2018 -0.0319
 4396W        W 6596  15.108   7.124  24.815 -0.2485 -0.1273  0.0475
 4397W        W 6597  22.016   7.213  17.751  0.1314  0.1101 -0.1663
 4398W        W 6598  10.468   4.591  24.430  0.1440  0.2255 -0.0749
 4399W        W 6599  13.229   5.780  23.329  0.1212  0.0884  0.0232
 4400W        W 6600  22.295   1.293  20.042 -0.0261  0.0946 -0.0368
 4401W        W 6601  16.143   4.091   6.325  0.3623 -0.2621  0.1697
 4402W        W 6602   6.272   7.734   1.889 -0.1645  0.1172  0.2108
 4403W        W 6603  12.750   2.990   3.530 -0.1254  0.0270 -0.1440
 4404W        W 6604  21.468   1.788  16.864  0.2519 -0.1862  0.0343
 4405W        W 6605  30.936   1.796   1.942  0.5695 -0.0129 -0.0250
 4406W        W 6606  27.479   7.676   4.074 -0.4209 -0.0734 -0.3265
 4407W        W 6607   5.934   4.065  17.850  0.0539  0.0226  0.1464
 4408W        W 6608   3.183   4.129  22.987 -0.0514  0.3099 -0.1296
 4409W        W 6609  16.997   5.549  17.381 -0.1620 -0.1778 -0.1538
 4410W        W 6610  30.733   2.937  15.897  0.0013 -0.3287 -0.2306
 4411W        W 6611   9.516   5.372  15.589  0.0589  0.0324  0.0097
 4412W        W 6612   8.294   5.293  22.210  0.0716 -0.3906 -0.1562
 4413W        W 6613  15.974   3.745   3.544 -0.0471  0.0949 -0.0486
 4414W        W 6614   7.879   6.103  23.886 -0.3423  0.1438  0.2813
 4415W        W 6615   5.509   0.711   6.888 -0.1929  0.0021  0.1290
 4416W        W 6616  12.031   2.585   3.454  0.2059 -0.1147  0.0376
 4417W        W 6617  29.438   3.868  15.977  0.0611  0.1426 -0.1203
 4418W        W 6618  30.127   0.577   4.085 -0.0089  0.0893  0.2494
 4419W        W 6619   0.646   5.713  25.598  0.0804 -0.4211 -0.0726
 4420W        W 6620  29.822   0.056  23.348 -0.0695 -0.3718  0.1924
 4421W        W 6621  20.687   4.087  15.255  0.1351 -0.2547 -0.1488
 4422W        W 6622   5.318   7.128   5.355  0.0816 -0.0940  0.1400
 4423W        W 6623   1.098   7.265  17.318 -0.1634 -0.0584  0.2871
 4424W        W 6624  13.507   2.069   3.883  0.2483  0.1398  0.0851
 4425W        W 6625  14.201   5.329  10.389  0.3904 -0.2076  0.1166
 4426W        W 6626  18.852   3.799  18.796  0.0276  0.2756 -0.0801
 4427W        W 6627  25.868   0.521  17.515 -0.1964  0.2344  0.0590
 4428W        W 6628  15.622   2.436  25.744  0.1130 -0.1444  0.0186
 4429W        W 6629  26.962   1.155  10.129  0.1757 -0.1127  0.0882
 4430W        W 6630  24.228   4.224  10.308 -0.1078  0.0006  0.1504
 4431W        W 6631  12.976   5.681  22.034 -0.1596  0.1120  0.1845
 4432W        W 6632  23.302   0.978  19.801  0.1073 -0.1197 -0.0494
 4433W        W 6633  19.957   2.584   3.864 -0.0094  0.3914  0.0923
 4434W        W 6634   8.018   6.802  14.751  0.5304 -0.2685 -0.0348
 4435W        W 6635   3.389   7.055   8.408 -0.2378  0.0615  0.1880
 4436W        W 6636   9.304   6.229   7.020  0.1069  0.0272 -0.0787
 4437W        W 6637   2.031   3.392   2.749  0.0387  0.0277  0.4475
 4438W        W 6638  18.866   0.211  10.302  0.0236 -0.3790  0.0300
 4439W        W 6639  26.229   5.624   1.890  0.1854 -0.1327  0.1201
 4440W        W 6640  29.256   4.054   7.965  0.1574 -0.0602  0.1758
 4441W        W 6641  21.950   7.669  20.780  0.1040  0.1322 -0.1564
 4442W        W 6642   3.624   1.868   3.386 -0.1397 -0.0338 -0.2723
 4443W        W 6643  17.823   1.999  15.651  0.2397 -0.1714 -0.0349
 4444W        W 6644  21.538   0.962  25.169 -0.3381  0.2534 -0.1612
 4445W        W 6645   9.129   3.870  18.091 -0.2437 -0.0322 -0.3459
 4446W        W 6646   4.094   5.074   1.207  0.0752  0.1653 -0.2361
 4447W        W 6647   1.699   7.409   5.352 -0.2802  0.0550  0.3502
 4448W        W 6648  19.786   1.873  17.429 -0.0061  0.0270 -0.2458
 4449W        W 6649  12.175   3.951  14.889  0.3341 -0.0511  0.0058
 4450W        W 6650  21.467   6.984  17.583 -0.2545 -0.0611 -0.0868
 4451W        W 6651  26.073   7.618   6.286  0.1696 -0.0525 -0.0463
 4452W        W 6652  27.725   3.239  22.675  0.1814 -0.1489 -0.0336
 4453W        W 6653  21.299   1.542  25.211 -0.0402  0.0482 -0.0509
 4454W        W 6654  22.246   5.318  15.619  0.0282  0.0410  0.0238
 4455W        W 6655  23.623   4.775  18.476  0.0080 -0.0503  0.2297
 4456W        W 6656  26.398   2.195  24.807  0.0516  0.0370 -0.0041
 4457W        W 6657  25.607   7.314   0.805  0.2293 -0.0241 -0.1777
 4458W        W 6658  26.590   3.492   1.775  0.0681  0.1972  0.1033
 4459W        W 6659  14.381   3.849   6.140  0.1510 -0.0148  0.1443
 4460W        W 6660  15.525   7.181  17.173 -0.0078 -0.1038  0.0291
 4461W        W 6661   7.804   5.185   2.860  0.1640 -0.2500  0.1213
 4462W        W 6662   9.899   7.410   0.602  0.2442 -0.0665 -0.1893
 4463W        W 6663  25.210   4.526  18.550  0.2905 -0.1087 -0.0283
 4464W        W 6664   1.462   4.181  10.519 -0.0019 -0.0210  0.0281
 4465W        W 6665  16.361   5.879  25.786  0.1992 -0.0842  0.1109
 4466W        W 6666   4.047   5.789  24.758 -0.1754  0.0655  0.1703
 4467W        W 6667   8.078   6.561  10.316  0.3241  0.0564 -0.1276
 4468W        W 6668  25.455   6.915  20.254 -0.0104  0.1299  0.2960
 4469W        W 6669   4.964   3.058  26.133 -0.2451 -0.2163  0.0011
 4470W        W 6670  10.014   7.616  24.100 -0.1625 -0.1737  0.0921
 4471W        W 6671  15.123   4.261  15.712  0.1541 -0.1422  0.0309
 4472W        W 6672  22.483   1.021   0.139 -0.1742  0.0800  0.1058
 4473W        W 6673  18.389   4.558  22.282 -0.0113  0.0744 -0.1023
 4474W        W 6674   5.109   6.028  21.671  0.0170  0.1205 -0.1498
 4475W        W 6675  18.591   0.208   4.102 -0.0728  0.0990  0.1467
 4476W        W 6676   9.547   2.701   8.218 -0.0830  0.5232  0.0037
 4477W        W 6677   2.612   6.292   4.766 -0.2152 -0.2988 -0.0460
 4478W        W 6678  27.722   3.857  24.548 -0.0465 -0.1697 -0.2059
 4479W        W 6679   3.388   2.176   1.651  0.3256  0.0612 -0.0057
 4480W        W 6680   7.307   4.995   3.589 -0.0224 -0.1782  0.0301
 4481W        W 6681   9.657   4.237   2.749  0.1565  0.2446 -0.1278
 4482W        W 6682  30.070   0.816   2.909  0.2491  0.0390 -0.0514
 4483W        W 6683   3.172   4.431  25.814 -0.1647  0.0427 -0.0047
 4484W        W 6684   9.957   3.568  10.624  0.2103 -0.2124 -0.0066
 4485W        W 6685  18.046   0.022   7.512 -0.0013  0.0897  0.1353
 4486W        W 6686  15.428   7.419  23.938 -0.1327 -0.1507 -0.0640
 4487W        W 6687  26.363   1.209  24.191  0.0547 -0.1637 -0.2146
 4488W        W 6688   6.751   7.031   8.601  0.0334 -0.2618 -0.0628
 4489W        W 6689  11.305   7.543   3.313  0.0637 -0.2036  0.3307
 4490W        W 6690  24.869   2.806  20.823  0.1939  0.1545  0.0267
 4491W        W 6691  22.452   3.172   7.202  0.1236  0.0236 -0.0180
 4492W        W 6692   0.200   2.982  16.299  0.1311  0.0625  0.1811
 4493W        W 6693  24.120   0.998  15.746 -0.0156  0.0023  0.0478
 4494W        W 6694  24.900   7.028  16.329 -0.0865  0.0952 -0.1304
 4495W        W 6695   2.997   2.179  17.130  0.3120  0.0710 -0.1517
 4496W        W 6696  16.322   2.337  17.078 -0.0631  0.0543 -0.1575
 4497W        W 6697   4.644   6.900   2.266 -0.0317  0.2791  0.0490
 4498W        W 6698   2.244   5.773  10.598 -0.0657 -0.0351 -0.2642
 4499W        W 6699  25.585   3.979   7.989  0.1006 -0.1471  0.1810
 4500W        W 6700  12.224   1.227  10.386  0.0166 -0.0394 -0.0344
 4501W        W 6701  15.799   6.714  17.287 -0.0447 -0.2219 -0.0260
 4502W        W 6702  13.864   2.917  23.760 -0.1652  0.1170  0.1927
 4503W        W 6703  13.498   2.122   7.300  0.0495 -0.0866  0.3481
 4504W        W 6704  24.350   1.640  19.098  0.0310 -0.2073  0.0793
 4505W        W 6705  24.788   1.266   6.144  0.0041  0.0146  0.0125
 4506W        W 6706  31.003   7.568   7.232  0.1419 -0.0027 -0.0536
 4507W        W 6707   1.225   0.655   0.513  0.1654 -0.0844 -0.1076
 4508W        W 6708  29.289   7.254   5.274  0.1100 -0.2790  0.0962
 4509W        W 6709  17.510   4.813   2.146 -0.1324  0.1396  0.0996
 4510W        W 6710  19.073   7.219   4.963  0.0256 -0.2875  0.1821
 4511W        W 6711  24.421   7.773  23.919  0.2497  0.2079 -0.2881
 4512W        W 6712   4.342   3.151  21.920 -0.2121 -0.1471  0.1764
 4513W        W 6713  21.889   6.213  24.874 -0.1191  0.0750 -0.0425
 4514W        W 6714  12.905   6.915  19.719  0.2112  0.2656 -0.0957
 4515W        W 6715  22.002   4.908   8.438  0.1549  0.0404  0.3358
 4516W        W 6716  22.091   4.752  10.352 -0.0040 -0.2737  0.0393
 4517W        W 6717  21.961   4.839   6.384 -0.1962  0.1453 -0.3241
 4518W        W 6718  10.802   4.222  20.924 -0.3498 -0.0405  0.0638
 4519W        W 6719   9.687   0.912   3.455  0.5497 -0.0422 -0.1664
 4520W        W 6720  25.611   0.548   0.821 -0.3375  0.2357  0.1502
 4521W        W 6721  22.561   2.175   4.380  0.5288 -0.1698 -0.0631
 4522W        W 6722   9.460   6.072   0.272 -0.0307 -0.1556 -0.1408
 4523W        W 6723  17.970   7.425  19.422 -0.0618  0.0866  0.0623
 4524W        W 6724   3.211   3.944   5.287 -0.0741  0.1876 -0.0178
 4525W        W 6725  20.055   6.711  16.560 -0.0689  0.0062  0.1377
 4526W        W 6726   0.649   0.233  21.454  0.2036 -0.1403  0.1887
 4527W        W 6727  28.891   6.648  24.586  0.0253  0.0151  0.0734
 4528W        W 6728  17.102   7.123   0.382  0.0305  0.1716  0.2070
 4529W        W 6729  26.665   4.838  22.855  0.0869 -0.0880 -0.0307
 4530W        W 6730  19.757   5.280  16.978  0.1271  0.1035 -0.0491
 4531W        W 6731  19.127   1.334   8.357 -0.1200 -0.3312 -0.2171
 4532W        W 6732   3.163   0.015  21.594  0.3354 -0.1033 -0.1434
 4533W        W 6733  19.536   5.828  21.370  0.0403 -0.4769 -0.2359
 4534W        W 6734   4.774   1.949   5.152 -0.0175  0.0505  0.1398
 4535W        W 6735  12.486   2.216  18.866 -0.0920 -0.0768  0.2265
 4536W        W 6736   4.671   1.812  25.892  0.0561 -0.1866  0.2290
 4537W        W 6737   9.764   4.363  17.023  0.1381 -0.1895  0.1364
 4538W        W 6738   4.525   3.125   1.015  0.0859  0.0827 -0.1017
 4539W        W 6739  29.523   5.832  20.736 -0.2738 -0.1692  0.1238
 4540W        W 6740   5.264   7.642   5.304  0.5202 -0.3273  0.2951
 4541W        W 6741  10.909   3.990   3.131 -0.1286 -0.1725 -0.0550
 4542W        W 6742  27.192   3.877  24.879 -0.0686 -0.2207 -0.3244
 4543W        W 6743   4.460   0.165   9.022 -0.1991 -0.2943 -0.2438
 4544W        W 6744  24.569   2.767   8.977 -0.2164 -0.1168 -0.4835
 4545W        W 6745  11.295   3.279  20.030  0.0269 -0.3548  0.0621
 4546W        W 6746  30.691   0.578   4.253 -0.1354 -0.1187 -0.1473
 4547W        W 6747  26.863   3.738   7.388  0.2725  0.0805 -0.2043
 4548W        W 6748  16.276   4.314  10.103  0.1166  0.2191  0.2231
 4549W        W 6749  15.049   5.303  23.504  0.1780  0.0491  0.0119
 4550W        W 6750  22.100   3.505  18.287  0.1101 -0.0578  0.2430
 4551W        W 6751  24.678   5.303   5.351  0.2673 -0.0019  0.1017
 4552W        W 6752  18.356   5.334  20.957  0.0821  0.4466 -0.2126
 4553W        W 6753  16.651   4.071  19.878 -0.0581 -0.1192  0.0524
 4554W        W 6754  26.778   6.344  17.874  0.0532 -0.3025 -0.0617
 4555W        W 6755   2.341   4.727  20.347  0.2466 -0.0300 -0.2134
 4556W        W 6756   5.046   6.143  19.985 -0.1097 -0.4003  0.2618
 4557W        W 6757   1.512   4.059   1.583 -0.2121 -0.0699  0.3267
 4558W        W 6758  31.147   0.638   0.057 -0.4493 -0.2129 -0.2124
 4559W        W 6759  25.654   2.976   3.648  0.3922 -0.2574 -0.1655
 4560W        W 6760  29.772   5.890  16.066 -0.0135  0.1268 -0.1897
 4561W        W 6761  17.227   0.942  18.955  0.1534 -0.2249 -0.1240
 4562W        W 6762  28.765   6.171   6.606  0.0682  0.2475 -0.0129
 4563W        W 6763  25.785   0.057  20.551  0.1496 -0.1225  0.2563
 4564W        W 6764   7.481   1.083  22.926  0.1577 -0.0398  0.0566
 4565W        W 6765  30.514   5.033  15.357  0.0892 -0.2253 -0.0553
 4566W        W 6766  13.175   2.412  22.611 -0.0180 -0.2082  0.1157
 4567W        W 6767   0.260   2.505  17.006 -0.0695 -0.0752  0.0138
 4568W        W 6768  14.994   3.633  17.508  0.1380 -0.0631 -0.3808
 4569W        W 6769  11.953   5.843  21.345  0.1656  0.3161  0.2377
 4570W        W 6770  17.743   0.274  23.557 -0.2184  0.0491 -0.0233
 4571W        W 6771  12.971   5.884  16.143 -0.1830 -0.0224  0.0093
 4572W        W 6772  13.521   5.394  15.948  0.0202  0.0943  0.1319
 4573W        W 6773   9.608   0.272   5.062 -0.2175 -0.0514  0.0191
 4574W        W 6774   4.140   0.606   1.552  0.0818  0.2059  0.0836
 4575W        W 6775  30.397   6.097  25.214 -0.0082 -0.1859 -0.0535
 4576W        W 6776  19.522   0.574  17.016 -0.3513  0.3568  0.2364
 4577W        W 6777  28.888   1.767  17.338  0.2505 -0.0490 -0.0060
 4578W        W 6778  18.643   2.300  18.009 -0.0128  0.3950 -0.1344
 4579W        W 6779   8.897   3.633  19.336 -0.3544  0.0590  0.1950
 4580W        W 6780  19.998   2.488  22.396 -0.0299  0.0203 -0.0706
 4581W        W 6781  11.935   2.489  23.712 -0.3072 -0.0538  0.0407
 4582W        W 6782  26.215   7.478   0.017 -0.0310 -0.1764  0.1139
 4583W        W 6783  11.151   1.067  19.720 -0.1445  0.0949  0.0181
 4584W        W 6784   5.201   7.257  19.152 -0.0839 -0.0589 -0.1794
 4585W        W 6785   7.644   4.135  15.895 -0.0521  0.0447 -0.1604
 4586W        W 6786  27.931   1.054   5.986 -0.0220 -0.2159 -0.0646
 4587W        W 6787  28.679   2.265   0.077  0.0720  0.1193 -0.4812
 4588W        W 6788   4.562   7.529   6.947  0.1722 -0.0851  0.1435
 4589W        W 6789  25.472   2.921   0.911  0.0475  0.2304  0.2205
 4590W        W 6790  15.212   2.470   5.404 -0.0180 -0.0949 -0.0073
 4591W        W 6791  20.723   1.736  19.828  0.1187  0.0327  0.1923
 4592W        W 6792   3.109   2.485  23.166  0.0008 -0.1194 -0.0673
 4593W        W 6793  24.848   6.132  21.101  0.0470 -0.1237  0.0610
 4594W        W 6794  28.170   4.562  24.202  0.0208  0.3256 -0.2266
 4595W        W 6795   2.341   7.747  21.954 -0.2205 -0.1738 -0.0290
 4596W        W 6796  29.582   6.772   0.255 -0.0080 -0.0292 -0.1430
 4597W        W 6797  13.226   2.055   5.210  0.2516  0.3132 -0.0288
 4598W        W 6798   2.956   6.082  22.427  0.1721  0.0131 -0.1323
 4599W        W 6799  24.027   5.887  19.896  0.0363  0.2238 -0.1440
 4600W        W 6800   5.279   5.785   6.163 -0.2738  0.1463  0.0276
 4601W        W 6801   1.800   4.943   1.992  0.1163  0.1700 -0.1013
 4602W        W 6802   9.783   4.706   0.748  0.1169 -0.3386 -0.2459
 4603W        W 6803  25.731   5.002  25.798  0.0328 -0.0443  0.0619
 4604W        W 6804  26.779   2.064  22.197 -0.0191 -0.0174 -0.0698
 4605W        W 6805   9.651   5.908  22.145 -0.0549  0.0759 -0.3293
 4606W        W 6806  25.883   6.335  21.773 -0.1147 -0.0036 -0.1759
 4607W        W 6807   8.044   5.860   7.274  0.1855 -0.2691 -0.0039
 4608W        W 6808  29.772   1.868   8.120 -0.0304  0.1843 -0.1242
 4609W        W 6809  30.464   4.362  22.425 -0.1005  0.3874 -0.1092
 4610W        W 6810  29.634   6.085  19.026  0.1230  0.1092  0.0414
 4611W        W 6811   9.652   0.078   2.360  0.2001 -0.2186  0.0460
 4612W        W 6812  11.404   0.459  24.285 -0.1463  0.3076  0.0171
 4613W        W 6813   6.261   0.303  17.041  0.3150 -0.1855 -0.2923
 4614W        W 6814   5.469   7.820  21.672 -0.2156  0.1640  0.1190
 4615W        W 6815  17.164   1.455   1.901 -0.2253  0.0200 -0.0795
 4616W        W 6816   0.634   7.513   6.839 -0.1196  0.0672 -0.4222
 4617W        W 6817  25.297   6.772  25.462  0.0304 -0.0412 -0.1056
 4618W        W 6818   6.188   0.419  19.935 -0.2256 -0.1707  0.0264
 4619W        W 6819  16.508   6.240  22.326  0.1609  0.1021  0.1751
 4620W        W 6820  14.391   3.812   3.831  0.1856 -0.0203  0.2232
 4621W        W 6821   0.721   0.098   1.129 -0.1328 -0.2487  0.0256
 4622W        W 6822  14.852   7.342   4.563 -0.0802 -0.0989  0.1903
 4623W        W 6823  15.850   4.963   4.309 -0.1925 -0.1280 -0.0118
 4624W        W 6824  29.598   2.187  20.099 -0.0322 -0.1329 -0.0975
 4625W        W 6825  16.867   0.640  19.169 -0.2534  0.1517  0.0443
 4626W        W 6826  16.075   5.394  23.033  0.0589  0.0897 -0.2413
 4627W        W 6827  11.992   4.160  20.310  0.1649  0.0274  0.0425
 4628W        W 6828  13.265   6.099  25.702 -0.1376  0.2723  0.0062
 4629W        W 6829  29.529   3.873   1.584  0.0823  0.0742 -0.2394
 4630W        W 6830  19.422   5.681  10.028 -0.1141  0.3538  0.0792
 4631W        W 6831  17.214   6.956  15.784 -0.0048  0.0838 -0.3399
 4632W        W 6832  24.366   0.194  20.568  0.2541  0.0464  0.1438
 4633W        W 6833  28.533   5.545  21.528  0.0645 -0.0829 -0.2409
 4634W        W 6834  14.906   1.886  25.308 -0.0133  0.2523  0.3217
 4635W        W 6835  29.994   4.892   5.043  0.0831  0.5858  0.0092
 4636W        W 6836   3.192   6.753  17.936  0.1467  0.2125  0.0032
 4637W        W 6837  21.956   1.996   2.738  0.0770  0.0705  0.0012
 4638W        W 6838   7.680   3.919   6.616  0.2099 -0.3578 -0.3242
 4639W        W 6839  26.340   4.263   2.744 -0.0424  0.0919  0.0725
 4640W        W 6840  11.103   7.208  25.140 -0.1307 -0.0989  0.1571
 4641W        W 6841  23.296   7.040  17.279 -0.0923  0.3262 -0.1366
 4642W        W 6842  12.262   1.903   1.384  0.1563  0.0746 -0.0339
 4643W        W 6843  18.344   2.576  23.362  0.0244  0.1268  0.0597
 4644W        W 6844  31.285   0.859  15.665 -0.0759 -0.0621 -0.0259
 4645W        W 6845  18.117   0.565  21.409  0.0265 -0.1935  0.4114
 4646W        W 6846  30.401   1.651  10.296  0.1301 -0.4072  0.2086
 4647W        W 6847  25.290   0.604   8.795 -0.1647 -0.0627  0.0280
 4648W        W 6848  17.573   4.214  21.759  0.0403 -0.1090 -0.1530
 4649W        W 6849  10.131   3.843   8.000  0.1899 -0.1162 -0.1261
 4650W        W 6850   6.231   0.739   5.676  0.0594 -0.2555 -0.0582
 4651W        W 6851   8.830   2.178   3.789 -0.3021 -0.4089  0.0471
 4652W        W 6852  21.918   7.643  14.328  0.0648  0.3278  0.1373
 4653W        W 6853  13.389   7.738  18.424  0.2688 -0.0778  0.0165
 4654W        W 6854   2.417   1.113   8.350  0.0214  0.0668  0.0195
 4655W        W 6855   7.639   5.547  19.144 -0.0809  0.1946 -0.2408
 4656W        W 6856   4.479   0.017   5.263 -0.0476  0.0009 -0.4090
 4657W        W 6857  15.708   4.791  16.083  0.4282 -0.2757  0.0039
 4658W        W 6858  12.430   0.677  18.962  0.3083  0.0275  0.1518
 4659W        W 6859  28.307   3.488  11.545 -0.0487 -0.2292 -0.1766
 4660W        W 6860  14.404   1.378  15.096 -0.0134 -0.1150 -0.0416
 4661W        W 6861  19.493   3.271  25.381 -0.1427  0.0678 -0.1232
 4662W        W 6862   1.812   7.823  23.227 -0.0991 -0.1569 -0.0628
 4663W        W 6863   7.849   0.270  20.329 -0.0232 -0.0430 -0.1647
 4664W        W 6864  19.949   4.142   3.992  0.0561 -0.3870  0.3421
 4665W        W 6865  17.025   7.177  18.197 -0.1016  0.0686  0.2491
 4666W        W 6866  18.909   0.336   4.830  0.1505  0.0757  0.1374
 4667W        W 6867  15.271   5.275  18.483  0.1181  0.1432 -0.3430
 4668W        W 6868  26.826   3.445   0.002 -0.1535  0.2824 -0.0811
 4669W        W 6869   6.511   4.967  16.179 -0.2255  0.1033  0.0472
 4670W        W 6870   1.668   5.595  23.442 -0.3144 -0.3257  0.1569
 4671W        W 6871   4.551   2.512   2.518  0.1061 -0.1601 -0.2634
 4672W        W 6872  19.848   1.371   5.778  0.0883 -0.0987  0.4461
 4673W        W 6873  29.419   5.383   9.402  0.2116  0.2947  0.1654
 4674W        W 6874  20.298   2.223   8.655 -0.0895  0.0765  0.2542
 4675W        W 6875   8.853   4.183  15.666  0.3325 -0.1910  0.0094
 4676W        W 6876  11.349   1.859  24.097  0.0002 -0.0941 -0.1665
 4677W        W 6877   8.267   7.376  20.077 -0.2181 -0.0554  0.2752
 4678W        W 6878   1.131   5.282  22.046  0.2134  0.3344  0.2894
 4679W        W 6879  16.516   5.279   0.296 -0.0897 -0.1315  0.0493
 4680W        W 6880  17.047   0.573  16.900  0.0289 -0.2106 -0.1003
 4681W        W 6881   8.488   0.859  17.745 -0.1606  0.0309  0.1021
 4682W        W 6882  23.004   5.351   3.936 -0.3411 -0.1792  0.0850
 4683W        W 6883  10.683   0.527  18.590  0.0033  0.2048 -0.1471
 4684W        W 6884  19.147   2.263   9.274  0.1884  0.2039  0.1841
 4685W        W 6885  10.315   2.227   0.831  0.3341  0.0109  0.0022
 4686W        W 6886  24.441   3.657   7.646  0.0937 -0.1836  0.0281
 4687W        W 6887  22.642   1.852  24.816 -0.0629 -0.0049 -0.1078
 4688W        W 6888  21.313   7.590  21.383  0.2998  0.0316 -0.0764
 4689W        W 6889  18.769   2.011   6.330  0.0493  0.2398 -0.0489
 4690W        W 6890  13.057   0.771   7.761  0.1252 -0.0762  0.3661
 4691W        W 6891  15.645   0.796  16.272 -0.3146 -0.3445 -0.0577
 4692W        W 6892  13.490   6.247  14.778 -0.3541  0.3335 -0.1576
 4693W        W 6893  17.511   5.073  15.768  0.1709 -0.2243  0.1568
 4694W        W 6894   6.780   6.599   8.277  0.3089  0.4997  0.3928
 4695W        W 6895   1.060   2.836  10.928 -0.2304 -0.2124 -0.0180
 4696W        W 6896  31.052   6.873   5.533  0.2563  0.0588 -0.0462
 4697W        W 6897  19.695   1.725  10.634 -0.3283  0.4077 -0.2346
 4698W        W 6898  17.209   0.729  18.081  0.0275 -0.1142  0.4195
 4699W        W 6899  22.128   4.517  16.783 -0.1483  0.1100 -0.3137
 4700W        W 6900  25.805   6.251   3.519 -0.0917  0.0936  0.0075
 4701W        W 6901  30.505   2.287   5.115  0.0790  0.0615  0.1297
 4702W        W 6902  26.196   4.568  18.060 -0.0974  0.1106  0.0721
 4703W        W 6903  16.848   3.909  24.279 -0.3699  0.2151  0.0708
 4704W        W 6904   4.662   2.876  20.178  0.0151 -0.4336  0.1447
 4705W        W 6905  10.763   6.238  17.643  0.1751 -0.0843 -0.0583
 4706W        W 6906  26.243   7.555  16.088 -0.3886 -0.1293  0.2944
 4707W        W 6907  29.237   4.373  26.179 -0.2371  0.0659 -0.1165
 4708W        W 6908   6.042   4.113   0.639  0.0640 -0.1743 -0.2146
 4709W        W 6909  30.013   6.674  23.550  0.0739  0.2171 -0.0155
 4710W        W 6910  17.531   1.219  24.418  0.1141 -0.0450  0.2935
 4711W        W 6911  21.530   2.739  10.484 -0.2103  0.1188  0.0184
 4712W        W 6912   0.046   1.172  26.151 -0.3033  0.2520 -0.2451
 4713W        W 6913  19.252   5.969   0.112  0.0199 -0.2156  0.0414
 4714W        W 6914  19.063   1.718   4.088  0.0965  0.0570  0.0384
 4715W        W 6915   7.003   4.922  18.678 -0.2999  0.0220 -0.2679
 4716W        W 6916  11.299   6.164  15.247  0.1244  0.1225 -0.2187
 4717W        W 6917  18.666   7.410  22.277  0.0165 -0.1597  0.1662
 4718W        W 6918  11.641   3.466   1.428  0.1080 -0.0100  0.1786
 4719W        W 6919   5.892   0.478  23.618  0.0451 -0.0740 -0.3356
 4720W        W 6920  22.320   7.343   5.197 -0.0795 -0.3213 -0.0171
 4721W        W 6921  16.536   2.083  18.414 -0.2818  0.0573 -0.1008
 4722W        W 6922  15.710   7.259   1.458  0.0834  0.2736 -0.0492
 4723W        W 6923   2.750   6.871   0.426  0.1026  0.0210 -0.1249
 4724W        W 6924   3.135   5.766  20.830  0.0445  0.1681 -0.0266
 4725W        W 6925  25.275   5.156  10.390 -0.2014  0.1352 -0.1146
 4726W        W 6926  27.140   6.872   6.515 -0.2579  0.2486 -0.1722
 4727W        W 6927   3.837   7.666   9.869 -0.0017  0.3875  0.1486
 4728W        W 6928  21.352   3.123   3.219  0.2709  0.1257  0.2035
 4729W        W 6929  15.005   5.382   7.303  0.0099 -0.2729 -0.2045
 4730W        W 6930  12.982   3.191  22.074  0.1528  0.2369 -0.2605
 4731W        W 6931  11.258   3.392  19.555 -0.1168 -0.0269  0.1002
 4732W        W 6932   5.751   3.371   5.478 -0.1401  0.1450 -0.0408
 4733W        W 6933  27.807   2.800   6.220 -0.0554  0.1159  0.0703
 4734W        W 6934  17.432   3.143  23.170 -0.0091  0.0974 -0.1422
 4735W        W 6935  20.844   3.607   7.594 -0.2139 -0.3979 -0.0063
 4736W        W 6936  11.223   6.093   0.933 -0.4580 -0.0579 -0.1936
 4737W        W 6937  15.347   2.240  10.367 -0.0717  0.2132  0.1195
 4738W        W 6938  30.444   3.420   4.708  0.0855 -0.1021 -0.3281
 4739W        W 6939  17.185   5.526  21.677 -0.0814 -0.1325  0.0415
 4740W        W 6940  30.506   0.226  24.962  0.4044  0.3524 -0.2090
 4741W        W 6941   6.760   3.703  21.482 -0.0144  0.3059 -0.1134
 4742W        W 6942  13.006   1.612   5.995 -0.1952  0.1039 -0.1956
 4743W        W 6943  11.095   0.964   8.897  0.1714 -0.0259  0.2625
 4744W        W 6944  27.635   2.909   9.068 -0.0663 -0.2816  0.2844
 4745W        W 6945   8.894   3.362   0.328 -0.2687  0.1980  0.0260
 4746W        W 6946   1.628   2.545  19.362  0.3768  0.2131 -0.0410
 4747W        W 6947   7.006   5.021   4.622  0.4665 -0.1752 -0.2081
 4748W        W 6948  10.653   0.498  19.830 -0.1778 -0.3794  0.1665
 4749W        W 6949   1.157   1.242  10.476  0.1646 -0.0593  0.1052
 4750W        W 6950  29.897   5.103   6.799 -0.4774 -0.1135 -0.1065
 4751W        W 6951  20.209   1.529   7.723 -0.4045  0.0021 -0.1065
 4752W        W 6952  18.937   2.290  11.058 -0.1952 -0.0560  0.3813
 4753W        W 6953  18.453   4.993  20.634  0.0636 -0.0321  0.0402
 4754W        W 6954  25.332   1.876  20.175 -0.0537 -0.0936 -0.0231
 4755W        W 6955  14.191   4.261  23.822 -0.0269 -0.1729 -0.5414
 4756W        W 6956  28.297   0.442   8.389  0.1899 -0.1444 -0.0261
 4757W        W 6957  14.130   0.970  15.342 -0.2205 -0.0953  0.2349
 4758W        W 6958  12.307   4.529   2.794 -0.1120  0.0502 -0.2422
 4759W        W 6959   9.808   1.392   6.728  0.5496 -0.1391  0.1480
 4760W        W 6960  12.896   6.714  25.093 -0.1625  0.0838 -0.2034
 4761W        W 6961  25.563   1.739   2.665 -0.2728 -0.0151 -0.1478
 4762W        W 6962  12.044   0.557   9.657  0.1541  0.0887  0.2925
 4763W        W 6963  18.178   2.888   1.599  0.1035 -0.2335  0.0346
 4764W        W 6964  28.293   1.187   3.601  0.2700 -0.0645  0.1192
 4765W        W 6965   4.927   3.278   2.684 -0.0098 -0.0442 -0.1341
 4766W        W 6966  14.397   5.744  25.087  0.1024 -0.0198 -0.2122
 4767W        W 6967   4.850   2.277  23.204 -0.1500  0.2013  0.3475
 4768W        W 6968  24.343   1.923  24.651  0.0984 -0.0305 -0.0358
 4769W        W 6969  30.510   3.948  16.911 -0.1516  0.3117 -0.2219
 4770W        W 6970  16.626   0.429   3.863  0.1909 -0.0194 -0.1830
 4771W        W 6971  26.799   6.391  18.416  0.3280  0.0398  0.4918
 4772W        W 6972  22.165   5.251  20.136  0.2930 -0.1103  0.2361
 4773W        W 6973  29.287   3.375   7.180  0.0348  0.4613  0.0784
 4774W        W 6974  15.155   6.171  20.018  0.0825 -0.1208  0.2177
 4775W        W 6975  13.944   2.506   5.282 -0.2140  0.0852  0.0267
 4776W        W 6976  17.917   4.142  15.914  0.0930  0.2267  0.0301
 4777W        W 6977  11.272   4.221  21.647 -0.0426  0.0525  0.3819
 4778W        W 6978  17.934   0.128  23.104  0.0022 -0.0856  0.0581
 4779W        W 6979  10.003   3.451   4.543  0.2934 -0.1516  0.3119
 4780W        W 6980  24.580   4.482  21.090 -0.0545 -0.3406 -0.3138
 4781W        W 6981  29.107   1.467  11.044 -0.3403 -0.1933 -0.0345
 4782W        W 6982   3.348   5.782   3.065  0.0915  0.0001 -0.2626
 4783W        W 6983  22.489   2.317  20.137  0.1447  0.3435  0.2077
 4784W        W 6984  16.092   0.545  15.132  0.1536  0.4295 -0.3822
 4785W        W 6985  22.785   5.944   1.535  0.1521  0.2315  0.0346
 4786W        W 6986   0.115   4.199   0.876 -0.0467 -0.4675 -0.0317
 4787W        W 6987  25.673   3.954  17.131  0.2475 -0.1933  0.1817
 4788W        W 6988  25.773   1.295   6.819 -0.1286 -0.1255  0.1991
 4789W        W 6989  27.841   3.840  21.864 -0.3077 -0.0498  0.2119
 4790W        W 6990  27.410   3.929  19.876  0.0733 -0.0659 -0.0599
 4791W        W 6991   9.770   5.433  16.467  0.1278 -0.0376  0.0164
 4792W        W 6992  21.387   3.561  24.041 -0.0173  0.4053  0.0790
 4793W        W 6993   0.011   0.552  20.438 -0.2041 -0.0921  0.3457
 4794W        W 6994  25.955   3.959   2.970 -0.0164  0.2224 -0.0951
 4795W        W 6995  22.864   3.261  19.627  0.2195  0.2170  0.0262
 4796W        W 6996  26.369   1.200  17.790  0.0389  0.1263 -0.2246
 4797W        W 6997  12.465   3.335   1.756 -0.0558 -0.2166  0.1719
 4798W        W 6998   6.171   6.396   7.016 -0.0067 -0.0207 -0.0659
 4799W        W 6999  17.466   4.890  22.461  0.1568 -0.1126 -0.0964
 4800W        W 7000  31.220   1.839   4.248  0.0762 -0.0087  0.1314
 4801W        W 7001  12.041   1.981   3.346 -0.0441 -0.0784  0.3316
 4802W        W 7002  30.024   3.698   2.394  0.2176 -0.0477 -0.0708
 4803W        W 7003   1.107   6.085  25.018 -0.1745 -0.1047 -0.1671
 4804W        W 7004  27.940   0.849  22.466  0.0023  0.0278 -0.2493
 4805W        W 7005   8.810   3.883   8.329  0.0481 -0.2364 -0.2565
 4806W        W 7006   0.853   7.358  24.061  0.1507 -0.0051  0.1992
 4807W        W 7007   9.786   6.330   3.358 -0.1407 -0.2133 -0.1928
 4808W        W 7008   6.996   0.999  25.824  0.0623  0.2184  0.0814
 4809W        W 7009  26.155   3.588  19.619 -0.1489  0.1746  0.2126
 4810W        W 7010  12.369   4.787   3.379 -0.2328 -0.0412  0.4285
 4811W        W 7011   1.955   4.008  23.202 -0.2035  0.1721  0.0498
 4812W        W 7012  24.145   5.076  17.728 -0.0914  0.1546 -0.0142
 4813W        W 7013  29.409   6.767   5.205 -0.3451  0.1060  0.1576
 4814W        W 7014   5.350   3.006   7.143 -0.1379 -0.2061 -0.0675
 4815W        W 7015   7.095   0.942   7.368  0.0383  0.2525 -0.3978
 4816W        W 7016  27.165   5.920   7.038  0.1033  0.1088  0.3331
 4817W        W 7017  29.812   1.089  24.904  0.0656  0.2370 -0.1410
 4818W        W 7018   7.400   1.588   1.461  0.1898 -0.0804 -0.1022
 4819W        W 7019   3.750   7.518  23.356 -0.4417  0.1339  0.1376
 4820W        W 7020  15.622   0.811  21.209  0.3503 -0.0921  0.0426
 4821W        W 7021  24.870   4.678   1.055  0.0510 -0.0327  0.1919
 4822W        W 7022   9.379   3.345  20.258 -0.0987 -0.0740 -0.2976
 4823W        W 7023  10.619   3.588   0.856  0.0244  0.0044 -0.1225
 4824W        W 7024  21.125   7.696  23.505 -0.0481  0.1554  0.2654
 4825W        W 7025  23.664   0.205  10.919  0.1767  0.1916  0.0630
 4826W        W 7026  18.614   3.188   0.660 -0.0301 -0.1315  0.1175
 4827W        W 7027  30.586   1.287   6.672  0.0135 -0.2930 -0.0895
 4828W        W 7028  14.964   1.649  20.057 -0.0585  0.3927 -0.2991
 4829W        W 7029   2.491   4.576   8.648  0.1665  0.0584 -0.3149
 4830W        W 7030   7.634   0.642   6.163  0.2043  0.3126  0.2330
 4831W        W 7031  18.639   1.502  23.889  0.4325  0.0701  0.2487
 4832W        W 7032  19.506   1.856  24.952 -0.0225  0.0285  0.0016
 4833W        W 7033  17.348   0.841   4.979  0.1387 -0.4558  0.2584
 4834W        W 7034   2.892   6.039  22.963 -0.1667  0.0452  0.0180
 4835W        W 7035   3.822   4.285  21.254 -0.1750  0.0608  0.1889
 4836W        W 7036   4.990   4.289   0.093  0.0497 -0.2316 -0.0361
 4837W        W 7037  18.473   4.994   2.141  0.3880 -0.1847  0.2233
 4838W        W 7038  18.536   2.054  23.903 -0.1396  0.0731  0.0523
 4839W        W 7039  27.893   0.889   3.007  0.2738 -0.1757  0.4047
 4840W        W 7040  12.533   5.508  25.245 -0.2932 -0.1192 -0.0478
 4841W        W 7041  30.209   5.827   1.624  0.1030 -0.0077  0.0332
 4842W        W 7042  16.602   3.038   3.155 -0.0544  0.2058  0.0767
 4843W        W 7043  20.655   6.860   1.178 -0.1486  0.0973 -0.1440
 4844W        W 7044  12.345   7.022  19.377 -0.1160  0.2725  0.0379
 4845W        W 7045   9.543   7.647   5.366  0.3144  0.2511 -0.1448
 4846W        W 7046  29.478   7.035   5.713 -0.0219  0.0759  0.0092
 4847W        W 7047  26.405   0.166  18.096  0.0007 -0.1806  0.1333
 4848W        W 7048  29.007   1.859   0.389  0.2333 -0.0219 -0.0913
 4849W        W 7049  15.415   1.222  21.376  0.0454 -0.1142 -0.2653
 4850W        W 7050  19.440   5.879  23.645 -0.0243  0.2714 -0.2063
 4851W        W 7051   8.338   5.122  23.447 -0.1046 -0.3784  0.2311
 4852W        W 7052   7.175   3.632   3.816 -0.2869 -0.0528 -0.0569
 4853W        W 7053   6.191   7.423  16.097 -0.2104 -0.2817 -0.0100
 4854W        W 7054  29.716   1.887  25.563  0.0215 -0.0351  0.2459
 4855W        W 7055   2.147   3.904   4.224  0.1989 -0.2640 -0.2278
 4856W        W 7056  26.661   3.341   7.683 -0.1036 -0.1177  0.1142
 4857W        W 7057   2.682   3.469   0.071  0.1447  0.0941  0.0407
 4858W        W 7058  11.131   6.579  25.708 -0.0375  0.0850 -0.2903
 4859W        W 7059  21.085   2.673  16.415  0.1639 -0.0387 -0.0181
 4860W        W 7060  26.779   7.185  20.254  0.4002 -0.0093 -0.0835
 4861W        W 7061   5.622   1.584  10.121  0.2306 -0.0735 -0.0300
 4862W        W 7062  20.111   1.985  21.399 -0.0379 -0.0142  0.2669
 4863W        W 7063   2.758   6.145   8.086  0.1006 -0.0412 -0.1722
 4864W        W 7064   1.169   7.335  10.977  0.1742 -0.0127 -0.1318
 4865W        W 7065  25.669   7.401  10.133  0.0308  0.0738 -0.0648
 4866W        W 7066  14.603   3.374   6.309  0.0411 -0.1397 -0.1329
 4867W        W 7067   0.693   3.940  25.329 -0.0197  0.0465 -0.0078
 4868W        W 7068  23.413   5.271   3.632 -0.3988  0.0376 -0.0627
 4869W        W 7069  13.789   4.587  16.336  0.0653  0.0242 -0.1244
 4870W        W 7070   6.050   4.074   8.836 -0.0386 -0.2585 -0.0305
 4871W        W 7071  28.785   3.026   3.188  0.0512  0.1980 -0.0853
 4872W        W 7072  19.860   2.221  20.581  0.1209 -0.0633 -0.3004
 4873W        W 7073  26.840   1.796   7.254 -0.0334 -0.2184  0.0368
 4874W        W 7074  22.224   7.184  10.471 -0.2441 -0.1204 -0.4083
 4875W        W 7075   0.357   3.881  22.570  0.2440 -0.0730  0.0787
 4876W        W 7076   8.535   5.181  17.815  0.0558  0.2490 -0.2112
 4877W        W 7077  21.950   2.324  24.428 -0.2490 -0.1980  0.2148
 4878W        W 7078  24.069   5.047   4.281 -0.2512  0.0583  0.2919
 4879W        W 7079  18.840   5.558  17.122 -0.2603  0.1026  0.1228
 4880W        W 7080  15.872   7.742  16.361  0.1026 -0.1342  0.0009
 4881W        W 7081   0.603   3.718   2.676 -0.0083 -0.0989  0.0294
 4882W        W 7082   1.007   6.654   5.844 -0.2333 -0.0127 -0.0737
 4883W        W 7083   2.748   1.482   3.391 -0.0435 -0.0671 -0.1850
 4884W        W 7084  17.246   6.418  24.631 -0.0344 -0.0040 -0.2924
 4885W        W 7085  20.570   6.922  16.682  0.2273  0.1069 -0.0774
 4886W        W 7086  29.461   7.339  10.821 -0.0117 -0.2449  0.1236
 4887W        W 7087  13.463   0.883  15.625 -0.2235  0.0055 -0.1168
 4888W        W 7088  19.148   4.653  16.922 -0.1304  0.0755 -0.4613
 4889W        W 7089  14.511   6.743   2.650  0.0053 -0.3647 -0.2338
 4890W        W 7090   3.209   6.190   5.837 -0.2097 -0.0545  0.2247
 4891W        W 7091  30.513   7.172  24.955  0.0629  0.0610 -0.0120
 4892W        W 7092  10.746   6.244   1.787  0.0246  0.0698  0.2757
 4893W        W 7093  21.084   3.831  10.849 -0.0822  0.2466 -0.1978
 4894W        W 7094  16.797   6.862   8.076 -0.0178  0.2395 -0.1110
 4895W        W 7095  26.884   1.675  23.579  0.0534 -0.4098  0.0095
 4896W        W 7096  25.439   6.092   8.281 -0.1497 -0.0110 -0.2164
 4897W        W 7097  16.624   4.236   6.308  0.3642  0.4430  0.2126
 4898W        W 7098  25.543   4.444   6.061 -0.0255 -0.1529  0.0606
 4899W        W 7099  25.721   5.274   3.476 -0.2031 -0.1370 -0.1371
 4900W        W 7100  18.295   4.702   9.458 -0.1400  0.2414  0.2674
 4901W        W 7101   0.557   2.856   1.770 -0.0160  0.0835 -0.0441
 4902W        W 7102   1.352   3.594   1.157  0.1836  0.1975 -0.1939
 4903W        W 7103  30.122   5.820   7.911  0.5788 -0.1300  0.2240
 4904W        W 7104  11.108   1.192   1.283 -0.4113 -0.2020  0.4484
 4905W        W 7105  30.064   1.891   7.392  0.0506 -0.1005  0.0260
 4906W        W 7106   1.982   3.886  11.335 -0.0857 -0.0841 -0.2184
 4907W        W 7107   6.267   6.452  20.412 -0.0728 -0.0978 -0.0763
 4908W        W 7108  28.036   2.728  18.337  0.0308 -0.0469  0.0553
 4909W        W 7109  19.678   7.300   4.044 -0.1470 -0.2845  0.1415
 4910W        W 7110  17.527   5.039  19.384 -0.0746 -0.3542  0.1926
 4911W        W 7111   1.521   1.487  18.501 -0.3619  0.1826 -0.0014
 4912W        W 7112  23.464   2.703   1.180  0.0987 -0.1209 -0.3469
 4913W        W 7113  29.725   5.280   3.750  0.0327  0.0398  0.0048
 4914W        W 7114  24.618   6.488   8.706  0.3096  0.1173 -0.2136
 4915W        W 7115  26.555   4.126  11.208 -0.0998 -0.0561 -0.0846
 4916W        W 7116  30.337   7.734  19.218  0.0934 -0.1599  0.3366
 4917W        W 7117  22.734   0.882  10.423 -0.2125  0.1593  0.0109
 4918W        W 7118  10.513   2.232  20.915  0.1174  0.0526  0.1299
 4919W        W 7119   1.144   6.391  18.238  0.3097  0.2150  0.2731
 4920W        W 7120   0.239   0.319   6.807  0.0140  0.0015 -0.1430
 4921W        W 7121  18.852   4.903   3.169 -0.4070 -0.1323  0.0977
 4922W        W 7122  15.618   2.481  15.666 -0.1672 -0.1777  0.0736
 4923W        W 7123  14.756   5.630  21.041  0.1662 -0.2105 -0.0573
 4924W        W 7124  13.046   7.503   6.231  0.1240 -0.2183  0.0506
 4925W        W 7125   4.793   6.850  23.589  0.0077  0.0956 -0.0677
 4926W        W 7126  26.081   0.881   1.341 -0.2429 -0.0853  0.0570
 4927W        W 7127  14.911   3.511  25.405  0.0195  0.1535  0.1207
 4928W        W 7128   3.905   0.078   4.465 -0.1346 -0.1037 -0.3358
 4929W        W 7129  13.456   3.222  19.134 -0.1092 -0.1236 -0.1135
 4930W        W 7130  29.795   1.856   4.084 -0.1099 -0.0697 -0.2569
 4931W        W 7131  19.012   2.784   0.540 -0.1576 -0.0263 -0.1598
 4932W        W 7132   4.546   0.114   3.616  0.0318  0.2930 -0.0901
 4933W        W 7133   1.378   3.685  25.783  0.1859  0.1956  0.0357
 4934W        W 7134  10.536   7.762  25.808 -0.1714 -0.0696  0.2589
 4935W        W 7135  26.237   6.215   6.212 -0.0310 -0.2503  0.0032
 4936W        W 7136  11.146   0.857  18.687 -0.2094 -0.3276  0.2101
 4937W        W 7137  21.200   0.620   1.151  0.0626  0.1094  0.0759
 4938W        W 7138  10.250   5.298  19.689  0.0663  0.0763 -0.0757
 4939W        W 7139  29.576   6.490   3.394  0.0960 -0.1393 -0.1112
 4940W        W 7140  19.466   5.689   5.245 -0.3635  0.2650 -0.0766
 4941W        W 7141  26.641   1.201  20.004  0.0587  0.1316  0.0999
 4942W        W 7142  26.512   6.444   8.082  0.2126  0.1252 -0.0689
 4943W        W 7143  11.909   6.037   1.496  0.2380 -0.3216 -0.1801
 4944W        W 7144  13.285   5.324   0.392 -0.0469 -0.0806  0.0435
 4945W        W 7145   3.254   6.414  23.184  0.2496  0.0740  0.0346
 4946W        W 7146  27.335   7.170   3.250 -0.0520 -0.2876 -0.1866
 4947W        W 7147   4.944   3.619   0.230 -0.0886 -0.2801  0.1584
 4948W        W 7148  25.566   5.190  18.361  0.0052  0.2021 -0.0993
 4949W        W 7149  21.682   5.902  23.354  0.1067 -0.1370  0.2579
 4950W        W 7150   8.710   7.183   2.110 -0.0516  0.0221  0.3705
 4951W        W 7151   2.704   0.761   4.265 -0.0307  0.2079 -0.2365
 4952W        W 7152   2.715   5.581  19.939  0.1358  0.0979 -0.0236
 4953W        W 7153  13.029   4.396  10.576 -0.1770  0.0913  0.0359
 4954W        W 7154  23.185   7.750  24.030  0.1296  0.1312 -0.0278
 4955W        W 7155  10.433   1.795  23.240 -0.0473 -0.1114 -0.2653
 4956W        W 7156  17.909   0.390  20.326  0.0828 -0.1857  0.0264
 4957W        W 7157   4.198   6.313  17.311  0.1832  0.2710 -0.0191
 4958W        W 7158  16.342   5.003   6.214 -0.1792 -0.0059  0.0298
 4959W        W 7159   7.627   7.736   9.424  0.0572  0.0820  0.0537
 4960W        W 7160  28.147   1.104   7.940  0.0146  0.0342 -0.0698
 4961W        W 7161   0.095   1.112  21.953  0.0361 -0.0659  0.2872
 4962W        W 7162  16.491   2.193   3.321  0.2913  0.0823 -0.0831
 4963W        W 7163   1.718   5.932  23.911  0.2521 -0.1790 -0.1111
 4964W        W 7164  16.587   1.728   3.626 -0.0967 -0.1443 -0.2120
 4965W        W 7165   0.232   3.473  10.721 -0.0625  0.0278  0.2351
 4966W        W 7166  21.279   2.160  18.053 -0.3386  0.0362 -0.2046
 4967W        W 7167  12.512   0.375  18.005  0.4251  0.2964 -0.0433
 4968W        W 7168   0.278   4.784  17.296  0.0519  0.0645  0.2935
 4969W        W 7169  24.683   6.392  16.931  0.2291  0.0841  0.2569
 4970W        W 7170  27.236   2.133   3.120 -0.1212 -0.3428 -0.3156
 4971W        W 7171  30.200   2.852   0.714 -0.0383 -0.2147 -0.0803
 4972W        W 7172  27.748   0.274   7.622  0.0029 -0.1525  0.1494
 4973W        W 7173   3.099   3.494  20.079  0.0575  0.0980  0.2746
 4974W        W 7174   3.121   5.662  23.953  0.1438 -0.1388  0.1576
 4975W        W 7175   0.627   7.821  21.897 -0.0917 -0.0672  0.0345
 4976W        W 7176  10.601   7.591  20.959  0.0818  0.0933  0.2778
 4977W        W 7177  31.249   0.607   0.581 -0.1495 -0.0025 -0.2346
 4978W        W 7178  19.158   7.681  18.569 -0.1208  0.0389 -0.0119
 4979W        W 7179  26.442   7.403  21.206  0.1050 -0.1634  0.5936
 4980W        W 7180  13.483   7.401  16.436  0.0897  0.0066  0.0760
 4981W        W 7181  23.538   6.901  14.318 -0.0191 -0.0593  0.1688
 4982W        W 7182  20.528   1.350  20.118  0.0082  0.0426  0.0352
 4983W        W 7183  20.251   5.578   4.001 -0.0389  0.2329  0.0023
 4984W        W 7184   3.048   7.529   4.536 -0.2533  0.0206 -0.0152
 4985W        W 7185   8.572   3.268   7.704  0.2218 -0.0387 -0.0921
 4986W        W 7186   5.756   0.104   1.116  0.0856  0.1418  0.0909
 4987W        W 7187  25.510   6.464  25.158  0.1064  0.1526  0.0644
 4988W        W 7188  25.638   0.006  16.347 -0.0823 -0.0815  0.1208
 4989W        W 7189  18.942   7.226   8.119  0.0854 -0.1105  0.1682
 4990W        W 7190  30.031   6.937  24.789 -0.1288  0.0386  0.2950
 4991W        W 7191  11.749   3.741  23.476 -0.3471 -0.2199 -0.2208
 4992W        W 7192  10.630   1.972  16.831 -0.1420 -0.0563  0.2042
 4993W        W 7193   7.713   5.826  18.663  0.0180  0.4611 -0.2371
 4994W        W 7194  11.952   0.877  17.404 -0.0504  0.0061  0.1329
 4995W        W 7195   9.692   1.725   1.319 -0.1873 -0.2232 -0.0295
 4996W        W 7196  28.712   0.712   1.954  0.2947 -0.3839  0.2500
 4997W        W 7197  30.473   0.972   3.367 -0.2094  0.0394 -0.2138
 4998W        W 7198  26.941   1.288  23.924 -0.4369 -0.0683  0.0420
 4999W        W 7199  20.985   7.373   5.706  0.1307 -0.1134  0.0133
 5000W        W 7200  18.664   6.431  15.594  0.3133  0.2878  0.1111
 5001W        W 7201  25.386   5.353   3.107  0.0423  0.0280  0.1969
 5002W        W 7202   4.083   2.930  18.366 -0.3297 -0.1154 -0.1012
 5003W        W 7203   4.752   3.465  22.689  0.0370 -0.0453  0.1900
 5004W        W 7204   2.280   4.960  25.593 -0.2828 -0.0095  0.2040
 5005W        W 7205  13.697   7.652   0.144 -0.1165 -0.0094 -0.0421
 5006W        W 7206  27.820   7.480   3.010 -0.0740 -0.0210 -0.0920
 5007W        W 7207  24.999   2.623  25.588 -0.1296 -0.1233 -0.1080
 5008W        W 7208   0.902   4.063  20.569  0.1556 -0.2697 -0.0813
 5009W        W 7209  25.082   4.001  18.244 -0.0847  0.2181  0.0252
 5010W        W 7210  17.652   1.095  10.801  0.3728 -0.1886 -0.0145
 5011W        W 7211   3.067   7.759  20.186  0.2448  0.0570  0.0462
 5012W        W 7212  27.938   5.774   6.537  0.1391  0.0062  0.1755
 5013W        W 7213   5.136   3.351   8.042  0.0494  0.0040 -0.0588
 5014W        W 7214  29.384   3.407   9.616 -0.0318 -0.0056  0.1131
 5015W        W 7215   5.143   2.300  22.068  0.2285  0.0001  0.1996
 5016W        W 7216  21.061   1.592  17.106 -0.1319  0.2197 -0.1971
 5017W        W 7217  23.977   4.734  19.420 -0.0414  0.2427 -0.2689
 5018W        W 7218  27.487   4.356  17.991 -0.0677  0.0125 -0.0688
 5019W        W 7219  12.206   2.338   6.133 -0.0664 -0.3750 -0.0928
 5020W        W 7220  30.672   2.469  22.137 -0.0455  0.1573  0.0053
 5021W        W 7221  27.204   3.417   7.028  0.2377 -0.3228 -0.1687
 5022W        W 7222  23.112   7.486  24.463 -0.3083  0.0951 -0.1710
 5023W        W 7223  16.355   5.548   4.816  0.0366  0.0023  0.0404
 5024W        W 7224   2.234   5.305   6.243  0.2855  0.1008 -0.1849
 5025W        W 7225   6.566   1.897  18.441 -0.1505 -0.2028 -0.2423
 5026W        W 7226  10.260   0.394  25.919 -0.1253 -0.0182 -0.1333
 5027W        W 7227   0.343   2.244  10.973  0.1660 -0.2350 -0.0186
 5028W        W 7228  22.200   3.648  20.711  0.5679 -0.0056  0.1699
 5029W        W 7229   6.618   6.532   0.443  0.1949 -0.1034 -0.1986
 5030W        W 7230  18.343   7.728  18.461 -0.1736 -0.1456 -0.0791
 5031W        W 7231  21.364   3.438  25.143 -0.0795 -0.2771 -0.0519
 5032W        W 7232  11.244   6.804   0.746  0.0115  0.0552 -0.0481
 5033W        W 7233  29.661   5.462   5.551 -0.1302 -0.2646 -0.0451
 5034W        W 7234  30.023   6.880   7.557 -0.0982 -0.0149 -0.2991
 5035W        W 7235   1.628   3.518   1.757 -0.1174  0.1269  0.1441
 5036W        W 7236   1.162   4.072  10.165  0.2143  0.0178  0.2019
 5037W        W 7237  16.117   2.280  17.574 -0.3729  0.2537  0.1607
 5038W        W 7238  16.995   3.377  23.452 -0.3354  0.0548  0.1249
 5039W        W 7239  24.232   5.096  21.667  0.0219  0.0296  0.1435
 5040W        W 7240   8.480   0.108   0.315 -0.1114 -0.2193 -0.2414
 5041W        W 7241   0.901   0.798  19.677 -0.1536  0.0616  0.2329
 5042W        W 7242  30.136   0.729   6.560 -0.0475  0.1234  0.1762
 5043W        W 7243  17.800   6.128  16.477 -0.1334 -0.0782  0.1630
 5044W        W 7244   2.781   5.430   7.668  0.0610  0.1217  0.1796
 5045W        W 7245  18.081   4.388  16.363 -0.1715 -0.0855  0.0286
 5046W        W 7246  30.607   0.097  22.767  0.0017 -0.2981  0.2109
 5047W        W 7247  11.771   6.185   9.020  0.0524  0.4787 -0.1485
 5048W        W 7248  28.923   5.449  18.754 -0.2156  0.0794 -0.1367
 5049W        W 7249  26.224   2.575  20.942  0.0901 -0.1085  0.1298
 5050W        W 7250   0.024   6.555   4.737 -0.0883  0.1669 -0.0512
 5051W        W 7251  29.919   2.112   0.269  0.0311  0.0961  0.0016
 5052W        W 7252   3.342   1.882  17.488  0.1845 -0.2450  0.0395
 5053W        W 7253  11.665   0.384   7.295  0.0637 -0.0116  0.0120
 5054W        W 7254  30.393   5.243  24.915  0.0051 -0.2484  0.0369
 5055W        W 7255  23.879   7.600  22.386  0.0808  0.1646  0.1639
 5056W        W 7256   3.913   6.115   4.806  0.0464  0.1373 -0.0698
 5057W        W 7257  10.932   5.744   8.367  0.1632 -0.1372  0.0505
 5058W        W 7258  28.986   4.465  17.241  0.2422 -0.0460 -0.1345
 5059W        W 7259  28.481   5.651  17.288 -0.0497  0.1083  0.1909
 5060W        W 7260  30.042   0.099  25.147 -0.0335  0.0347  0.1299
 5061W        W 7261  25.129   1.953   6.618 -0.0673  0.2256 -0.2117
 5062W        W 7262  13.697   7.765   0.857 -0.1812 -0.1433 -0.1524
 5063W        W 7263   2.424   7.193  18.490 -0.0836  0.2459  0.0243
 5064W        W 7264   8.752   0.246   7.255 -0.2068  0.1090 -0.0235
 5065W        W 7265   8.781   0.144  11.160  0.0429 -0.1143 -0.3275
 5066W        W 7266   0.969   4.853   7.356 -0.0189 -0.1344 -0.2120
 5067W        W 7267  30.356   7.128  24.458  0.0889 -0.0707 -0.0583
 5068W        W 7268  17.517   5.892   5.052 -0.0106 -0.1850  0.0565
 5069W        W 7269  19.270   4.400   0.529  0.0496  0.0934  0.0055
 5070W        W 7270   7.735   1.887  25.380  0.1698 -0.0793 -0.2462
 5071W        W 7271   7.020   7.260  23.175 -0.0948  0.3012  0.2673
 5072W        W 7272  19.842   7.163  17.368  0.1019  0.2265  0.4177
 5073W        W 7273  10.649   3.345  21.593 -0.2122  0.1641 -0.1955
 5074W        W 7274  25.482   4.268  23.203  0.3108 -0.0015 -0.1233
 5075W        W 7275  11.071   6.950   0.270 -0.0132 -0.1661  0.0612
 5076W        W 7276  18.715   2.996   8.970  0.0684 -0.0597  0.3242
 5077W        W 7277  21.250   2.837   6.021  0.2196 -0.0069  0.2613
 5078W        W 7278  20.698   3.215  23.132  0.2481  0.2817  0.2362
 5079W        W 7279  19.743   1.744   0.514  0.2250  0.2273  0.2062
 5080W        W 7280   1.068   7.762  16.857 -0.2190  0.0617 -0.0057
 5081W        W 7281  22.492   0.105   9.102  0.1435  0.3668 -0.4896
 5082W        W 7282  29.994   5.556   7.005 -0.0254  0.1511 -0.1915
 5083W        W 7283  29.323   4.068  18.161 -0.0629 -0.0838 -0.0330
 5084W        W 7284   8.243   6.214  20.768  0.1888  0.0831 -0.1934
 5085W        W 7285  11.780   1.303  21.892  0.4185  0.1060  0.1458
 5086W        W 7286   1.805   1.780  17.773 -0.1408  0.2464 -0.2361
 5087W        W 7287  17.908   2.026   1.125 -0.0664 -0.1020  0.0621
 5088W        W 7288  10.690   6.413  18.113  0.0214 -0.0265  0.1871
 5089W        W 7289  23.606   6.918   5.401 -0.0579 -0.1042 -0.3721
 5090W        W 7290   8.024   5.070  21.855  0.1438  0.1753  0.0622
 5091W        W 7291   8.606   4.373  22.567  0.5305 -0.0948  0.1053
 5092W        W 7292  14.481   5.757  16.458 -0.2695 -0.0341  0.1762
 5093W        W 7293   9.204   0.348  20.791 -0.0019  0.0925 -0.1820
 5094W        W 7294   1.787   5.363  20.014 -0.1588  0.3296 -0.0572
 5095W        W 7295  10.083   2.325  16.951  0.0088  0.0937 -0.0778
 5096W        W 7296   8.067   2.480   9.199 -0.0957 -0.1101  0.1054
 5097W        W 7297  20.762   6.895  24.662 -0.0627 -0.1461  0.0642
 5098W        W 7298  14.554   0.910  25.061  0.1174 -0.0333 -0.1245
 5099W        W 7299  28.957   0.919  22.252 -0.5721 -0.1979  0.4058
 5100W        W 7300  16.060   5.818  24.835  0.0354  0.1557 -0.0208
 5101W        W 7301  24.825   4.876  21.254 -0.0153 -0.0131  0.3562
 5102W        W 7302  30.446   6.555  21.906 -0.0710  0.0368  0.2537
 5103W        W 7303  13.102   5.009   3.520 -0.1236  0.1556 -0.0706
 5104W        W 7304   0.145   1.305  25.375  0.3868  0.3074 -0.1975
 5105W        W 7305   5.844   0.008  19.403 -0.0555 -0.0634  0.0077
 5106W        W 7306   0.879   1.493   2.790  0.0699  0.1559 -0.5478
 5107W        W 7307  29.368   7.318  10.336 -0.0757  0.3224 -0.1689
 5108W        W 7308   4.169   3.527   7.273  0.0762 -0.0372 -0.1041
 5109W        W 7309  26.266   4.526   0.784  0.0900 -0.3427 -0.3684
 5110W        W 7310  30.447   2.706  20.206 -0.1004 -0.0795 -0.2176
 5111W        W 7311  18.061   5.169   9.577 -0.2313  0.3101  0.7195
 5112W        W 7312  22.061   4.883  17.831  0.1802 -0.3941  0.0056
 5113W        W 7313  17.356   1.137  16.241 -0.0059  0.1135 -0.0892
 5114W        W 7314  11.218   4.975   8.351 -0.0801 -0.0884 -0.1954
 5115W        W 7315   2.994   3.556   6.257  0.3308 -0.0901 -0.0676
 5116W        W 7316  29.634   0.419   0.593 -0.1042  0.2516 -0.0751
 5117W        W 7317  17.969   2.162   5.213 -0.2639  0.1109  0.0245
 5118W        W 7318   7.027   1.803  18.249  0.0605 -0.0693 -0.0913
 5119W        W 7319  23.164   6.164   6.170 -0.2843 -0.1592  0.1696
 5120W        W 7320  30.392   3.837   3.819  0.0879 -0.5024 -0.0780
 5121W        W 7321  17.833   1.883   2.916 -0.3125 -0.0878  0.1094
 5122W        W 7322  30.298   4.922   2.601  0.3352  0.1187 -0.0182
 5123W        W 7323  27.618   6.925  22.243  0.1212  0.2307  0.0477
 5124W        W 7324  16.120   7.352  16.076  0.3202  0.0020 -0.1528
 5125W        W 7325   5.114   6.403   5.568 -0.1262 -0.0791  0.0969
 5126W        W 7326  16.730   5.442  21.830  0.0293  0.1923  0.0489
 5127W        W 7327   1.851   7.516   7.096 -0.0021 -0.0515 -0.0454
 5128W        W 7328  16.507   3.064   5.143  0.2101 -0.1746  0.0702
 5129W        W 7329   3.998   1.931   9.474  0.0483 -0.1569 -0.2442
 5130W        W 7330  17.701   7.049   0.339 -0.1157  0.0234  0.0643
 5131W        W 7331   1.607   1.662   1.243  0.2175 -0.2579  0.3257
 5132W        W 7332  30.734   5.274   1.464 -0.2305 -0.2091  0.1689
 5133W        W 7333  20.598   2.937  22.676 -0.2236 -0.1970 -0.1891
 5134W        W 7334  27.710   1.208  16.974 -0.0035  0.2465 -0.2154
 5135W        W 7335  21.270   5.284  25.041 -0.1401 -0.0084  0.0679
 5136W        W 7336  14.495   3.521  21.314  0.1468  0.0296 -0.0743
 5137W        W 7337   8.418   7.260   4.855 -0.0600  0.1552 -0.0420
 5138W        W 7338  26.514   1.376   7.718  0.4182 -0.1565 -0.3395
 5139W        W 7339   4.040   6.458  18.226  0.1095 -0.4523  0.2283
 5140W        W 7340  12.648   0.822  25.757  0.2331  0.1978 -0.2179
 5141W        W 7341  13.250   6.448   3.262 -0.0031 -0.0693 -0.1065
 5142W        W 7342  23.695   1.677   5.853  0.1859 -0.1351  0.2228
 5143W        W 7343  25.347   0.196  17.562 -0.1747 -0.0282  0.0088
 5144W        W 7344  14.403   1.328  21.572 -0.1620 -0.0148 -0.0132
 5145W        W 7345  20.364   7.458  21.352 -0.2976 -0.0640 -0.0582
 5146W        W 7346  10.620   2.541  10.227  0.1442 -0.6132 -0.0666
 5147W        W 7347   9.280   1.171  21.266  0.2304 -0.0299  0.0672
 5148W        W 7348   9.061   2.802   8.439 -0.0957 -0.0898 -0.0450
 5149W        W 7349  29.371   2.093  23.749 -0.1889  0.3005  0.0655
 5150W        W 7350  12.985   1.920  25.167  0.1090 -0.0032 -0.0710
 5151W        W 7351  11.436   1.503  25.923  0.0384 -0.3029  0.0915
 5152W        W 7352  30.647   6.419  17.671  0.0595  0.1653 -0.4036
 5153W        W 7353   4.504   5.904  17.326 -0.1757  0.0118 -0.1713
 5154W        W 7354  21.977   0.692   5.537  0.1467  0.0189 -0.0910
 5155W        W 7355  30.702   7.544   2.381 -0.1637  0.0298  0.1204
 5156W        W 7356  24.521   0.018  21.057 -0.1715  0.3355 -0.3709
 5157W        W 7357  26.803   0.188  25.174  0.1884  0.1621  0.0475
 5158W        W 7358  24.419   7.298  24.161  0.1368 -0.0753 -0.0393
 5159W        W 7359  10.419   0.278   5.605 -0.2135 -0.1480  0.0442
 5160W        W 7360   8.007   5.013  23.131 -0.1685 -0.2090  0.0457
 5161W        W 7361  23.420   4.908  15.341  0.2039  0.4514 -0.0515
 5162W        W 7362  28.841   0.450  19.079  0.0061  0.0105 -0.0111
 5163W        W 7363  18.896   3.373  23.140 -0.1671 -0.3249  0.0491
 5164W        W 7364  27.098   3.922   1.748  0.0707  0.2105 -0.0744
 5165W        W 7365  28.997   4.503   4.921 -0.0112  0.1785  0.2979
 5166W        W 7366  20.580   1.752  20.370  0.0869 -0.2055  0.0948
 5167W        W 7367   2.281   3.345  24.396  0.0172  0.0877 -0.0313
 5168W        W 7368   5.815   0.733   3.552 -0.2607  0.1045 -0.1103
 5169W        W 7369  23.923   2.601  20.590 -0.3074  0.3233 -0.1019
 5170W        W 7370  20.624   6.926   2.585 -0.0881  0.0749  0.1717
 5171W        W 7371  26.892   1.439   4.734  0.4436 -0.3671  0.0222
 5172W        W 7372   9.503   0.161   4.593 -0.0136 -0.1425 -0.0945
 5173W        W 7373  28.704   3.829  10.104 -0.0719  0.2546  0.3195
 5174W        W 7374  10.445   3.687   4.733  0.0501 -0.2310 -0.0631
 5175W        W 7375  18.722   3.149   3.895 -0.2368 -0.0936 -0.3494
 5176W        W 7376  14.176   3.992  17.445  0.1358 -0.1177  0.0267
 5177W        W 7377  19.812   0.961  20.901  0.1149 -0.0458  0.0763
 5178W        W 7378  11.713   5.980   3.911  0.0687  0.0274 -0.1703
 5179W        W 7379  10.644   3.361   3.458  0.1827 -0.2280  0.0301
 5180W        W 7380   8.480   4.247  21.524 -0.0847  0.1011  0.1106
 5181W        W 7381  13.755   7.541   7.744 -0.1099  0.1113 -0.2283
 5182W        W 7382   0.341   2.002   4.373 -0.1735 -0.1328 -0.0020
 5183W        W 7383  14.259   4.060   9.368  0.1259 -0.0962 -0.2662
 5184W        W 7384  13.711   4.261  23.612 -0.0799  0.0608  0.1270
 5185W        W 7385  23.271   1.171   5.270 -0.0237  0.1010 -0.0170
 5186W        W 7386  19.462   0.461  15.665  0.0724  0.2456  0.1384
 5187W        W 7387  20.524   2.989  19.446 -0.1203  0.1465  0.0820
 5188W        W 7388  22.632   7.423  10.344  0.2380 -0.2562 -0.2014
 5189W        W 7389   0.599   7.662   2.011  0.0827 -0.0438  0.1229
 5190W        W 7390  23.473   4.352  15.358 -0.0146 -0.1907 -0.2465
 5191W        W 7391  26.091   6.025   0.333  0.1815 -0.2175  0.1584
 5192W        W 7392  24.172   0.139  16.676  0.0712 -0.1050 -0.0032
 5193W        W 7393  17.200   6.719   4.759 -0.0673  0.1003  0.1452
 5194W        W 7394  22.299   7.512   8.881  0.0636  0.0491  0.1056
 5195W        W 7395   7.198   1.198   4.796 -0.1609 -0.2501  0.3871
 5196W        W 7396  26.738   3.882   6.085  0.2853 -0.0726 -0.1580
 5197W        W 7397   7.641   2.612  22.401 -0.3146  0.0562  0.3562
 5198W        W 7398  18.008   2.306   5.869 -0.0266 -0.0435 -0.0963
 5199W        W 7399  21.090   2.948  22.826 -0.0698  0.0450  0.5184
 5200W        W 7400   7.754   6.363   2.095 -0.0409  0.3106 -0.0081
 5201W        W 7401  30.406   1.946  23.829  0.1769  0.1077  0.2158
 5202W        W 7402  28.279   7.262   9.868 -0.1120 -0.2707 -0.3007
 5203W        W 7403  10.526   1.413  25.436 -0.0221  0.2770  0.0481
 5204W        W 7404   8.275   4.499   3.508  0.1434 -0.1101  0.2412
 5205W        W 7405   4.320   2.212   8.652 -0.0567  0.0342 -0.3094
 5206W        W 7406  17.406   5.166   4.625  0.1600  0.0790  0.0275
 5207W        W 7407  15.520   4.628  15.654  0.1515 -0.1149  0.1243
 5208W        W 7408   9.353   5.937   6.613 -0.0746 -0.2102 -0.3140
 5209W        W 7409  15.457   6.790   5.954 -0.1250  0.2757  0.0190
 5210W        W 7410  12.188   2.720   0.651  0.0601  0.0183 -0.2322
 5211W        W 7411  18.088   3.904   0.212 -0.1002  0.0767  0.1162
 5212W        W 7412   4.120   5.279  18.351  0.1574 -0.3802 -0.0270
 5213W        W 7413  28.549   6.921   2.011 -0.0256  0.1408  0.1967
 5214W        W 7414  29.496   0.039  17.500 -0.0035 -0.4488 -0.0855
 5215W        W 7415  12.350   6.592   0.881 -0.1685  0.1451  0.0193
 5216W        W 7416  23.138   6.070   7.816  0.1138 -0.0001  0.0260
 5217W        W 7417   8.707   7.814  21.873 -0.4387 -0.0296  0.3497
 5218W        W 7418  26.765   7.363   1.413  0.1453 -0.2020 -0.1198
 5219W        W 7419   6.466   4.081   0.921 -0.3195  0.0797  0.1785
 5220W        W 7420  19.992   2.100   9.124 -0.1364  0.1114 -0.0177
 5221W        W 7421  15.782   2.987   8.079 -0.2765  0.1624  0.1022
 5222W        W 7422  11.814   5.399   9.776  0.2615 -0.0072  0.1035
 5223W        W 7423  16.300   4.076   8.140  0.1098  0.1114 -0.0792
 5224W        W 7424  30.283   2.575  19.386  0.0458  0.0078 -0.3694
 5225W        W 7425   8.795   2.163   1.662  0.1173  0.0570 -0.0971
 5226W        W 7426  17.476   6.400   5.130  0.1231  0.0340 -0.2024
 5227W        W 7427  25.869   5.446   4.557 -0.0553  0.1342 -0.0573
 5228W        W 7428   7.883   0.185  18.911  0.2689 -0.3652  0.0262
 5229W        W 7429   3.030   0.712  24.725  0.1181  0.0710  0.0295
 5230W        W 7430  24.769   7.826  10.529  0.3951 -0.0247  0.0455
 5231W        W 7431  25.781   2.644   5.757  0.0032 -0.2233  0.2132
 5232W        W 7432   8.489   0.303   8.879  0.4876  0.1077  0.1026
 5233W        W 7433   9.922   7.304   6.993  0.0283 -0.1499  0.1005
 5234W        W 7434   0.113   6.228  26.148 -0.1334 -0.3169  0.2603
 5235W        W 7435  28.828   7.333   9.689 -0.1371  0.2443 -0.3510
 5236W        W 7436  18.060   3.823  23.161  0.2260  0.1499 -0.4882
 5237W        W 7437  23.518   1.121  10.140 -0.1390 -0.0732 -0.0648
 5238W        W 7438   3.273   3.385   7.260 -0.2813  0.1668 -0.1003
 5239W        W 7439  20.079   5.440  21.660 -0.0926 -0.0077 -0.1012
 5240W        W 7440  30.653   2.202  10.259 -0.0444  0.3140 -0.0056
 5241W        W 7441  26.008   4.898   3.355  0.2131 -0.0114 -0.1678
 5242W        W 7442  17.989   4.578   7.543 -0.0810  0.3651 -0.0632
 5243W        W 7443  27.042   7.363   2.809 -0.0631 -0.0116 -0.1178
 5244W        W 7444   4.720   6.793   7.459 -0.2242 -0.2693 -0.1139
 5245W        W 7445   2.936   7.715   9.742  0.0902 -0.1769  0.0948
 5246W        W 7446  24.346   4.576  19.991 -0.1366  0.0989 -0.0734
 5247W        W 7447  17.964   7.470  23.037 -0.2054 -0.0568  0.0813
 5248W        W 7448   4.171   0.350  10.457 -0.2031  0.2624 -0.3592
 5249W        W 7449  16.795   1.482  20.061 -0.0795 -0.1987 -0.2574
 5250W        W 7450  25.229   2.018  21.908  0.0081  0.3165  0.1720
 5251W        W 7451  12.992   5.365  17.152 -0.1863  0.1745 -0.2408
 5252W        W 7452  24.620   2.342  23.072 -0.1407 -0.1494 -0.1409
 5253W        W 7453  12.249   3.057   8.430 -0.0565 -0.3168  0.0931
 5254W        W 7454   2.970   1.730  16.554 -0.0623  0.0374 -0.5217
 5255W        W 7455   7.303   2.697  23.150  0.0193 -0.0396  0.1183
 5256W        W 7456  18.216   2.893  21.401  0.0428 -0.6044  0.0653
 5257W        W 7457  24.620   1.101  10.377 -0.1215  0.2705 -0.5107
 5258W        W 7458   3.955   4.774  16.376  0.1837 -0.1884  0.1532
 5259W        W 7459  14.585   2.269   0.324 -0.1021 -0.3507  0.0321
 5260W        W 7460  31.052   1.542  16.005  0.0838 -0.2341 -0.0999
 5261W        W 7461  26.241   0.833  14.748  0.3384 -0.1889 -0.3423
 5262W        W 7462  17.961   2.565  20.504 -0.0538  0.0377 -0.1088
 5263W        W 7463  13.740   0.707   2.059 -0.0692 -0.1964 -0.2074
 5264W        W 7464   6.237   5.704  19.528  0.2479 -0.2960  0.0269
 5265W        W 7465  14.610   4.401  10.200 -0.2496  0.0636 -0.2877
 5266W        W 7466  29.965   6.194   4.957 -0.2730 -0.2687 -0.0329
 5267W        W 7467   0.599   1.107   8.559  0.0896 -0.2735 -0.0356
 5268W        W 7468  13.562   7.163  17.345 -0.0586 -0.0794 -0.1124
 5269W        W 7469   7.584   3.783  22.019 -0.0352 -0.2730 -0.0433
 5270W        W 7470  12.371   2.814  20.101 -0.1406  0.3186  0.2712
 5271W        W 7471  30.037   5.000   5.558  0.3005 -0.0513 -0.1704
 5272W        W 7472   6.967   2.163  20.384 -0.0956  0.0941 -0.0028
 5273W        W 7473  23.530   1.249   5.702 -0.2329 -0.1117 -0.2058
 5274W        W 7474  18.745   1.819  23.383  0.0577 -0.1039 -0.1312
 5275W        W 7475  18.197   5.835   4.625 -0.2585 -0.0522 -0.1948
 5276W        W 7476   4.977   4.522   9.019  0.0446  0.1349 -0.2690
 5277W        W 7477   5.713   0.008   8.852 -0.0268 -0.3376  0.2439
 5278W        W 7478  23.315   2.729  21.943 -0.2477  0.0405 -0.0489
 5279W        W 7479   9.668   4.149  24.314 -0.1499  0.1686  0.0551
 5280W        W 7480  26.306   0.402   5.122  0.2978 -0.0588  0.1970
 5281W        W 7481   8.476   0.961   9.463  0.0462 -0.2506 -0.2237
 5282W        W 7482  17.189   6.142   7.586 -0.0895 -0.1214  0.2266
 5283W        W 7483   5.731   1.746   4.400  0.2902  0.1680 -0.0708
 5284W        W 7484   1.221   2.493  18.961 -0.5070 -0.0977  0.0854
 5285W        W 7485  30.620   5.053   4.309  0.0036  0.2225  0.0909
 5286W        W 7486   5.269   6.087   7.778  0.2978  0.2583 -0.3308
 5287W        W 7487   5.124   4.785   3.526 -0.2359  0.1246 -0.2826
 5288W        W 7488  29.547   0.722   1.016  0.1386  0.1625 -0.0079
 5289W        W 7489  18.164   2.712  18.848  0.1581 -0.0088 -0.0673
 5290W        W 7490  23.636   1.477  18.453 -0.0296  0.0084 -0.3705
 5291W        W 7491  26.404   3.777   2.805  0.0017  0.2440 -0.0650
 5292W        W 7492  21.842   1.738  23.625  0.3661  0.4667  0.0183
 5293W        W 7493  18.090   1.016  21.491  0.0975  0.0341  0.3358
 5294W        W 7494   5.440   5.095  19.612 -0.1631 -0.0722 -0.1411
 5295W        W 7495  21.846   3.996   4.625  0.2011 -0.1454 -0.0962
 5296W        W 7496   3.288   3.633   0.913 -0.2425 -0.2467  0.0410
 5297W        W 7497  19.150   1.077   5.358  0.3569 -0.0315  0.0065
 5298W        W 7498   9.807   5.660   0.561  0.3895 -0.0963  0.0166
 5299W        W 7499   7.521   3.807  10.202  0.1641 -0.2285  0.1159
 5300W        W 7500   2.162   0.526  21.806  0.2235 -0.1196  0.3068
 5301W        W 7501  18.673   0.239  10.778  0.0374  0.2661 -0.1272
 5302W        W 7502   7.045   7.062   8.196 -0.1082  0.2975 -0.1418
 5303W        W 7503   3.522   3.267   6.566  0.1445  0.1664 -0.0036
 5304W        W 7504  12.760   5.856   1.849  0.1915 -0.1012 -0.0810
 5305W        W 7505  21.899   0.647   9.542 -0.0536 -0.0887 -0.0521
 5306W        W 7506  12.816   5.786   4.858  0.2117 -0.0089  0.0777
 5307W        W 7507  13.715   5.953  21.229 -0.0220 -0.0919  0.1452
 5308W        W 7508  26.018   3.128   9.734 -0.0451 -0.1583 -0.0173
 5309W        W 7509  19.092   0.554  20.112  0.1530 -0.4388  0.0286
 5310W        W 7510  21.076   3.342  24.662  0.0670  0.2739 -0.4055
 5311W        W 7511  21.306   6.195  16.923  0.0075  0.0886  0.2118
 5312W        W 7512  25.306   1.148   1.403 -0.0189  0.0948 -0.1170
 5313W        W 7513  30.277   5.499   1.115  0.0520 -0.2015  0.2471
 5314W        W 7514  24.527   1.085   1.762  0.0455  0.0735  0.0198
 5315W        W 7515  28.947   3.660  16.996 -0.2519 -0.2466 -0.1483
 5316W        W 7516   2.757   4.023   5.004 -0.1014  0.2454 -0.1047
 5317W        W 7517  28.987   5.786  19.177  0.0764  0.2217  0.2419
 5318W        W 7518  25.407   5.124  17.041 -0.4142  0.0948  0.0999
 5319W        W 7519   4.073   5.789  20.257 -0.0756 -0.0628  0.3111
 5320W        W 7520   4.614   6.558   9.003 -0.1821  0.1700  0.1184
 5321W        W 7521  21.990   1.015  24.690 -0.1004 -0.1209  0.2187
 5322W        W 7522  16.875   0.167  18.894  0.1765  0.0679 -0.2395
 5323W        W 7523  22.558   2.324  18.161  0.0778 -0.2903 -0.0365
 5324W        W 7524  14.614   3.207   3.582 -0.0757  0.1379  0.1280
 5325W        W 7525   2.704   4.410  23.079 -0.1596  0.1263 -0.1073
 5326W        W 7526  29.869   2.204  19.457  0.0439  0.0816  0.2323
 5327W        W 7527   3.065   1.385  18.072 -0.0774  0.1222 -0.0791
 5328W        W 7528  23.479   6.055   7.393 -0.2234  0.4204 -0.0866
 5329W        W 7529  19.763   5.017   2.752  0.0896  0.1419 -0.0742
 5330W        W 7530  22.074   1.804  25.288 -0.1687 -0.0130 -0.0091
 5331W        W 7531  19.240   5.281  20.880 -0.0001 -0.1889  0.1317
 5332W        W 7532  18.447   1.002  19.192 -0.1267 -0.0578  0.2020
 5333W        W 7533   2.005   5.135  17.127  0.2402  0.1285 -0.0191
 5334W        W 7534   6.331   4.562  18.820 -0.1527 -0.2931  0.1882
 5335W        W 7535  23.392   4.948  16.171  0.3888 -0.2388 -0.1214
 5336W        W 7536  13.971   3.352   7.435  0.1887  0.0705 -0.2020
 5337W        W 7537   8.431   4.367  17.137 -0.0586 -0.0714 -0.3065
 5338W        W 7538  24.014   3.928   8.478  0.0336  0.1830 -0.1101
 5339W        W 7539  30.538   3.643   8.134 -0.1795  0.2093  0.0075
 5340W        W 7540   9.822   0.788   5.186  0.2049  0.1114  0.1754
 5341W        W 7541   7.267   0.296   1.692  0.0623 -0.0772  0.1115
 5342W        W 7542  29.610   4.064  24.710 -0.2243 -0.2742 -0.1251
 5343W        W 7543  25.690   1.823   0.025 -0.0950  0.1223 -0.0265
 5344W        W 7544   4.678   7.446  10.551  0.2604  0.0093 -0.2395
 5345W        W 7545  17.662   3.215  24.258 -0.2684  0.3127 -0.0292
 5346W        W 7546   0.092   5.418   8.658 -0.2426 -0.1163 -0.1044
 5347W        W 7547  29.816   5.648   9.577  0.1523  0.1409 -0.2456
 5348W        W 7548  23.355   6.655  23.569 -0.0989 -0.0599 -0.0024
 5349W        W 7549  20.521   4.625  16.422 -0.0772  0.0809  0.3996
 5350W        W 7550  27.487   2.787   7.220  0.1769 -0.3283  0.0826
 5351W        W 7551  20.505   6.166  18.832 -0.0784  0.2138  0.1072
 5352W        W 7552   4.764   4.003  18.399  0.2257 -0.1422 -0.1523
 5353W        W 7553  20.377   4.616   0.741  0.0773  0.1796 -0.0144
 5354W        W 7554   0.138   0.965   7.521 -0.0810 -0.1980  0.0551
 5355W        W 7555   0.699   4.390   5.381 -0.1327  0.3002 -0.1885
 5356W        W 7556  28.902   6.204   1.954 -0.2079 -0.3737  0.0751
 5357W        W 7557   8.747   3.748  15.277  0.1069  0.2484  0.0666
 5358W        W 7558   8.546   2.632  20.037 -0.0135  0.1238 -0.2630
 5359W        W 7559   9.591   0.065   7.737 -0.2034  0.4110  0.0599
 5360W        W 7560   4.244   1.680   5.711  0.2725 -0.0894 -0.0006
 5361W        W 7561  20.986   0.506   6.303 -0.0213  0.1870  0.4953
 5362W        W 7562   2.261   2.566  21.539  0.1268 -0.0643  0.1073
 5363W        W 7563   3.949   6.412  11.089  0.3075  0.2447  0.0879
 5364W        W 7564  28.833   6.700  19.583  0.0914  0.2183 -0.2791
 5365W        W 7565  10.780   6.354   5.879 -0.1116  0.1044 -0.3320
 5366W        W 7566  22.726   3.995   7.259 -0.1321  0.1355 -0.0942
 5367W        W 7567  27.870   4.924  18.825 -0.1473  0.0219 -0.1147
 5368W        W 7568  15.937   5.755  24.370 -0.1823  0.0865 -0.2911
 5369W        W 7569  21.795   7.518  23.274 -0.0971 -0.0525 -0.4788
 5370W        W 7570   6.335   6.284  25.994  0.1556 -0.1566  0.2096
 5371W        W 7571  12.600   3.268   3.142  0.0410  0.2261  0.0397
 5372W        W 7572  20.550   3.351   0.904  0.0592  0.0532  0.0214
 5373W        W 7573  25.418   0.667  17.358 -0.1803  0.1277  0.2856
 5374W        W 7574  21.901   4.770   4.576  0.2742 -0.0628  0.4253
 5375W        W 7575   5.842   6.137   3.372  0.0109  0.1321  0.0584
 5376W        W 7576  19.096   4.686   0.904 -0.1774  0.0474  0.2229
 5377W        W 7577  15.999   1.011  24.277 -0.4428 -0.0114  0.2661
 5378W        W 7578   0.738   7.584   7.322 -0.1748 -0.2051  0.2159
 5379W        W 7579  14.905   3.074   5.949  0.0179 -0.2102 -0.1583
 5380W        W 7580  13.039   6.657  16.907  0.4383  0.0855 -0.0057
 5381W        W 7581  13.385   5.628   3.375 -0.1478 -0.0408  0.0554
 5382W        W 7582  20.614   6.950   4.392  0.1925 -0.0548 -0.0825
 5383W        W 7583   9.073   3.345   3.726  0.0644  0.0041  0.1536
 5384W        W 7584  11.825   5.428   3.260  0.0631  0.0751 -0.4866
 5385W        W 7585   8.348   7.024   5.323  0.0002 -0.2746 -0.1140
 5386W        W 7586   0.668   0.648   6.822 -0.1069  0.0250  0.2639
 5387W        W 7587  19.720   6.649   1.444  0.0696 -0.0791 -0.0478
 5388W        W 7588   5.765   6.565   4.244  0.1952 -0.0753  0.0878
 5389W        W 7589  25.227   0.793  16.873 -0.1060 -0.2453  0.0595
 5390W        W 7590  20.989   0.113   0.353 -0.0575  0.1995 -0.5137
 5391W        W 7591   3.135   3.177   8.815 -0.0762  0.0169 -0.3399
 5392W        W 7592  23.199   0.648  20.601 -0.2801  0.1607 -0.0243
 5393W        W 7593  11.898   0.422   3.180 -0.0083  0.1788  0.0878
 5394W        W 7594  21.946   5.587  15.828  0.0829 -0.1296  0.1914
 5395W        W 7595  15.176   2.804   7.773  0.0218  0.0913 -0.0429
 5396W        W 7596  23.148   1.193  21.556 -0.2150 -0.0338  0.0710
 5397W        W 7597  22.025   4.332   7.318  0.3182 -0.3208  0.0038
 5398W        W 7598   6.022   6.747   2.812  0.0845  0.4054 -0.0917
 5399W        W 7599  10.252   6.652   2.414 -0.1610 -0.2138 -0.2554
 5400W        W 7600  27.114   4.778   6.479 -0.0105  0.0031 -0.1253
 5401W        W 7601  20.008   6.184  14.615  0.2183 -0.0070  0.0424
 5402W        W 7602  21.513   4.792   7.672 -0.0686 -0.2577  0.1020
 5403W        W 7603   9.862   6.274  19.512  0.1105  0.2506  0.1553
 5404W        W 7604  29.852   7.317  11.461 -0.1198  0.0745  0.1055
 5405W        W 7605   7.052   2.413   0.281 -0.0955 -0.1617 -0.2339
 5406W        W 7606  29.816   3.043  23.019  0.0209  0.2343  0.2255
 5407W        W 7607  30.941   1.466  20.055 -0.0459 -0.2104  0.2170
 5408W        W 7608   4.533   3.875  22.867  0.1742  0.0941 -0.1016
 5409W        W 7609  24.131   1.892  11.314 -0.0266 -0.0374  0.0292
 5410W        W 7610   5.948   0.795   0.321  0.2364  0.0306 -0.0354
 5411W        W 7611  24.582   2.396  10.095  0.1962 -0.1093  0.0466
 5412W        W 7612  16.982   3.873   6.259  0.3380  0.0026  0.3264
 5413W        W 7613   8.996   0.574   2.592 -0.0180  0.0526 -0.1107
 5414W        W 7614   0.382   3.813   6.720  0.1129 -0.1804  0.0314
 5415W        W 7615   7.844   0.271  10.399 -0.2012 -0.0813  0.3826
 5416W        W 7616  14.842   3.762  24.332  0.3349  0.0983 -0.1595
 5417W        W 7617  24.641   4.272  20.573 -0.2131 -0.3157  0.1436
 5418W        W 7618  21.694   0.776   0.331 -0.2693 -0.0993 -0.1587
 5419W        W 7619   6.164   4.323   1.706 -0.2303  0.2503  0.3195
 5420W        W 7620  26.467   0.058  21.604  0.0928 -0.0292 -0.0593
 5421W        W 7621  25.073   2.812  11.113 -0.0972 -0.1724 -0.1893
 5422W        W 7622  29.525   3.674  21.918 -0.1560  0.0419 -0.0221
 5423W        W 7623  13.130   5.351  25.412  0.1087 -0.0546 -0.2206
 5424W        W 7624  17.243   2.947   7.990  0.1328 -0.0641  0.0293
 5425W        W 7625  21.305   3.046   9.174  0.1615 -0.0281  0.0410
 5426W        W 7626  23.996   4.426  22.007  0.2881 -0.0068  0.1256
 5427W        W 7627   8.061   7.083  17.902  0.1996  0.0290 -0.2603
 5428W        W 7628  28.418   7.034   6.440 -0.0334  0.1593 -0.1054
 5429W        W 7629   6.793   5.998   0.504 -0.1544 -0.0128 -0.0464
 5430W        W 7630  29.205   6.315   8.918 -0.2503  0.2585 -0.1088
 5431W        W 7631  21.955   7.089   2.639  0.1139 -0.0383  0.0192
 5432W        W 7632   8.475   2.581   0.686  0.0672 -0.0637  0.1418
 5433W        W 7633  11.360   5.042   9.960  0.0861 -0.1371  0.0455
 5434W        W 7634  26.051   6.781  21.463 -0.1956  0.1098  0.1732
 5435W        W 7635  21.907   3.591   8.924  0.3237  0.0378 -0.1091
 5436W        W 7636  19.167   1.680   7.400  0.0059 -0.0104  0.0235
 5437W        W 7637  12.788   6.488   6.143  0.3002 -0.0450 -0.1121
 5438W        W 7638  29.912   7.728   7.811 -0.1158  0.0750  0.0811
 5439W        W 7639   6.872   6.746  10.439 -0.2507  0.2254 -0.1635
 5440W        W 7640  25.396   5.715  18.252  0.0844 -0.0107 -0.1975
 5441W        W 7641  30.531   3.346   1.840  0.1154  0.2376 -0.0038
 5442W        W 7642  12.322   7.672  22.747 -0.0134 -0.0716 -0.3823
 5443W        W 7643  19.390   3.009  18.436 -0.1283 -0.1731  0.0261
 5444W        W 7644  10.394   6.201  19.526 -0.0868  0.0369 -0.2984
 5445W        W 7645  12.294   4.877   6.873  0.2598 -0.1102 -0.0554
 5446W        W 7646  27.500   7.489   4.569 -0.0695 -0.2452  0.0221
 5447W        W 7647  29.759   0.177  22.494  0.0410  0.1519 -0.3479
 5448W        W 7648   6.073   7.612   9.091 -0.2999 -0.3787  0.0598
 5449W        W 7649   1.592   5.616   3.502  0.1009  0.4199  0.1254
 5450W        W 7650  10.535   4.287  25.327 -0.0271  0.0665  0.0573
 5451W        W 7651  13.422   4.393   9.691 -0.3418 -0.0210  0.0716
 5452W        W 7652   3.067   3.530   1.920 -0.1273  0.0296  0.1025
 5453W        W 7653  20.589   5.078  19.840  0.1707  0.1321  0.1223
 5454W        W 7654  15.155   1.382  15.547 -0.1614  0.1802 -0.1642
 5455W        W 7655  14.001   3.846   7.361  0.0546  0.2504 -0.2322
 5456W        W 7656   9.337   4.645  22.014  0.2258  0.1459 -0.1285
 5457W        W 7657  24.124   0.705  24.644 -0.0345 -0.3009  0.2810
 5458W        W 7658   4.705   6.097   9.195 -0.1539 -0.1652 -0.1704
 5459W        W 7659   7.576   5.651   4.192  0.0157 -0.2134  0.2402
 5460W        W 7660   5.791   0.919   9.016 -0.0802  0.0737  0.1313
 5461W        W 7661  15.835   2.265  17.175 -0.2425  0.0094 -0.0672
 5462W        W 7662  11.417   7.131  10.447 -0.0762  0.1540  0.0911
 5463W        W 7663   3.863   2.507  26.110 -0.0649  0.1505 -0.2755
 5464W        W 7664  28.991   1.295  26.059 -0.0473  0.1738 -0.0585
 5465W        W 7665  13.897   0.378   5.062 -0.1593 -0.0249  0.0263
 5466W        W 7666   3.300   5.747  17.835 -0.1400 -0.0198  0.3408
 5467W        W 7667  16.375   3.108  19.215  0.0751  0.1780  0.2439
 5468W        W 7668  27.840   6.180  18.670  0.2742 -0.1136 -0.2083
 5469W        W 7669   9.013   1.772   5.559 -0.2727 -0.1788 -0.0081
 5470W        W 7670   6.077   5.022   9.903  0.2474 -0.1984 -0.1771
 5471W        W 7671  18.902   2.916  10.431 -0.0463 -0.2772  0.0675
 5472W        W 7672   7.585   4.662  19.603 -0.2329  0.1782  0.0367
 5473W        W 7673  30.401   2.233   9.230 -0.0944 -0.1599  0.0126
 5474W        W 7674   0.482   0.715  24.653 -0.2964  0.0563  0.4210
 5475W        W 7675  20.089   4.699  14.567  0.1485  0.1782 -0.0294
 5476W        W 7676   3.327   0.518  17.561 -0.0840 -0.2051 -0.1126
 5477W        W 7677   9.839   2.594   2.249  0.1386  0.1807 -0.3192
 5478W        W 7678  14.401   5.105   2.282  0.1869  0.3271  0.5160
 5479W        W 7679  31.023   6.032   6.422 -0.0435 -0.1479 -0.3275
 5480W        W 7680   3.563   4.991  10.148 -0.2345 -0.0829 -0.1241
 5481W        W 7681  29.803   2.652  18.552  0.0770 -0.1420  0.2651
 5482W        W 7682  28.704   3.676   0.068  0.4211 -0.1058  0.1981
 5483W        W 7683  12.148   5.165  10.671 -0.2820 -0.0564  0.1094
 5484W        W 7684  11.456   2.455  18.084  0.1074 -0.0054 -0.2258
 5485W        W 7685  24.206   0.815  16.650  0.0466 -0.1482 -0.0591
 5486W        W 7686   3.424   6.174   2.206  0.2240 -0.2755  0.0370
 5487W        W 7687  20.471   7.759   6.529 -0.0701  0.2166  0.0216
 5488W        W 7688  17.506   4.691  22.023  0.0105 -0.2988  0.1257
 5489W        W 7689  26.867   3.415  18.439 -0.1272  0.0888 -0.4125
 5490W        W 7690  27.727   1.830   3.035 -0.0681 -0.3207  0.1971
 5491W        W 7691  28.729   3.716  20.670  0.1806  0.2032 -0.2174
 5492W        W 7692  10.511   7.160  18.676  0.2664  0.2671 -0.0831
 5493W        W 7693   0.647   4.061  10.975 -0.0229 -0.0963  0.0122
 5494W        W 7694   1.361   7.068   7.505  0.1538  0.2314  0.0134
 5495W        W 7695  10.115   0.850  18.912  0.1480  0.0267  0.0563
 5496W        W 7696  10.729   6.421  20.798 -0.1201 -0.2590  0.3461
 5497W        W 7697  16.897   7.231   5.412  0.0867 -0.0493 -0.0771
 5498W        W 7698  22.546   5.937  23.842 -0.2632  0.2616  0.0842
 5499W        W 7699  28.920   6.864  16.876 -0.0101  0.1180 -0.1374
 5500W        W 7700  15.579   3.579   6.728  0.2867  0.3707  0.0047
 5501W        W 7701  17.734   5.828   8.653  0.2593 -0.0017  0.0949
 5502W        W 7702  15.250   5.675   9.512  0.2307  0.3068  0.0380
 5503W        W 7703  11.074   0.032  24.145  0.0652 -0.3918 -0.2166
 5504W        W 7704  22.173   2.588   9.929 -0.0948  0.2525  0.0627
 5505W        W 7705  15.912   0.622   0.844 -0.0121  0.1692  0.1011
 5506W        W 7706  18.492   6.110  25.420 -0.1555 -0.1331  0.2037
 5507W        W 7707  21.005   6.207  15.045  0.2303  0.0207  0.0709
 5508W        W 7708   6.297   1.267  17.077 -0.1527  0.3285  0.2351
 5509W        W 7709   4.999   4.730  24.780  0.3010 -0.4514  0.0047
 5510W        W 7710   0.344   5.398   1.685 -0.0334 -0.1510 -0.1703
 5511W        W 7711  17.532   3.451  21.831  0.0732 -0.3291  0.0654
 5512W        W 7712   6.210   6.878   2.339 -0.0290 -0.0164 -0.1223
 5513W        W 7713  13.536   1.577  24.262  0.1432 -0.1643  0.1798
 5514W        W 7714   9.695   6.798  10.709 -0.4016 -0.5504 -0.1138
 5515W        W 7715   4.053   3.185  17.312 -0.0317  0.1135 -0.0147
 5516W        W 7716  25.378   0.855   3.142  0.1192 -0.1076  0.1724
 5517W        W 7717   4.185   7.088   4.555 -0.1239 -0.1218  0.0442
 5518W        W 7718  20.307   5.333  24.582 -0.4165  0.0998 -0.3271
 5519W        W 7719  28.913   1.163  21.599 -0.0272  0.3574 -0.1364
 5520W        W 7720  17.630   0.286   7.919 -0.0940 -0.0843  0.0683
 5521W        W 7721  13.427   3.398  20.531 -0.0295  0.1831  0.4081
 5522W        W 7722  29.898   6.939   6.006  0.0270  0.2164 -0.0450
 5523W        W 7723   8.383   6.228   7.615  0.1057  0.1455 -0.0059
 5524W        W 7724   9.292   7.723   9.719  0.1407  0.0254 -0.2689
 5525W        W 7725  22.224   5.179  18.472 -0.0877  0.0443  0.2111
 5526W        W 7726  20.167   3.743  16.960 -0.2474  0.2167  0.0877
 5527W        W 7727  23.274   3.920   9.238 -0.0488  0.1919  0.0296
 5528W        W 7728  16.511   3.391   0.087 -0.0124  0.0397 -0.1083
 5529W        W 7729   5.806   6.766   9.475 -0.2187  0.0819 -0.0861
 5530W        W 7730   3.386   0.283  19.428  0.0020 -0.1446  0.2851
 5531W        W 7731   7.549   0.778  16.416  0.1675 -0.1282  0.0127
 5532W        W 7732   6.709   2.106   5.562  0.0820  0.1736 -0.1917
 5533W        W 7733   1.640   7.022  16.762 -0.0735  0.2244 -0.3289
 5534W        W 7734  12.127   3.629  21.586 -0.1074  0.4957 -0.0441
 5535W        W 7735  11.431   4.706   4.435 -0.1483 -0.2032 -0.2391
 5536W        W 7736  25.856   3.579   7.245 -0.0341  0.0966 -0.0408
 5537W        W 7737  26.671   6.276  15.211 -0.0608  0.4515 -0.1049
 5538W        W 7738   9.622   5.245  19.091 -0.0232  0.0439  0.1561
 5539W        W 7739   0.666   2.796   5.161  0.0360 -0.0177  0.0031
 5540W        W 7740  27.744   6.549   4.819 -0.1275  0.0988  0.1705
 5541W        W 7741  29.008   6.782   0.958 -0.0089 -0.1370  0.0729
 5542W        W 7742  15.000   4.745   8.366 -0.0384  0.0704  0.0227
 5543W        W 7743   4.467   1.164   3.218  0.0296 -0.0840  0.1347
 5544W        W 7744  30.010   6.524  25.279  0.0525 -0.3632 -0.0105
 5545W        W 7745  20.680   6.967  15.362 -0.0299 -0.0223 -0.1856
 5546W        W 7746  25.373   4.413   8.253  0.1719 -0.3058  0.0604
 5547W        W 7747  24.038   3.203  24.214 -0.1447  0.1955  0.0749
 5548W        W 7748  19.463   4.463  22.533  0.0593  0.0519  0.0592
 5549W        W 7749  26.220   0.965  21.647  0.0709 -0.1353  0.0034
 5550W        W 7750  25.227   5.590  25.165 -0.2003 -0.0922  0.1838
 5551W        W 7751   6.753   4.921  25.615  0.1021  0.1309  0.0071
 5552W        W 7752  19.004   0.229   3.045  0.0602 -0.0601  0.1603
 5553W        W 7753  21.906   6.082   2.674 -0.1785 -0.3919 -0.0625
 5554W        W 7754  18.457   4.989   5.307  0.0767 -0.0125  0.1075
 5555W        W 7755  22.115   5.115   4.320 -0.0576 -0.0690  0.1471
 5556W        W 7756  15.715   5.110  17.739  0.1126 -0.0969  0.0710
 5557W        W 7757   7.197   5.559  20.871  0.2142 -0.2369  0.1450
 5558W        W 7758  27.645   7.438  18.123  0.1740 -0.0138  0.0957
 5559W        W 7759  15.358   7.577  24.405 -0.0867 -0.1233 -0.0591
 5560W        W 7760  26.846   3.459  17.218  0.2817 -0.2145  0.0981
 5561W        W 7761  21.215   3.226   4.268  0.1214 -0.0793  0.1180
 5562W        W 7762  17.313   2.410  20.050  0.2857 -0.0656 -0.1079
 5563W        W 7763  14.142   3.506  18.963 -0.5197 -0.0052 -0.0522
 5564W        W 7764  26.226   4.886   5.393  0.0628  0.0075  0.0269
 5565W        W 7765   4.921   0.162  18.420  0.0853 -0.2537  0.3171
 5566W        W 7766  12.166   1.378  19.888 -0.3385 -0.0397  0.0813
 5567W        W 7767  12.036   5.482   5.975 -0.1508 -0.0304 -0.4052
 5568W        W 7768   0.050   4.560  18.044  0.1178  0.0964 -0.3419
 5569W        W 7769  23.259   5.866   2.644 -0.2393  0.1858 -0.3019
 5570W        W 7770  12.270   4.444  15.912  0.1491 -0.2091  0.0555
 5571W        W 7771  15.915   0.647   6.562  0.1975  0.2658  0.0919
 5572W        W 7772   2.273   2.065  19.503 -0.0270 -0.1606 -0.2400
 5573W        W 7773   7.464   6.793  25.619 -0.1798 -0.0265  0.2200
 5574W        W 7774   0.528   2.183  20.288  0.1045 -0.0645 -0.0195
 5575W        W 7775  16.400   2.921   5.675  0.1447 -0.0768  0.1402
 5576W        W 7776  27.385   2.717  17.813  0.1185 -0.2234 -0.0115
 5577W        W 7777   8.192   2.981   0.951  0.0105  0.0574 -0.2438
 5578W        W 7778   0.262   4.368  12.093  0.0138 -0.2471 -0.1024
 5579W        W 7779  25.832   7.744   3.246  0.1342 -0.1967  0.1244
 5580W        W 7780  26.418   1.412   4.420 -0.0201 -0.3763 -0.1861
 5581W        W 7781  22.348   2.384  16.151 -0.1851  0.0908  0.1467
 5582W        W 7782  13.657   3.677  24.792  0.0661  0.2634  0.0770
 5583W        W 7783  18.584   3.101  20.479 -0.1813  0.2147  0.2230
 5584W        W 7784  30.215   2.532   1.727  0.0649 -0.0693  0.1852
 5585W        W 7785  27.159   0.775  22.861 -0.0715 -0.2356  0.0122
 5586W        W 7786  14.804   7.264  22.898  0.1702 -0.1140  0.3259
 5587W        W 7787  13.427   0.494   7.987  0.0082  0.3342 -0.3662
 5588W        W 7788   3.663   6.209  23.301 -0.4524 -0.0254 -0.2353
 5589W        W 7789  19.404   2.692   4.018 -0.2448  0.0095 -0.0076
 5590W        W 7790  22.990   1.950   9.766 -0.1946 -0.2262  0.0439
 5591W        W 7791  26.534   2.601   2.053 -0.1985 -0.1650  0.2695
 5592W        W 7792  13.578   2.665   3.914  0.5602 -0.1943 -0.4885
 5593W        W 7793   2.952   6.926   5.487  0.3553 -0.0532 -0.0502
 5594W        W 7794  16.622   7.317   4.230  0.1051 -0.0844 -0.0711
 5595W        W 7795  26.958   3.119  15.963 -0.0653  0.0210  0.1103
 5596W        W 7796  15.142   1.983   9.959 -0.0484 -0.0684 -0.0769
 5597W        W 7797  24.139   6.528   1.900  0.1662 -0.0138  0.0215
 5598W        W 7798  24.762   4.146   1.247  0.1071  0.0237  0.1784
 5599W        W 7799   7.643   6.173  10.251 -0.2619 -0.0888 -0.1202
 5600W        W 7800   2.319   7.363  20.252  0.1231  0.1222  0.0601
 5601W        W 7801   1.313   5.895   9.221 -0.2671  0.1143  0.1452
 5602W        W 7802   1.366   2.066  17.898  0.1013 -0.2077  0.2161
 5603W        W 7803   4.301   7.211   2.292 -0.1787  0.1960  0.1090
 5604W        W 7804  14.281   1.177  20.269  0.0799 -0.0501 -0.1955
 5605W        W 7805  26.290   4.489  23.083  0.2876  0.1786 -0.3720
 5606W        W 7806  15.230   3.722  15.889 -0.2097 -0.1837  0.1897
 5607W        W 7807   7.003   5.484  20.376 -0.0318  0.0260  0.2561
 5608W        W 7808   7.075   1.035  16.840 -0.0950  0.1662 -0.0083
 5609W        W 7809  14.866   5.231  24.788  0.1375 -0.2609 -0.0981
 5610W        W 7810  22.790   4.352   8.584 -0.1087 -0.2876 -0.0363
 5611W        W 7811  28.147   6.797   8.361 -0.0376 -0.0057  0.1037
 5612W        W 7812  19.115   7.672  23.144  0.0330  0.3898  0.0175
 5613W        W 7813   5.690   1.610  23.111  0.0456  0.1186 -0.1281
 5614W        W 7814   4.096   5.195  21.129 -0.1638  0.3767 -0.1814
 5615W        W 7815   9.575   1.707  23.610  0.0092 -0.0378  0.0194
 5616W        W 7816  26.631   3.955   1.930  0.2846 -0.1274 -0.0500
 5617W        W 7817  17.766   2.406   9.394  0.1016  0.2731  0.2856
 5618W        W 7818   5.727   2.767  16.847  0.1572 -0.3050 -0.0540
 5619W        W 7819  21.657   4.424   6.128 -0.3116  0.1683 -0.0797
 5620W        W 7820   9.954   5.377  22.735 -0.3912  0.2114  0.1707
 5621W        W 7821   6.092   4.263  23.877 -0.2927  0.0682 -0.0546
 5622W        W 7822  18.892   5.524  16.007 -0.0141 -0.0496 -0.0660
 5623W        W 7823   4.470   0.703  21.893  0.1848 -0.0539 -0.0148
 5624W        W 7824   8.346   0.717   0.575  0.0316  0.2408  0.2825
 5625W        W 7825   9.861   5.956  17.867  0.1341 -0.0019  0.0531
 5626W        W 7826  31.296   1.136   4.713 -0.1101 -0.0009 -0.1264
 5627W        W 7827  31.209   4.270  20.578 -0.3538  0.0433 -0.1156
 5628W        W 7828  11.326   5.575  10.727  0.0162 -0.0802  0.0187
 5629W        W 7829   6.366   1.552   9.444 -0.1381 -0.0028 -0.0481
 5630W        W 7830  17.938   7.607  25.194 -0.2283  0.0660  0.0436
 5631W        W 7831  29.582   0.094  16.020 -0.4254 -0.1726  0.2291
 5632W        W 7832   8.903   2.934  16.252  0.2336  0.2400 -0.0435
 5633W        W 7833  10.642   4.481   2.968  0.0710 -0.0573  0.1803
 5634W        W 7834   8.971   6.250   8.902  0.2172 -0.2880 -0.0417
 5635W        W 7835  17.497   7.391  19.197  0.2711  0.2008 -0.3921
 5636W        W 7836   8.401   3.876  14.938 -0.0001  0.1934  0.1679
 5637W        W 7837  17.968   0.600   8.158  0.1212 -0.0096 -0.3192
 5638W        W 7838  29.304   4.213  16.334 -0.1612 -0.0830  0.3124
 5639W        W 7839  31.036   3.692  11.195  0.0571  0.0551  0.0594
 5640W        W 7840  13.003   4.693  15.862 -0.0201  0.1047  0.1502
 5641W        W 7841  28.524   3.544  24.500 -0.1981  0.0113  0.0357
 5642W        W 7842  23.828   6.679  22.420  0.0161  0.2974 -0.2139
 5643W        W 7843   2.295   2.909  17.704  0.1019 -0.0288  0.0464
 5644W        W 7844   0.366   3.771  17.973  0.0063  0.0739  0.1749
 5645W        W 7845  29.430   3.288   0.363  0.1197  0.2688  0.0105
 5646W        W 7846  15.215   1.278   4.498  0.1339 -0.0623 -0.1804
 5647W        W 7847   3.756   0.623  10.649  0.3787  0.4578  0.0327
 5648W        W 7848  24.827   6.688  24.762  0.1963 -0.2012  0.1260
 5649W        W 7849  17.203   6.111  22.677  0.1588 -0.1644 -0.0719
 5650W        W 7850  17.039   7.547  23.334 -0.1306 -0.1303 -0.0466
 5651W        W 7851  30.718   2.255  19.506 -0.2486 -0.1255 -0.1731
 5652W        W 7852  25.372   0.047   1.341  0.2515 -0.1930 -0.3446
 5653W        W 7853  12.998   4.924  18.224  0.0720  0.0773 -0.0456
 5654W        W 7854  31.168   0.671   6.822 -0.0945  0.1073 -0.1214
 5655W        W 7855   0.559   1.878  16.094 -0.0961 -0.1798 -0.1315
 5656W        W 7856  29.466   0.244   2.815  0.0057  0.0732  0.1631
 5657W        W 7857  30.989   2.191   4.565  0.1974  0.0084 -0.0397
 5658W        W 7858  12.071   3.169  19.910 -0.1354 -0.0954  0.2309
 5659W        W 7859   6.412   7.751  21.672 -0.1397 -0.2872 -0.0930
 5660W        W 7860   0.644   0.123  10.461  0.0981 -0.1189  0.1568
 5661W        W 7861  14.447   6.379  21.725 -0.1914  0.0442  0.0300
 5662W        W 7862  14.264   0.242   7.271 -0.3729 -0.0108  0.0793
 5663W        W 7863  26.350   7.195   3.780  0.1736 -0.2703 -0.1214
 5664W        W 7864  10.203   7.217  10.289 -0.0260  0.0150  0.1519
 5665W        W 7865  21.231   6.550  25.850  0.1565  0.1114 -0.0546
 5666W        W 7866  16.022   3.709  20.505  0.4613 -0.1100 -0.0756
 5667W        W 7867  19.820   2.093  17.889 -0.1450 -0.0259  0.2908
 5668W        W 7868   1.784   5.063   3.221  0.0362  0.0570  0.2167
 5669W        W 7869  15.619   4.966   3.194  0.0817  0.3333  0.0955
 5670W        W 7870  19.931   1.792  26.184  0.1949  0.0141 -0.0878
 5671W        W 7871   3.246   5.010   6.724 -0.0594 -0.0327 -0.0072
 5672W        W 7872  16.439   0.286  26.187  0.2806  0.0180 -0.1257
 5673W        W 7873   0.330   5.862  21.054 -0.0674 -0.1180  0.0671
 5674W        W 7874   7.447   4.151   7.193  0.2610  0.1437 -0.3732
 5675W        W 7875   2.467   7.756   9.971  0.4218  0.0101 -0.1429
 5676W        W 7876   4.147   7.575   6.609  0.0172 -0.1761  0.1377
 5677W        W 7877  27.584   0.477   4.744 -0.1154 -0.0585 -0.1032
 5678W        W 7878   6.293   3.124  17.841  0.2347  0.3335 -0.0265
 5679W        W 7879  23.553   4.380   4.006 -0.4899 -0.2019 -0.0784
 5680W        W 7880  18.940   6.714  25.076  0.0505 -0.0252  0.1028
 5681W        W 7881  12.326   6.620  19.082  0.1970 -0.2393  0.1086
 5682W        W 7882  27.135   5.853   5.256 -0.0762  0.0251  0.2139
 5683W        W 7883  26.018   3.722   1.971 -0.1417 -0.1754 -0.1108
 5684W        W 7884  23.197   6.405   8.195 -0.1428  0.1492  0.0456
 5685W        W 7885  28.059   5.974  21.977 -0.1650 -0.2306  0.2297
 5686W        W 7886  22.665   1.329  10.619  0.4969  0.2575  0.2113
 5687W        W 7887   3.265   3.122  19.695 -0.1991  0.2171  0.3033
 5688W        W 7888  30.741   1.741  16.706 -0.0011  0.0498  0.2844
 5689W        W 7889  25.193   3.895   2.862 -0.0353 -0.0784 -0.1361
 5690W        W 7890   3.028   3.232  17.239 -0.2039  0.1954  0.3485
 5691W        W 7891  26.294   2.570   0.859  0.2542  0.0515  0.0394
 5692W        W 7892  31.171   1.473  11.297 -0.1037 -0.0851 -0.0832
 5693W        W 7893   7.187   1.595   3.693 -0.1696 -0.0192  0.1143
 5694W        W 7894  29.171   4.576  20.442 -0.3254  0.1690 -0.2004
 5695W        W 7895  14.965   3.943  19.985  0.2756  0.0455 -0.1026
 5696W        W 7896   3.817   6.141  24.991 -0.0639  0.4335  0.0595
 5697W        W 7897   8.969   0.289   8.952  0.1842  0.0518 -0.0700
 5698W        W 7898  14.517   1.563   2.292  0.1944 -0.1837 -0.1378
 5699W        W 7899  10.892   1.883  24.903  0.1912  0.4384 -0.1887
 5700W        W 7900  22.208   6.854   8.595 -0.2062  0.1447  0.2001
 5701W        W 7901  29.998   2.686   2.696  0.0102  0.2105  0.3971
 5702W        W 7902   1.850   3.829  10.563 -0.0586  0.0609 -0.0199
 5703W        W 7903   9.494   0.349   9.123 -0.1866  0.1846 -0.2205
 5704W        W 7904   6.502   0.279  24.509  0.0874  0.1336  0.1104
 5705W        W 7905   5.203   1.657  25.787  0.0380 -0.2991  0.0483
 5706W        W 7906  11.933   4.541  25.074 -0.0707  0.1498 -0.1045
 5707W        W 7907  19.452   0.987   9.077  0.1942  0.0301  0.0862
 5708W        W 7908   8.072   2.575  22.651  0.1713  0.2131  0.0367
 5709W        W 7909  26.962   3.465   5.993 -0.1255  0.4074 -0.2047
 5710W        W 7910  21.129   5.660  10.551 -0.3687 -0.0413 -0.2401
 5711W        W 7911  20.627   0.982   0.186  0.0143 -0.0983 -0.2661
 5712W        W 7912  17.914   4.315   3.864 -0.2647 -0.2916 -0.0151
 5713W        W 7913  17.510   0.530   3.813 -0.0532  0.1980 -0.2162
 5714W        W 7914  20.949   7.056   8.983  0.1265 -0.0515 -0.0271
 5715W        W 7915  11.491   0.820  23.938 -0.1558 -0.1181  0.0202
 5716W        W 7916  21.406   1.470  10.284 -0.3207 -0.0645  0.3977
 5717W        W 7917  30.445   7.555  25.253 -0.0854  0.2975 -0.1318
 5718W        W 7918  27.726   5.885   2.406  0.0296  0.1179 -0.2493
 5719W        W 7919   3.167   7.424  22.248  0.0139  0.2040 -0.3748
 5720W        W 7920   7.935   2.173  19.517  0.0807  0.1637  0.1234
 5721W        W 7921  10.272   7.144  16.475  0.0480 -0.1623 -0.0871
 5722W        W 7922   1.170   5.640  23.271 -0.0407 -0.0552 -0.1789
 5723W        W 7923   4.953   1.479   3.249 -0.0666  0.1003  0.0511
 5724W        W 7924  20.097   6.372  23.888  0.0156 -0.1283  0.2174
 5725W        W 7925   6.976   6.816  17.149 -0.0160 -0.1313  0.0163
 5726W        W 7926   9.652   1.756  19.250 -0.3133 -0.0172  0.0263
 5727W        W 7927  15.406   0.977  15.823 -0.3240 -0.0303 -0.0777
 5728W        W 7928  22.756   7.420   2.264  0.2041  0.2339  0.0747
 5729W        W 7929  27.748   0.255  15.927 -0.2622 -0.2248  0.0226
 5730W        W 7930   2.886   4.065  17.705 -0.1259  0.3389  0.1392
 5731W        W 7931  16.738   2.968   0.880  0.1345 -0.1127  0.0489
 5732W        W 7932  22.022   0.992  16.565 -0.2719 -0.1687  0.1482
 5733W        W 7933  21.535   5.894   4.048 -0.2825 -0.1335  0.2006
 5734W        W 7934   7.615   2.188   6.673  0.1422 -0.0956 -0.0057
 5735W        W 7935  10.952   3.508   3.927  0.2204  0.0576  0.0275
 5736W        W 7936   5.779   1.903  16.510 -0.0489  0.0153  0.1754
 5737W        W 7937   3.305   0.901   3.842  0.1923 -0.3367  0.3078
 5738W        W 7938   2.908   3.415  23.341 -0.3142  0.1863  0.0760
 5739W        W 7939  16.122   0.068   7.092 -0.1885 -0.0751 -0.0123
 5740W        W 7940  15.144   0.232  19.902  0.0644  0.2330  0.0281
 5741W        W 7941   1.395   0.119   9.142 -0.0361 -0.0075  0.0295
 5742W        W 7942  22.097   6.699  24.930 -0.0967 -0.5131  0.1921
 5743W        W 7943  14.355   1.055  11.171  0.0961  0.3203 -0.0326
 5744W        W 7944  22.064   2.591  22.195  0.0947  0.0217 -0.0910
 5745W        W 7945   8.626   1.581   5.318 -0.1760 -0.1487  0.0753
 5746W        W 7946   3.315   0.558  22.642  0.1026  0.2418 -0.0361
 5747W        W 7947   5.476   5.648  10.766 -0.0361  0.1911 -0.0021
 5748W        W 7948   4.205   5.093   7.387 -0.0292  0.1073 -0.1275
 5749W        W 7949  19.806   3.557  22.948 -0.1332  0.1128  0.1779
 5750W        W 7950  29.127   4.656   5.394 -0.2615 -0.0129  0.1463
 5751W        W 7951  28.617   5.248  20.751 -0.0947 -0.1331 -0.0833
 5752W        W 7952   9.250   4.052   5.453 -0.0680  0.1239 -0.1317
 5753W        W 7953   6.161   2.890  25.687  0.0541  0.0945  0.0612
 5754W        W 7954   5.614   5.682  22.386  0.1891 -0.1074 -0.1831
 5755W        W 7955  20.440   2.630  17.772  0.1016  0.2754 -0.0247
 5756W        W 7956   8.777   1.067  19.319 -0.1666 -0.1527 -0.0067
 5757W        W 7957  11.730   7.302  15.971 -0.0813 -0.1064 -0.0608
 5758W        W 7958  16.241   3.734  15.682 -0.4014 -0.0485 -0.2119
 5759W        W 7959   9.530   2.371  10.895  0.0843 -0.0451 -0.2746
 5760W        W 7960  22.463   2.982   9.990 -0.0756 -0.0083  0.2122
 5761W        W 7961  30.554   6.272   6.149 -0.0273 -0.0162 -0.1213
 5762W        W 7962  27.309   6.388   6.784 -0.2044  0.3435  0.0392
 5763W        W 7963  14.290   2.164  19.074 -0.0042 -0.0204 -0.0171
 5764W        W 7964  23.095   6.030  23.265 -0.0507  0.1391  0.3400
 5765W        W 7965  25.579   5.909   0.230 -0.1149  0.2943 -0.1023
 5766W        W 7966  25.431   2.474  19.047 -0.3058  0.0207  0.0451
 5767W        W 7967  17.193   7.247  18.756 -0.0073 -0.1507 -0.0556
 5768W        W 7968  12.278   2.371   1.532 -0.1491  0.0945  0.2563
 5769W        W 7969   1.646   5.073  17.519 -0.2348 -0.1529 -0.0432
 5770W        W 7970   0.045   2.420   8.928 -0.0842  0.1069 -0.1436
 5771W        W 7971   0.929   3.392   1.023 -0.2781  0.0725  0.0702
 5772W        W 7972  25.195   6.012   9.632  0.0329  0.0885 -0.1471
 5773W        W 7973  22.811   1.096  15.694 -0.0227  0.2205 -0.2361
 5774W        W 7974   6.459   3.233  19.257  0.1344 -0.0437 -0.5002
 5775W        W 7975   6.996   6.373   9.479 -0.2674 -0.0134 -0.0462
 5776W        W 7976  27.007   3.747  20.793 -0.2339  0.2005  0.0240
 5777W        W 7977  12.893   1.651   7.443  0.0112  0.3795 -0.0692
 5778W        W 7978   1.706   1.916  24.028 -0.3347 -0.0192  0.1266
 5779W        W 7979   5.702   0.300  18.881  0.2126 -0.1075  0.1611
 5780W        W 7980  13.397   1.636   5.627 -0.0085 -0.3672  0.2217
 5781W        W 7981  20.467   3.986  26.032 -0.0495  0.0879 -0.0735
 5782W        W 7982  30.230   0.476  19.985  0.1143 -0.0285  0.0517
 5783W        W 7983  25.507   1.541   6.406  0.0685  0.1311 -0.0946
 5784W        W 7984  15.291   1.499   2.615  0.0615  0.2951 -0.4061
 5785W        W 7985  17.823   0.918  21.842 -0.0202  0.0560 -0.3580
 5786W        W 7986  15.339   2.039   9.064  0.0917 -0.1068 -0.2965
 5787W        W 7987  29.161   1.115  15.347 -0.1604  0.1971  0.1751
 5788W        W 7988  19.772   0.789  23.027  0.1170  0.2650  0.2225
 5789W        W 7989   3.214   4.820  18.327  0.0792 -0.5800 -0.2723
 5790W        W 7990  22.081   2.360   4.590 -0.0376 -0.0230  0.0412
 5791W        W 7991  16.768   5.902  17.731 -0.1276  0.2086 -0.0673
 5792W        W 7992  25.376   1.926  10.858 -0.0296 -0.1805 -0.1783
 5793W        W 7993   7.169   0.636   6.053  0.2467  0.2139 -0.0481
 5794W        W 7994   1.888   3.788  25.065  0.0433 -0.0306 -0.2306
 5795W        W 7995  27.370   0.536   7.862  0.0669 -0.1490 -0.0128
 5796W        W 7996  25.499   6.612   4.330 -0.1201  0.1836 -0.1625
 5797W        W 7997  20.442   3.121   5.850 -0.0274  0.2015 -0.0658
 5798W        W 7998   3.113   1.849  18.328 -0.1210 -0.0648 -0.2430
 5799W        W 7999   5.989   0.460   9.959  0.1536  0.2483  0.1081
 5800W        W 8000   8.624   2.103  22.659 -0.1295 -0.1045 -0.3141
 5801W        W 8001  27.685   7.294   9.273 -0.1077 -0.1722  0.4213
 5802W        W 8002  12.790   6.065   1.319 -0.1247 -0.3355 -0.2717
 5803W        W 8003  19.038   0.703   0.104 -0.2757  0.0147 -0.3904
 5804W        W 8004  23.511   0.653   7.838  0.1330 -0.2228  0.0660
 5805W        W 8005  27.640   0.484  22.218  0.2534  0.2138  0.0760
 5806W        W 8006  12.811   3.615   7.276 -0.1007 -0.0485  0.1351
 5807W        W 8007  17.317   0.348  19.053  0.3547  0.1339 -0.1304
 5808W        W 8008   5.161   6.625   8.705  0.0548 -0.1579  0.1535
 5809W        W 8009  16.790   4.113  15.019  0.1211 -0.0252 -0.1490
 5810W        W 8010  19.527   1.201  23.459 -0.2454  0.0556  0.0356
 5811W        W 8011   3.054   2.792  25.948 -0.0841 -0.2618  0.1320
 5812W        W 8012  23.054   5.051   4.449 -0.1426  0.2924  0.0581
 5813W        W 8013  16.550   1.111  16.641  0.1235 -0.1127  0.0464
 5814W        W 8014  27.029   2.732   1.078  0.1525 -0.0599  0.1067
 5815W        W 8015   6.663   0.867  20.604  0.2074 -0.0483 -0.1894
 5816W        W 8016  22.273   1.803  18.824  0.0417 -0.2818  0.2722
 5817W        W 8017   6.872   6.193  10.904  0.0299 -0.4117 -0.1053
 5818W        W 8018  21.907   0.542  20.853 -0.1269 -0.0758 -0.0400
 5819W        W 8019   4.674   0.226   3.066  0.0186 -0.2061  0.0662
 5820W        W 8020  30.621   2.801   1.846  0.0486 -0.1469  0.2629
 5821W        W 8021   6.503   0.790   4.785 -0.3103 -0.3217 -0.0450
 5822W        W 8022   5.822   3.366  23.089 -0.0083 -0.1837  0.2490
 5823W        W 8023  26.059   6.461   4.515  0.0846 -0.2223  0.3597
 5824W        W 8024   5.175   1.771  17.380 -0.1283 -0.0244 -0.3345
 5825W        W 8025  28.082   3.159   0.237  0.0857 -0.0788  0.2485
 5826W        W 8026  15.380   3.379   1.209 -0.0187 -0.0246 -0.2108
 5827W        W 8027  22.951   5.206   0.286 -0.1520  0.1900  0.1135
 5828W        W 8028   4.158   6.304   6.646 -0.0241  0.0899  0.0906
 5829W        W 8029   8.989   6.434  14.862  0.1033  0.1602 -0.0879
 5830W        W 8030  24.695   3.724   4.347 -0.1188  0.1619 -0.1498
 5831W        W 8031  20.285   2.550   5.030 -0.0603  0.1523 -0.1105
 5832W        W 8032   4.751   5.151   0.057 -0.1368  0.0293 -0.2853
 5833W        W 8033  24.342   6.348  23.067 -0.1449 -0.0781 -0.0314
 5834W        W 8034  24.363   0.831   9.167  0.2044  0.2033  0.0566
 5835W        W 8035  25.684   6.664  21.067 -0.1471 -0.2775  0.0800
 5836W        W 8036  11.597   1.527  17.917 -0.1459  0.3420  0.1221
 5837W        W 8037  18.895   2.292   8.594 -0.0037 -0.0323 -0.0837
 5838W        W 8038  20.234   2.607  23.403 -0.0654 -0.2496 -0.0001
 5839W        W 8039  19.464   3.482  18.110 -0.1834  0.1513 -0.1708
 5840W        W 8040  25.801   1.790   9.462  0.1338 -0.0819 -0.1533
 5841W        W 8041   9.520   7.650   9.256 -0.3102 -0.0427  0.0693
 5842W        W 8042  25.473   2.709   8.679 -0.2754 -0.1232 -0.0583
 5843W        W 8043  30.079   3.254   2.574  0.0332 -0.1601  0.0435
 5844W        W 8044   3.590   3.591   1.657 -0.0990 -0.0688 -0.0246
 5845W        W 8045   0.350   5.590   1.191  0.1459 -0.1507 -0.1845
 5846W        W 8046  24.731   3.808   0.103  0.0123 -0.0050 -0.2327
 5847W        W 8047   5.690   1.844  22.671 -0.1643 -0.1933 -0.2780
 5848W        W 8048   4.396   0.151   0.829 -0.0226 -0.3515 -0.0536
 5849W        W 8049   3.301   7.294   0.728 -0.0061  0.0423 -0.1744
 5850W        W 8050   2.801   4.188  22.457 -0.1646 -0.0588  0.2004
 5851W        W 8051  16.449   5.866   7.087  0.0814 -0.0814 -0.2807
 5852W        W 8052  26.151   5.943   3.674  0.2472 -0.0978 -0.2437
 5853W        W 8053   8.065   6.058  16.965  0.0451 -0.2720 -0.1081
 5854W        W 8054  29.229   1.652  22.855  0.1407 -0.3794 -0.0246
 5855W        W 8055  28.446   6.746   4.082 -0.1672  0.1053  0.3101
 5856W        W 8056  17.790   3.045   4.779 -0.0755  0.1235 -0.2234
 5857W        W 8057   5.006   0.994   9.167 -0.1681  0.1662 -0.2308
 5858W        W 8058   6.281   7.171   1.783  0.0939 -0.4075 -0.1056
 5859W        W 8059  15.359   2.142  17.244 -0.1954 -0.1029 -0.5776
 5860W        W 8060  25.574   1.737   5.956  0.2290  0.1456  0.2414
 5861W        W 8061  10.960   2.184  15.426  0.1296 -0.1813 -0.1237
 5862W        W 8062  19.966   0.110  18.533  0.4088 -0.0435 -0.1320
 5863W        W 8063  29.531   1.262   4.086 -0.0841  0.2192  0.2522
 5864W        W 8064  15.044   3.170   6.384  0.3208  0.2800  0.2491
 5865W        W 8065  29.666   4.374  10.736 -0.1078  0.3484  0.1259
 5866W        W 8066  15.208   3.934  22.341  0.0694 -0.1817 -0.3743
 5867W        W 8067  12.657   7.389  17.439 -0.1635  0.2744 -0.3830
 5868W        W 8068  14.006   5.503   2.114  0.0511 -0.2595 -0.2013
 5869W        W 8069  30.320   3.885   0.235  0.0138 -0.0733  0.3809
 5870W        W 8070  20.306   5.223   0.237  0.1355  0.1671 -0.0729
 5871W        W 8071  15.121   1.922  19.641  0.0333 -0.1259 -0.2218
 5872W        W 8072  20.789   5.611   3.858  0.5336 -0.2140  0.2755
 5873W        W 8073   2.925   1.634  17.657  0.2455 -0.2870  0.0848
 5874W        W 8074   4.340   6.810  16.242  0.3964 -0.0553  0.0085
 5875W        W 8075  17.146   1.425  15.839 -0.0642  0.2999  0.1527
 5876W        W 8076  24.640   7.590  20.672 -0.3695 -0.3607  0.3770
 5877W        W 8077  26.603   0.960  18.442 -0.0166  0.0419  0.2652
 5878W        W 8078   0.028   1.835   6.314 -0.1012 -0.0753 -0.2080
 5879W        W 8079  26.537   3.272  10.434  0.2201  0.0202  0.0457
 5880W        W 8080   4.331   6.604  23.975  0.0011  0.0134  0.3012
 5881W        W 8081  21.819   5.445  10.985  0.0030 -0.0045 -0.0873
 5882W        W 8082  22.388   2.138  25.564 -0.0558  0.0168 -0.0017
 5883W        W 8083   8.004   7.566  17.980 -0.3033 -0.2108  0.5650
 5884W        W 8084   4.294   5.845  21.783 -0.2032 -0.3751 -0.3525
 5885W        W 8085   7.754   0.032  21.601 -0.1859 -0.1142 -0.2348
 5886W        W 8086  18.667   1.968  20.105 -0.0502  0.1371 -0.0289
 5887W        W 8087  16.200   1.152  19.437 -0.3005  0.0363 -0.0039
 5888W        W 8088   7.478   3.664  17.995  0.2806  0.1454 -0.1221
 5889W        W 8089  28.888   6.872  10.946 -0.0489 -0.3111  0.2927
 5890W        W 8090  27.570   6.516  23.088  0.1169  0.0915 -0.0306
 5891W        W 8091   6.836   4.013   6.184 -0.2283  0.0580  0.0859
 5892W        W 8092   5.244   4.402   6.015 -0.1311 -0.2643  0.2987
 5893W        W 8093   7.907   0.320   8.455 -0.0212 -0.0491  0.0045
 5894W        W 8094   5.983   0.085  21.847 -0.1543 -0.1614 -0.0134
 5895W        W 8095  13.108   1.097  17.841  0.1571  0.3802 -0.0592
 5896W        W 8096  20.794   4.613  17.699  0.1044 -0.0523  0.4343
 5897W        W 8097   4.405   5.330  20.195  0.0866 -0.1541  0.0140
 5898W        W 8098   4.278   4.665   0.581 -0.0440 -0.1455 -0.2649
 5899W        W 8099   1.709   3.280  22.304 -0.0866 -0.1487 -0.0076
 5900W        W 8100   0.435   0.371   9.016 -0.0626 -0.0459 -0.0002
 5901W        W 8101   9.736   0.223   0.697 -0.0564  0.1491 -0.1556
 5902W        W 8102  13.340   3.782  15.932 -0.0852  0.1915  0.4262
 5903W        W 8103  28.143   6.984   7.801 -0.0961 -0.1313 -0.2400
 5904W        W 8104   0.521   2.549   5.553 -0.1001  0.1549  0.1659
 5905W        W 8105   2.335   7.378   8.551  0.0953  0.0971  0.0731
 5906W        W 8106  25.194   2.411   8.364 -0.1618 -0.0142 -0.2594
 5907W        W 8107   5.971   6.505  16.611 -0.2140 -0.1407 -0.1007
 5908W        W 8108  28.182   0.231  18.785 -0.0818 -0.0310 -0.0288
 5909W        W 8109  15.244   4.096  17.840  0.2743  0.1682  0.2143
 5910W        W 8110  18.135   4.609  16.810 -0.3092 -0.2912 -0.0245
 5911W        W 8111  20.832   4.109  22.855  0.1464  0.1648 -0.1010
 5912W        W 8112  30.187   4.221   0.967 -0.0538 -0.0182  0.2009
 5913W        W 8113  11.790   0.956   6.178 -0.6189 -0.0111  0.0652
 5914W        W 8114   0.794   0.994   7.157 -0.0100 -0.2085  0.2862
 5915W        W 8115   4.638   3.758  19.570  0.0713 -0.2818  0.3183
 5916W        W 8116  22.124   2.340   1.208  0.0519  0.2957  0.1634
 5917W        W 8117  31.070   7.769  25.571  0.0278  0.3850  0.1200
 5918W        W 8118  15.012   3.925  24.783  0.3861  0.1432 -0.1889
 5919W        W 8119  13.186   0.854   5.550  0.3261 -0.0432  0.1724
 5920W        W 8120   7.527   1.194   2.790 -0.3562 -0.1004 -0.0535
 5921W        W 8121  28.836   0.732   4.231  0.0676 -0.2729  0.1423
 5922W        W 8122  28.284   5.676  22.493 -0.1579  0.1827 -0.0050
 5923W        W 8123  18.648   7.771  25.664  0.3443 -0.2075  0.1028
 5924W        W 8124  16.617   0.895   2.215  0.1267  0.0253  0.0672
 5925W        W 8125   6.715   5.997  16.602 -0.0047 -0.0964 -0.0172
 5926W        W 8126   9.639   3.160  10.533 -0.1501 -0.1085  0.0797
 5927W        W 8127  26.562   1.904   1.943  0.0289  0.1176  0.0198
 5928W        W 8128   5.815   6.067  17.828  0.2116  0.2572 -0.3415
 5929W        W 8129  11.896   7.569  25.868 -0.0755 -0.0689  0.4371
 5930W        W 8130  21.309   7.609   2.245 -0.0516 -0.0616 -0.0835
 5931W        W 8131   4.769   5.663   6.671  0.0549 -0.3075 -0.1807
 5932W        W 8132   0.636   5.456   5.197  0.2223  0.2831  0.1386
 5933W        W 8133  12.267   0.515  25.593 -0.1135 -0.0357  0.2108
 5934W        W 8134   9.392   3.512   7.281  0.3317 -0.1269 -0.0583
 5935W        W 8135  24.398   7.787   0.400 -0.1040  0.1408 -0.0881
 5936W        W 8136   5.397   0.220   4.611  0.0437  0.0132 -0.0908
 5937W        W 8137  22.454   1.379   5.068 -0.0070  0.3438 -0.0772
 5938W        W 8138  29.723   1.218  10.173  0.2541  0.2729  0.1664
 5939W        W 8139  24.867   4.323  15.078  0.1538 -0.1007  0.2551
 5940W        W 8140  10.323   2.042  15.425 -0.0686  0.1816 -0.2341
 5941W        W 8141  15.476   3.193   5.973 -0.1699  0.0794  0.1161
 5942W        W 8142  10.220   3.307  21.217 -0.3465 -0.2060  0.0053
 5943W        W 8143  14.791   7.123   2.514 -0.0245  0.0570  0.1607
 5944W        W 8144   6.952   1.430   4.130 -0.3222 -0.0128 -0.0613
 5945W        W 8145  20.499   2.060   7.174  0.0450  0.0247 -0.0441
 5946W        W 8146  24.276   6.386   5.541 -0.1625  0.1857  0.0724
 5947W        W 8147   1.089   1.234   4.365  0.0506 -0.0135 -0.1461
 5948W        W 8148  22.314   4.101  19.115  0.2399 -0.0771 -0.0945
 5949W        W 8149   9.426   0.892  23.074 -0.3950 -0.0680 -0.0430
 5950W        W 8150  14.583   3.583  25.059 -0.2488  0.0999 -0.0844
 5951W        W 8151  18.561   2.073   1.591 -0.2689 -0.0757 -0.2607
 5952W        W 8152  30.113   1.375   0.712  0.0604 -0.1534 -0.0750
 5953W        W 8153  17.978   0.516   1.034 -0.2461 -0.0818  0.1221
 5954W        W 8154  27.528   7.327  10.530  0.2599  0.0345  0.0642
 5955W        W 8155  23.064   1.561  15.712  0.1725 -0.0977  0.1588
 5956W        W 8156  14.094   6.263  11.323 -0.0273 -0.2082 -0.1554
 5957W        W 8157   6.327   1.068   7.938 -0.3219  0.0906 -0.1214
 5958W        W 8158   2.649   4.983   4.516  0.1564 -0.4123 -0.2369
 5959W        W 8159  29.453   3.539  19.075 -0.2270  0.1508  0.0710
 5960W        W 8160  19.678   0.905   5.350  0.1747  0.0367 -0.2832
 5961W        W 8161   0.322   0.311   3.185  0.2042 -0.0859  0.1722
 5962W        W 8162  24.772   7.240   5.637  0.1418  0.4481 -0.0202
 5963W        W 8163  14.788   0.882   9.431 -0.2960 -0.3132 -0.1523
 5964W        W 8164  14.670   4.617  11.214 -0.2634 -0.3575  0.0580
 5965W        W 8165   0.328   6.236   0.579 -0.1356  0.1353 -0.2671
 5966W        W 8166  20.857   1.236  25.876 -0.1358  0.0309 -0.1853
 5967W        W 8167   9.904   0.477   1.551 -0.0829 -0.0854 -0.0698
 5968W        W 8168   3.290   4.962   9.525 -0.0247 -0.2909  0.1393
 5969W        W 8169   4.702   0.514  23.818 -0.1076  0.3465 -0.1206
 5970W        W 8170  20.614   7.449   8.822  0.0863  0.1539 -0.1241
 5971W        W 8171  30.160   5.050   4.102 -0.0933 -0.1600 -0.0038
 5972W        W 8172  21.431   3.855  18.681  0.0456 -0.1934  0.0843
 5973W        W 8173  22.842   3.532   5.145 -0.1058  0.2040 -0.0763
 5974W        W 8174  13.853   5.190   1.301  0.0810  0.0463 -0.1097
 5975W        W 8175  12.714   3.206  10.290  0.1672 -0.0929  0.0377
 5976W        W 8176  13.369   7.110   4.185 -0.4932 -0.0262  0.3780
 5977W        W 8177  25.188   5.643   0.012  0.3796 -0.1538  0.2284
 5978W        W 8178  18.404   5.341  16.979 -0.0888 -0.2533  0.1441
 5979W        W 8179  28.999   2.629  10.845  0.3007 -0.0135 -0.0619
 5980W        W 8180  11.293   3.637   2.940 -0.1674  0.0834  0.0327
 5981W        W 8181  31.290   6.140   9.141  0.1300 -0.0431 -0.0653
 5982W        W 8182  16.344   6.996  14.715  0.0321 -0.0235 -0.1450
 5983W        W 8183   7.027   2.521  17.174 -0.0771 -0.0436  0.1167
 5984W        W 8184  26.668   0.331  19.691  0.1239  0.0160 -0.0137
 5985W        W 8185  15.675   4.140   7.092 -0.2903 -0.2160  0.2986
 5986W        W 8186   8.846   1.225  18.267  0.1395 -0.1369  0.4026
 5987W        W 8187  27.315   0.065   8.062 -0.0098 -0.0101  0.0513
 5988W        W 8188   2.970   5.662   3.393 -0.0235 -0.1767  0.2472
 5989W        W 8189  22.839   2.046   4.902 -0.0620  0.2789  0.0921
 5990W        W 8190  24.519   2.951   0.549  0.0037 -0.0443 -0.1544
 5991W        W 8191  29.999   7.294   6.442  0.3263 -0.0191  0.2169
 5992W        W 8192  31.146   7.484   7.844  0.0752 -0.0503 -0.0883
 5993W        W 8193  12.139   7.059   1.195  0.1323 -0.2474 -0.1177
 5994W        W 8194  25.979   5.117  20.560 -0.1846  0.0929  0.0307
 5995W        W 8195  19.363   3.846   8.265  0.0204  0.0628  0.1639
 5996W        W 8196   0.897   0.753  21.528 -0.0086  0.1368  0.2032
 5997W        W 8197  12.855   5.117   8.957  0.1241 -0.0058 -0.5018
 5998W        W 8198   1.908   1.264  16.214  0.1542  0.2036 -0.1566
 5999W        W 8199  30.974   3.144   9.888 -0.3876  0.3923 -0.0802
 6000W        W 8200  17.773   2.122  10.238  0.1564 -0.0406  0.1951
 6001W        W 8201  28.616   6.682  18.259  0.2578 -0.0655 -0.1195
 6002W        W 8202   7.009   5.960   1.833  0.0771 -0.1399 -0.2211
 6003W        W 8203  28.676   4.642  17.685  0.2429 -0.0290 -0.0329
 6004W        W 8204  15.567   0.006  15.982  0.2976 -0.0105  0.1668
 6005W        W 8205  12.938   2.824   2.368  0.0890  0.0032 -0.1563
 6006W        W 8206  18.252   3.583  15.821 -0.0051 -0.1511  0.4215
 6007W        W 8207   5.642   6.402   7.994  0.1040  0.1338 -0.1341
 6008W        W 8208  17.165   2.225   8.397  0.0448 -0.1851  0.1750
 6009W        W 8209  26.827   6.194   5.027 -0.1149 -0.0057 -0.2187
 6010W        W 8210   3.477   4.698   5.007 -0.0761  0.0975  0.0146
 6011W        W 8211  16.277   5.340   4.316 -0.0655 -0.1304 -0.2462
 6012W        W 8212   1.950   6.275  19.584 -0.0433  0.0871 -0.0593
 6013W        W 8213   6.017   5.946   8.515  0.1629 -0.0612  0.0922
 6014W        W 8214  11.022   4.148  23.241 -0.1013  0.2203  0.0855
 6015W        W 8215   9.581   5.456  24.389  0.1909  0.1333  0.0121
 6016W        W 8216   8.421   3.015   1.842 -0.1002  0.1358 -0.2066
 6017W        W 8217  26.152   6.875   8.193 -0.0210  0.0624  0.0172
 6018W        W 8218   3.288   3.175   2.288 -0.1664  0.0558 -0.1718
 6019W        W 8219  22.854   2.993   7.415 -0.0064 -0.0523  0.0171
 6020W        W 8220  16.420   6.262  21.283  0.1119 -0.1610 -0.2689
 6021W        W 8221  30.892   5.536  20.285  0.2278  0.1652  0.1690
 6022W        W 8222  15.822   5.002  21.671  0.1624  0.1836  0.0686
 6023W        W 8223  21.412   2.324   6.841 -0.2648 -0.0557 -0.1151
 6024W        W 8224   7.782   0.309  24.008  0.1365 -0.0943 -0.1116
 6025W        W 8225  23.377   5.845  15.802  0.1067 -0.2115  0.0941
 6026W        W 8226   1.123   3.200   6.821  0.0447 -0.3511  0.1466
 6027W        W 8227   8.632   3.917  25.929  0.2223 -0.0399  0.0715
 6028W        W 8228  16.732   5.190   6.589  0.1850  0.1103 -0.3726
 6029W        W 8229  16.831   5.057   3.105  0.2478 -0.2204  0.3215
 6030W        W 8230   7.904   0.445   7.624 -0.4996 -0.0597  0.1114
 6031W        W 8231  14.268   4.748  16.317  0.2249 -0.0862  0.4420
 6032W        W 8232  13.857   0.151   5.996  0.0953  0.1181  0.1525
 6033W        W 8233  16.503   2.228  19.036  0.1223 -0.0111 -0.0539
 6034W        W 8234  15.972   0.747  18.862  0.0475  0.2034  0.2075
 6035W        W 8235  14.137   6.771   3.048  0.0506  0.1871 -0.3613
 6036W        W 8236   9.723   7.222  23.621  0.0636 -0.1024  0.1223
 6037W        W 8237  18.667   7.363   6.244  0.1363 -0.0982 -0.1706
 6038W        W 8238  30.477   4.746  24.940  0.0489 -0.0212  0.1441
 6039W        W 8239   0.769   4.450  25.211  0.0391  0.2401  0.0587
 6040W        W 8240  21.165   6.358  10.124  0.2082  0.0642 -0.0908
 6041W        W 8241  30.679   7.518   5.775  0.2379 -0.0003 -0.1082
 6042W        W 8242   6.520   1.354  24.750  0.3336 -0.1801  0.0504
 6043W        W 8243  14.962   6.061   6.964 -0.2954 -0.0663 -0.1254
 6044W        W 8244   4.427   0.089  17.307  0.0574 -0.0352 -0.2561
 6045W        W 8245  19.541   2.472  16.709 -0.1242  0.0954 -0.2203
 6046W        W 8246  16.024   4.174  25.194  0.0844  0.0272 -0.1254
 6047W        W 8247   2.944   2.704  24.448 -0.1393  0.0670  0.1278
 6048W        W 8248   0.470   4.661   8.946  0.0345  0.1063 -0.0604
 6049W        W 8249  27.342   4.985  16.263  0.1061 -0.0355  0.1113
 6050W        W 8250   3.591   5.506  22.543 -0.1927  0.3313  0.0537
 6051W        W 8251   5.701   0.932   1.193  0.0515 -0.3307 -0.2097
 6052W        W 8252   3.692   3.132  19.952 -0.2248 -0.2850 -0.0233
 6053W        W 8253  11.395   0.621  16.547  0.5183 -0.1033 -0.0708
 6054W        W 8254  25.869   2.523   0.548 -0.2479 -0.4331 -0.1308
 6055W        W 8255  29.609   3.979   8.264  0.0081  0.2252 -0.1768
 6056W        W 8256  11.077   3.928   4.095  0.1638 -0.1072  0.1006
 6057W        W 8257  12.285   5.926  15.802 -0.1248  0.0968  0.0642
 6058W        W 8258  14.245   5.624   0.234 -0.2482  0.1405  0.2658
 6059W        W 8259  25.467   1.445  15.243  0.0517 -0.0033  0.0412
 6060W        W 8260  15.527   0.793   6.157 -0.0123  0.1847  0.0361
 6061W        W 8261   6.073   0.515  21.524 -0.1904 -0.0779  0.0923
 6062W        W 8262  14.794   0.071   3.483  0.3068  0.1265  0.0503
 6063W        W 8263  12.898   0.455  19.101  0.0406  0.0378 -0.3286
 6064W        W 8264  29.111   7.176  21.939 -0.0993  0.2078 -0.1047
 6065W        W 8265  22.140   7.146  21.155  0.0553  0.0673 -0.3477
 6066W        W 8266   8.101   6.107  26.131 -0.3404  0.0302  0.2255
 6067W        W 8267  28.671   7.612   8.256 -0.0745 -0.2689  0.1696
 6068W        W 8268  16.594   2.565  18.679 -0.2505  0.1958  0.1229
 6069W        W 8269   7.387   4.066  20.728  0.1169 -0.0538 -0.1542
 6070W        W 8270  26.557   3.580  18.097  0.0867 -0.0938 -0.0458
 6071W        W 8271  19.201   2.273   9.812 -0.0011 -0.4253  0.0416
 6072W        W 8272  20.036   0.687   4.496 -0.1033  0.2078 -0.0120
 6073W        W 8273  16.456   4.795  22.493  0.2375  0.2674  0.1100
 6074W        W 8274  18.705   1.357   1.872 -0.3794  0.1097  0.0467
 6075W        W 8275  27.189   2.132   0.600  0.0364 -0.1861  0.0289
 6076W        W 8276   3.357   2.404   6.725  0.1820  0.1088 -0.1897
 6077W        W 8277  15.664   2.339   9.366 -0.0932 -0.1748  0.0894
 6078W        W 8278   4.952   0.294   0.602  0.0540  0.2500 -0.1206
 6079W        W 8279  13.268   4.747   0.637  0.1389 -0.0841 -0.2610
 6080W        W 8280  26.270   7.441  22.076  0.1009 -0.0108  0.3576
 6081W        W 8281   2.169   0.078   6.112 -0.0425  0.1243  0.3589
 6082W        W 8282  15.994   6.890   1.676  0.0903 -0.0961 -0.0231
 6083W        W 8283  15.611   0.412  18.959  0.0479  0.0508 -0.1177
 6084W        W 8284  14.543   2.143  18.121  0.2000 -0.0023 -0.0811
 6085W        W 8285   3.869   0.138  16.552  0.1624  0.0775  0.3500
 6086W        W 8286  14.943   1.750   1.495  0.0599  0.2245 -0.1075
 6087W        W 8287   9.813   3.263  21.519  0.1460  0.0980 -0.1766
 6088W        W 8288  25.414   3.602   9.298  0.2663 -0.4028 -0.1945
 6089W        W 8289  12.176   2.091   4.907 -0.3764 -0.0513  0.2806
 6090W        W 8290  24.829   1.535  15.859 -0.0422 -0.1688 -0.0854
 6091W        W 8291  15.581   6.067   1.946 -0.0025  0.2166 -0.2779
 6092W        W 8292  23.829   5.003   6.414  0.0957 -0.2044 -0.2638
 6093W        W 8293  12.480   1.320  17.676  0.2816 -0.1404  0.1121
 6094W        W 8294  18.123   6.792   7.933 -0.0455 -0.1500  0.2010
 6095W        W 8295   6.235   6.911  18.870  0.0484 -0.0323 -0.0485
 6096W        W 8296  12.732   3.804   4.911 -0.2552  0.1691  0.0808
 6097W        W 8297  28.217   3.198  24.637 -0.0976 -0.1503 -0.1240
 6098W        W 8298  20.072   6.960  25.191  0.1041 -0.1760  0.1501
 6099W        W 8299  20.342   7.071  20.449 -0.0796 -0.1117 -0.0092
 6100W        W 8300   8.435   3.173  16.495 -0.2139  0.0463  0.0237
 6101W        W 8301   9.393   5.485  18.713  0.2646 -0.0013  0.3431
 6102W        W 8302  22.050   6.604  19.670  0.1051  0.2291  0.3501
 6103W        W 8303   9.167   6.115   1.565 -0.2235  0.0696  0.3558
 6104W        W 8304   5.329   1.939  23.076  0.0706  0.0281 -0.0269
 6105W        W 8305   3.151   6.020  16.452  0.0724  0.0222  0.1478
 6106W        W 8306  11.202   6.228   6.445  0.0088 -0.4867  0.1809
 6107W        W 8307  21.212   4.050   6.801 -0.3703  0.0320 -0.2320
 6108W        W 8308  18.974   4.036  17.481  0.0125  0.0770  0.1440
 6109W        W 8309  26.123   5.536  25.657 -0.0937  0.2043  0.1919
 6110W        W 8310  19.005   0.942  22.541  0.3672  0.1535  0.0175
 6111W        W 8311  26.855   2.124  17.454 -0.0820  0.0579  0.3158
 6112W        W 8312   8.540   6.312   8.754  0.0443  0.3225  0.2713
 6113W        W 8313  10.709   7.029  17.737  0.0020 -0.2480  0.2469
 6114W        W 8314  20.517   3.898  22.341  0.0186 -0.1801  0.1021
 6115W        W 8315  27.197   1.717  19.822 -0.2173 -0.0943  0.2641
 6116W        W 8316  11.782   6.114  20.081  0.1124  0.1412  0.0977
 6117W        W 8317   4.153   0.367   9.427 -0.0941  0.0822 -0.3458
 6118W        W 8318  13.648   5.296   4.709 -0.0241 -0.0374 -0.0472
 6119W        W 8319   1.876   7.314  11.575 -0.0719 -0.2045  0.2764
 6120W        W 8320  11.748   6.681  21.689  0.0799 -0.0612 -0.1825
 6121W        W 8321   4.279   4.435   5.744 -0.0309 -0.0641  0.0950
 6122W        W 8322   3.761   1.011   9.639  0.0701 -0.1843 -0.1235
 6123W        W 8323  29.942   1.670  18.362  0.1798  0.0487 -0.3868
 6124W        W 8324  16.641   1.317   1.733  0.0028 -0.2540  0.0744
 6125W        W 8325  10.755   7.651   1.732 -0.3557 -0.1677 -0.2074
 6126W        W 8326  25.926   6.590   0.243  0.0893  0.4935 -0.1077
 6127W        W 8327  19.062   4.274   8.189  0.0873 -0.0952  0.1390
 6128W        W 8328  12.491   4.054  22.519  0.0630  0.0392  0.1056
 6129W        W 8329  18.750   0.089  20.641 -0.1100  0.1569 -0.1175
 6130W        W 8330   7.394   0.948  10.205  0.0269 -0.2413  0.2920
 6131W        W 8331  22.542   5.861   0.574  0.2383  0.0670 -0.0146
 6132W        W 8332  27.362   2.256   5.186 -0.2628  0.0536  0.1049
 6133W        W 8333  22.712   6.529  10.553 -0.1876  0.1953  0.0677
 6134W        W 8334  25.313   2.176   8.806 -0.1015 -0.2235 -0.0073
 6135W        W 8335   8.279   7.071  21.348 -0.4365 -0.0505  0.0489
 6136W        W 8336   0.557   5.958  19.592  0.2465 -0.0203  0.2995
 6137W        W 8337   0.286   4.784   1.624 -0.0293 -0.1042  0.2932
 6138W        W 8338  13.826   2.925   5.788  0.1966 -0.1679 -0.1769
 6139W        W 8339  26.425   2.495   3.073 -0.0447 -0.0660 -0.1022
 6140W        W 8340   3.097   6.391  24.749  0.0519 -0.1445  0.1974
 6141W        W 8341   4.566   3.001   2.356  0.3054 -0.1576  0.0148
 6142W        W 8342  13.248   6.096  20.317 -0.2490 -0.1304 -0.1065
 6143W        W 8343  14.600   0.531  23.623 -0.0076  0.0107  0.1377
 6144W        W 8344   5.406   2.379   2.055 -0.2415  0.0958 -0.1007
 6145W        W 8345  11.999   3.529   0.273  0.1985 -0.0508  0.0346
 6146W        W 8346   9.946   5.277   9.775 -0.2218  0.2492  0.3337
 6147W        W 8347   5.465   6.570  22.457  0.4258 -0.3755  0.0484
 6148W        W 8348  11.560   4.449  18.081 -0.1704 -0.0928  0.0746
 6149W        W 8349   5.163   7.414   1.234  0.1473  0.0714 -0.0393
 6150W        W 8350  19.323   2.099  16.416  0.0244  0.2521  0.1231
 6151W        W 8351  15.743   5.880   7.142  0.3513 -0.0408 -0.1494
 6152W        W 8352  19.329   2.466  22.080 -0.2211 -0.0605 -0.0247
 6153W        W 8353  11.007   4.796   4.832 -0.0094  0.1284 -0.0937
 6154W        W 8354   2.044   0.956   1.984 -0.3106 -0.0077 -0.0172
 6155W        W 8355   7.740   0.607  18.290  0.1695 -0.1347 -0.0047
 6156W        W 8356  28.118   5.184  19.866 -0.0744  0.2450  0.0408
 6157W        W 8357   5.420   0.263  22.946 -0.0520 -0.2882 -0.1656
 6158W        W 8358  30.465   1.460   9.615 -0.1720 -0.1307  0.0789
 6159W        W 8359  29.266   4.839   0.158 -0.1845  0.4504  0.2004
 6160W        W 8360  22.383   2.580   4.143  0.2247  0.3219  0.1019
 6161W        W 8361  27.352   7.289  17.560  0.0085  0.1117 -0.0953
 6162W        W 8362  31.273   3.641   6.507 -0.0381  0.1120 -0.0409
 6163W        W 8363  13.395   7.045  16.902 -0.1245  0.0555  0.0386
 6164W        W 8364   8.717   7.675   1.883 -0.0151  0.3036 -0.0801
 6165W        W 8365  29.719   4.307  19.559 -0.1227 -0.1018  0.0783
 6166W        W 8366  29.117   7.381  17.942 -0.0780 -0.0657 -0.1839
 6167W        W 8367   6.360   2.179  17.720 -0.0557 -0.0657  0.0301
 6168W        W 8368   6.812   2.506  17.634 -0.1566 -0.0246 -0.0631
 6169W        W 8369  11.975   2.318   2.041  0.1176  0.2391 -0.0095
 6170W        W 8370  28.541   2.363   9.587 -0.1820  0.1739 -0.1067
 6171W        W 8371  30.453   2.357   6.643  0.2165  0.2311  0.4565
 6172W        W 8372  15.746   1.216  20.144  0.1113  0.2474 -0.0663
 6173W        W 8373   6.633   4.405   5.167  0.0420 -0.2655 -0.3493
 6174W        W 8374  27.848   0.783  19.712 -0.2870 -0.0023  0.2385
 6175W        W 8375   4.831   6.102  19.481  0.0292 -0.2360 -0.0460
 6176W        W 8376   9.244   7.099  21.597  0.2434 -0.0273 -0.0137
 6177W        W 8377  14.389   1.726  25.517  0.0306  0.0185 -0.1929
 6178W        W 8378  20.706   5.762  18.930  0.1982  0.4533 -0.0648
 6179W        W 8379   8.938   7.812   8.483  0.1045 -0.2670 -0.0085
 6180W        W 8380  11.004   7.175   7.841  0.1891  0.0494 -0.0115
 6181W        W 8381  29.519   5.987   2.591  0.0824 -0.0107 -0.2065
 6182W        W 8382  18.177   5.723  25.937  0.0140  0.3215  0.1466
 6183W        W 8383  19.187   4.089  10.483 -0.1216 -0.2145  0.2426
 6184W        W 8384  13.492   1.710   9.294  0.0107  0.0990 -0.4148
 6185W        W 8385   0.134   3.272   5.769  0.3045  0.0223  0.4749
 6186W        W 8386  11.607   1.810  15.238  0.0028 -0.0202 -0.1975
 6187W        W 8387  22.406   4.546   1.038  0.0088  0.0847 -0.1648
 6188W        W 8388   6.729   1.576  14.580 -0.1365  0.2902  0.3776
 6189W        W 8389  13.828   0.233  18.743 -0.0553  0.0970 -0.1845
 6190W        W 8390  12.673   5.758  18.792  0.0317 -0.2961  0.2504
 6191W        W 8391  19.350   4.737   8.605  0.2491 -0.0327 -0.2864
 6192W        W 8392   5.989   1.245  18.886 -0.0877  0.2346  0.1994
 6193W        W 8393   6.800   3.342  22.685  0.0894 -0.2182  0.0197
 6194W        W 8394  28.464   4.933  24.902  0.0828  0.0095 -0.0028
 6195W        W 8395  29.955   4.008   0.546 -0.0516 -0.2196 -0.1607
 6196W        W 8396  20.618   2.692  24.086 -0.1699 -0.0142 -0.1463
 6197W        W 8397  22.796   0.283  21.252  0.0230  0.4019 -0.0305
 6198W        W 8398  23.233   6.022   1.237  0.0506 -0.0552 -0.2171
 6199W        W 8399   8.456   7.774   4.783 -0.0599 -0.0616  0.0033
 6200W        W 8400   9.680   3.653   7.801  0.2906 -0.0494 -0.2020
 6201W        W 8401  20.572   0.774   6.035 -0.0705 -0.0680  0.3164
 6202W        W 8402   1.534   5.497  10.495 -0.0705  0.1569  0.1675
 6203W        W 8403  17.466   5.397  25.794 -0.3053  0.0448 -0.0541
 6204W        W 8404  23.812   7.250   8.010  0.1172  0.2569 -0.0048
 6205W        W 8405   1.699   5.895   7.317 -0.1200 -0.0412 -0.3179
 6206W        W 8406   0.988   3.750  16.628  0.1675  0.2270  0.2862
 6207W        W 8407  12.447   3.534  25.437 -0.1044  0.2628 -0.3213
 6208W        W 8408  24.107   6.979  24.392 -0.1194  0.1854 -0.1484
 6209W        W 8409  30.863   0.381   0.421 -0.1926  0.1580  0.0076
 6210W        W 8410  28.750   7.233   3.890 -0.3148 -0.0118 -0.0435
 6211W        W 8411   4.899   7.068   4.003  0.0386  0.4347 -0.1293
 6212W        W 8412  11.966   4.326  10.618 -0.0107  0.0415 -0.0840
 6213W        W 8413  15.261   5.894  18.352  0.0820  0.1494  0.0351
 6214W        W 8414  29.132   1.582  23.682  0.1582  0.1471 -0.0632
 6215W        W 8415  26.172   3.881   0.922  0.0159 -0.2420 -0.1633
 6216W        W 8416  15.802   0.506  24.341  0.1066 -0.1181 -0.3433
 6217W        W 8417  19.995   0.518   0.922 -0.2939  0.0162 -0.0750
 6218W        W 8418   2.941   3.205   3.327  0.1942  0.2927 -0.0122
 6219W        W 8419   1.387   4.891  19.710  0.5939 -0.0055 -0.0738
 6220W        W 8420  24.339   4.940   2.337 -0.1143 -0.0129 -0.2144
 6221W        W 8421   0.736   0.228  11.934  0.1156  0.0788  0.0163
 6222W        W 8422   3.581   1.723   9.228  0.2573  0.1398  0.0449
 6223W        W 8423  15.060   0.602   2.764 -0.0249  0.2819 -0.2242
 6224W        W 8424  13.812   5.745  23.427  0.2422  0.1481 -0.3934
 6225W        W 8425  27.504   2.080  22.573 -0.1932  0.1270 -0.2362
 6226W        W 8426  18.373   4.171  14.988  0.4002 -0.2674 -0.2057
 6227W        W 8427   8.789   2.454   5.198  0.0618  0.0054 -0.2309
 6228W        W 8428  12.617   3.358   4.617  0.0616 -0.1982  0.1175
 6229W        W 8429   8.216   6.263   4.213 -0.0274 -0.1663 -0.2362
 6230W        W 8430   3.217   0.192  22.945  0.2667  0.0731 -0.1015
 6231W        W 8431  23.218   4.311   7.687  0.1942  0.2450  0.1078
 6232W        W 8432   6.601   1.491   6.374  0.0948  0.0572 -0.2618
 6233W        W 8433   6.676   1.514  15.145 -0.3602 -0.3906  0.0588
 6234W        W 8434   0.131   6.129   5.066  0.1851 -0.1836  0.0676
 6235W        W 8435  25.883   4.352  22.133  0.2261 -0.2512 -0.0822
 6236W        W 8436   7.635   1.563  24.402 -0.2859  0.1560  0.3572
 6237W        W 8437  30.630   6.838  23.133 -0.0939 -0.0086  0.0895
 6238W        W 8438   2.183   7.027  16.961 -0.1519 -0.0390  0.1095
 6239W        W 8439   7.593   6.313  20.019 -0.0588 -0.0563  0.0922
 6240W        W 8440  29.542   1.312  22.979 -0.0193 -0.0738  0.1390
 6241W        W 8441  28.625   1.268   7.863 -0.1181 -0.0150 -0.1881
 6242W        W 8442  19.412   3.248  15.262 -0.0067 -0.2703 -0.2494
 6243W        W 8443   3.440   2.666   3.975 -0.0121  0.0659 -0.2710
 6244W        W 8444   7.321   2.006   0.426 -0.0783 -0.1763  0.0399
 6245W        W 8445  16.659   7.531   5.040  0.3548  0.2211 -0.1452
 6246W        W 8446  24.686   1.570   5.740 -0.1924 -0.0473 -0.1123
 6247W        W 8447   5.456   3.708   5.788 -0.0002 -0.0317  0.2055
 6248W        W 8448  22.316   0.965  25.029 -0.1316  0.2571  0.0441
 6249W        W 8449   7.926   6.097  11.577  0.1517 -0.3183 -0.0247
 6250W        W 8450  20.249   2.091  10.034  0.1397 -0.1381  0.1688
 6251W        W 8451  27.991   4.138  11.409  0.2188  0.2138  0.0394
 6252W        W 8452  17.633   7.680  16.279  0.1210  0.0928  0.1523
 6253W        W 8453  30.681   0.162   3.177 -0.3027  0.3002  0.1099
 6254W        W 8454   0.683   0.182   6.582 -0.1494  0.0861 -0.0828
 6255W        W 8455  12.849   5.867  21.601  0.0693 -0.1033 -0.1594
 6256W        W 8456  21.472   3.169   5.669 -0.0755 -0.1099  0.1172
 6257W        W 8457  15.738   2.259  19.269  0.0387 -0.2384  0.0703
 6258W        W 8458   0.511   0.140   5.605 -0.1933 -0.0988  0.1384
 6259W        W 8459  19.657   5.102   4.954  0.1473  0.5456 -0.0730
 6260W        W 8460   1.093   1.825  18.602  0.0957  0.2580  0.2456
 6261W        W 8461  14.760   3.355   1.131 -0.2633  0.1644 -0.1637
 6262W        W 8462   2.176   7.401   8.086  0.2153  0.1838 -0.0444
 6263W        W 8463  19.556   7.730  19.324 -0.1069 -0.0798 -0.0403
 6264W        W 8464  27.591   2.792  11.398 -0.5178 -0.0065 -0.0826
 6265W        W 8465  24.768   5.730  22.164 -0.2147  0.2204 -0.0286
 6266W        W 8466  29.505   2.779  24.263  0.0988 -0.2933  0.1837
 6267W        W 8467   4.557   7.437  20.040 -0.0110 -0.1736 -0.4292
 6268W        W 8468  17.205   5.995  17.318 -0.5208 -0.0240 -0.1507
 6269W        W 8469  12.072   4.258   5.596 -0.3495 -0.1108 -0.0953
 6270W        W 8470  12.459   1.006  24.674  0.2854  0.0227 -0.0171
 6271W        W 8471  24.329   3.608  23.487 -0.2372  0.3315  0.1244
 6272W        W 8472  23.997   1.776  25.065  0.2419 -0.4874 -0.1191
 6273W        W 8473  21.036   6.991   9.522  0.1327  0.2784  0.1725
 6274W        W 8474  22.839   6.948  23.627  0.2367  0.0606  0.2431
 6275W        W 8475  29.038   3.662  21.121 -0.0861 -0.1475  0.1761
 6276W        W 8476  10.098   2.718  19.279  0.2399  0.1358  0.0468
 6277W        W 8477   5.271   4.091  20.573 -0.2122  0.1239 -0.1040
 6278W        W 8478  19.364   2.136  10.743  0.0262 -0.0592  0.3592
 6279W        W 8479  20.370   3.976   5.650 -0.1080 -0.0599 -0.1645
 6280W        W 8480  17.341   2.001   1.872  0.0491  0.3190  0.0235
 6281W        W 8481  11.768   0.665  16.214 -0.1134  0.4444 -0.0417
 6282W        W 8482  23.752   5.574   7.484 -0.4090 -0.1188 -0.2129
 6283W        W 8483  19.606   1.461  25.823 -0.3030  0.0626  0.0813
 6284W        W 8484  25.119   3.165   1.192  0.2489  0.4622 -0.1411
 6285W        W 8485  26.602   2.316   9.520  0.0570  0.2508  0.2177
 6286W        W 8486   3.807   1.884   2.911  0.0287 -0.1902 -0.1465
 6287W        W 8487  30.979   7.310  17.940 -0.2119 -0.2578 -0.0370
 6288W        W 8488   6.881   1.628  16.432  0.0057 -0.0144 -0.3371
 6289W        W 8489  21.667   5.778  19.876  0.2093  0.0237  0.1451
 6290W        W 8490   2.056   5.941   7.628  0.0460  0.1579  0.2915
 6291W        W 8491  21.943   0.069  22.198  0.2003  0.0322  0.2596
 6292W        W 8492  11.207   5.352  24.234 -0.0586  0.1135 -0.0308
 6293W        W 8493  30.635   6.816   3.624 -0.2742 -0.3184 -0.2649
 6294W        W 8494  17.584   7.786   6.326 -0.1779  0.1324 -0.2183
 6295W        W 8495  30.955   3.949   0.066 -0.3245  0.1191  0.0189
 6296W        W 8496   7.245   2.813  15.686  0.4828  0.1329 -0.1219
 6297W        W 8497  17.468   7.747  22.905  0.0125 -0.1446  0.2398
 6298W        W 8498  20.358   6.731   6.630  0.1979 -0.1868  0.1239
 6299W        W 8499   7.591   6.194   0.596 -0.1492 -0.0902 -0.2212
 6300W        W 8500  22.899   3.732  21.151 -0.0373  0.2116 -0.0646
 6301W        W 8501  29.711   4.522  24.509  0.1019  0.3298 -0.1628
 6302W        W 8502   3.994   4.235  20.226  0.0442  0.3225 -0.1910
 6303W        W 8503  17.666   5.264   9.236 -0.1863 -0.0884  0.1833
 6304W        W 8504  24.432   0.528   2.765  0.0208 -0.3311 -0.2032
 6305W        W 8505  14.617   5.671  25.999  0.0617  0.1892 -0.1429
 6306W        W 8506  20.577   6.017   5.301 -0.4038  0.1171 -0.1836
 6307W        W 8507   7.992   4.633   5.285  0.2320 -0.1013  0.1006
 6308W        W 8508  27.670   4.293   5.916  0.0300  0.4134  0.1085
 6309W        W 8509  21.771   4.197   1.645 -0.1785 -0.0579 -0.0587
 6310W        W 8510  27.364   0.222   2.209  0.0055 -0.0641  0.2984
 6311W        W 8511  28.102   4.700  17.507 -0.2041 -0.1729 -0.0407
 6312W        W 8512  14.781   5.070  16.093 -0.0783  0.0380 -0.0065
 6313W        W 8513   9.843   3.063   1.877  0.1413 -0.4004  0.1217
 6314W        W 8514  13.339   6.642  21.494  0.0984 -0.2249 -0.2044
 6315W        W 8515   6.628   1.038  19.637 -0.0320  0.0220 -0.4339
 6316W        W 8516  16.546   0.615  16.980 -0.2702  0.0468 -0.0027
 6317W        W 8517  19.270   4.467   7.636 -0.3264  0.0898  0.0302
 6318W        W 8518  14.063   7.694   2.844  0.1670  0.0448 -0.2951
 6319W        W 8519   1.122   0.150   1.865  0.2053  0.1478  0.4950
 6320W        W 8520   8.277   3.829  15.390  0.1798  0.1727 -0.1818
 6321W        W 8521  17.843   4.066   3.124 -0.3544  0.1821 -0.1136
 6322W        W 8522  14.511   5.080  20.009 -0.3697 -0.0354 -0.1363
 6323W        W 8523   7.714   0.402  16.082  0.1017  0.1965 -0.0467
 6324W        W 8524   0.809   1.573   7.678  0.0132 -0.0963 -0.1480
 6325W        W 8525  20.553   3.682  23.938  0.3740  0.4583 -0.4458
 6326W        W 8526  16.119   7.383  20.834  0.2608 -0.1485 -0.1490
 6327W        W 8527   0.765   5.304   4.683 -0.1341 -0.1439  0.0564
 6328W        W 8528  15.073   0.135  24.813  0.2086 -0.0293 -0.0250
 6329W        W 8529  14.516   5.305  18.408 -0.1613 -0.0804 -0.0859
 6330W        W 8530  30.246   2.906  18.455  0.2141  0.3037  0.2795
 6331W        W 8531  21.807   3.569  25.453 -0.4275  0.1308 -0.0053
 6332W        W 8532  22.528   1.740  25.902  0.4823  0.1390 -0.0374
 6333W        W 8533   5.406   3.254  24.633  0.0330  0.1624 -0.0253
 6334W        W 8534  14.545   4.827  24.795 -0.0317 -0.0277  0.0062
 6335W        W 8535  31.161   3.601  25.408 -0.2012 -0.0688  0.0810
 6336W        W 8536   8.903   0.159   4.706  0.0856  0.0064  0.1147
 6337W        W 8537  24.276   5.845  20.470  0.1201 -0.1119 -0.0127
 6338W        W 8538  15.639   2.420  17.675  0.0146 -0.2061 -0.2822
 6339W        W 8539  20.562   0.670  24.771 -0.0568 -0.0950 -0.0582
 6340W        W 8540  11.557   5.209  10.463 -0.1919  0.0388  0.0001
 6341W        W 8541   9.564   3.637  22.336  0.0682  0.0498 -0.0298
 6342W        W 8542  17.678   4.864   4.289 -0.1489 -0.1960 -0.0912
 6343W        W 8543  15.450   6.825  21.246 -0.1956 -0.0418  0.2670
 6344W        W 8544  28.405   1.301  18.082  0.0598 -0.0226 -0.0945
 6345W        W 8545  11.468   1.565   5.360  0.1694  0.0944  0.1854
 6346W        W 8546  10.984   6.010  23.603  0.2362 -0.0364  0.1528
 6347W        W 8547   4.683   2.170  10.175 -0.1638 -0.0340 -0.1673
 6348W        W 8548  18.414   6.284  22.563  0.0905 -0.0935 -0.0056
 6349W        W 8549   0.119   7.115   6.606  0.1486 -0.0192  0.0358
 6350W        W 8550   9.821   2.827  22.552 -0.1087 -0.3351  0.0033
 6351W        W 8551  10.197   2.194   9.202 -0.0885  0.1209  0.2158
 6352W        W 8552   0.582   3.104   4.804 -0.0504  0.0074  0.0598
 6353W        W 8553   8.083   2.953  16.771  0.1803 -0.1618  0.1138
 6354W        W 8554   8.558   5.797  24.985 -0.0334 -0.1816  0.3342
 6355W        W 8555  13.210   6.531  24.728 -0.0672 -0.1895  0.0913
 6356W        W 8556  13.381   5.099  10.702 -0.0827  0.1067  0.1544
 6357W        W 8557  28.171   0.110   6.216  0.1081 -0.0228  0.2574
 6358W        W 8558  14.804   5.336   5.370  0.0929  0.2803  0.0353
 6359W        W 8559  16.720   6.073   6.691  0.2659 -0.2656 -0.0702
 6360W        W 8560   9.857   4.414  18.116  0.2953 -0.1132  0.0328
 6361W        W 8561   7.987   2.100  20.378 -0.4007  0.1909 -0.1754
 6362W        W 8562   9.291   4.548   5.797  0.2020  0.0725  0.3428
 6363W        W 8563   8.247   6.222  17.452  0.1021  0.0074  0.0636
 6364W        W 8564  12.799   7.371   4.876 -0.1997 -0.0415  0.1194
 6365W        W 8565   1.119   2.528   9.893 -0.0354  0.0358 -0.0883
 6366W        W 8566   4.956   4.683  21.020 -0.1289  0.0935 -0.4279
 6367W        W 8567   1.399   4.085   8.025  0.1707 -0.0277  0.1015
 6368W        W 8568  12.455   2.953   4.959  0.1641 -0.0156  0.1027
 6369W        W 8569   8.072   2.107  21.294 -0.0925  0.1288  0.2161
 6370W        W 8570   2.387   0.114   7.051 -0.2544  0.0470  0.1488
 6371W        W 8571  20.527   7.206   6.653 -0.0329  0.0107 -0.0986
 6372W        W 8572  13.506   0.618  24.679 -0.0680 -0.2763  0.1850
 6373W        W 8573  14.172   5.378   4.793  0.0222 -0.3354 -0.1262
 6374W        W 8574   3.363   0.837   1.679  0.1035  0.1177 -0.0132
 6375W        W 8575  11.097   0.011   3.699  0.1830  0.0219  0.2050
 6376W        W 8576   8.190   2.121  22.382  0.1487 -0.1508 -0.4052
 6377W        W 8577   4.751   7.400   5.458 -0.1993 -0.1063 -0.0178
 6378W        W 8578   9.342   2.999   2.142  0.0958  0.1154  0.1665
 6379W        W 8579   9.136   3.203  10.427 -0.2234  0.1309  0.1507
 6380W        W 8580  29.657   1.034   3.615 -0.2997  0.3312  0.1160
 6381W        W 8581  22.396   0.228   4.606  0.0587 -0.0488 -0.2070
 6382W        W 8582   6.852   3.516  25.064  0.2125  0.0543 -0.1393
 6383W        W 8583   8.603   7.568   9.446  0.1366  0.1601  0.0388
 6384W        W 8584   5.511   5.433  23.781 -0.2086 -0.0451  0.2489
 6385W        W 8585  28.025   7.636  10.139  0.0651 -0.0226 -0.0267
 6386W        W 8586  12.735   3.106  17.362 -0.0388  0.0011 -0.0604
 6387W        W 8587   2.225   1.473  15.857 -0.0377 -0.0719  0.0093
 6388W        W 8588  21.723   7.249  15.613  0.0555  0.0573  0.0709
 6389W        W 8589  15.417   0.386   8.593  0.2330 -0.0279  0.0050
 6390W        W 8590  21.268   7.628  20.214  0.0267 -0.2676  0.2660
 6391W        W 8591   1.825   0.084  17.395 -0.3209  0.0201  0.0669
 6392W        W 8592  10.935   3.546   5.876 -0.2938  0.0372  0.0655
 6393W        W 8593  26.251   7.619   6.790 -0.0959  0.0356 -0.3009
 6394W        W 8594  25.626   0.114  26.058  0.0842 -0.4663  0.4247
 6395W        W 8595  30.806   6.485  16.212  0.0307  0.1430 -0.2762
 6396W        W 8596   4.125   1.766   8.985  0.0719 -0.2454 -0.3336
 6397W        W 8597  16.589   3.457  17.769  0.0907 -0.0198 -0.2079
 6398W        W 8598  30.618   5.280   6.183 -0.1780 -0.1364 -0.1684
 6399W        W 8599  17.775   3.627  18.168  0.0752  0.0414 -0.2727
 6400W        W 8600  28.564   3.211  17.356 -0.0903 -0.1589  0.1303
 6401W        W 8601   4.501   1.243  18.352 -0.0336  0.2359 -0.1694
 6402W        W 8602   0.596   0.699   3.046 -0.2621 -0.1200 -0.0445
 6403W        W 8603  20.245   6.654  19.484  0.0898 -0.2759 -0.0011
 6404W        W 8604  24.870   4.676  19.064 -0.1340  0.0643  0.4087
 6405W        W 8605  26.392   0.237  24.538  0.2637 -0.1121  0.1002
 6406W        W 8606   0.884   5.716   0.437  0.0663 -0.0479 -0.2082
 6407W        W 8607  10.853   1.890  20.767  0.0559  0.0288  0.0575
 6408W        W 8608  24.958   5.417   3.957  0.1090  0.1715  0.1104
 6409W        W 8609   1.107   5.458   4.344 -0.2279 -0.0776 -0.1278
 6410W        W 8610  24.735   1.693  16.314 -0.1173 -0.0226 -0.0500
 6411W        W 8611  24.915   2.063   2.189  0.0790 -0.0960  0.1497
 6412W        W 8612  21.306   7.135  19.258 -0.1039 -0.1743 -0.1290
 6413W        W 8613  21.071   1.560   4.491  0.1321 -0.0623  0.2788
 6414W        W 8614   2.133   3.733  24.064  0.1058 -0.2286  0.2163
 6415W        W 8615  19.328   0.661  18.893  0.0142  0.2301 -0.1173
 6416W        W 8616  30.492   4.236   8.493 -0.0773 -0.3724 -0.0112
 6417W        W 8617   7.549   6.102  15.198  0.0342  0.0509 -0.0146
 6418W        W 8618  29.508   7.103  19.188 -0.2493  0.0234 -0.2107
 6419W        W 8619  28.663   4.469   7.722  0.0282 -0.1890  0.2539
 6420W        W 8620  14.560   6.815   0.802 -0.1422  0.0589 -0.0306
 6421W        W 8621  25.443   2.154  20.595 -0.2513 -0.1167  0.2683
 6422W        W 8622  11.622   4.515   5.062  0.2256 -0.2704  0.2115
 6423W        W 8623  26.394   7.250  17.911 -0.2515 -0.1405  0.0681
 6424W        W 8624  29.178   4.455   7.629  0.2504  0.0253  0.1878
 6425W        W 8625   7.392   6.720   4.978  0.1037  0.1670  0.0638
 6426W        W 8626  28.895   1.789   5.134  0.0149  0.2217 -0.2708
 6427W        W 8627   1.227   5.318   4.830 -0.1800  0.0474  0.1646
 6428W        W 8628  14.505   3.848   4.300  0.0506  0.0643  0.2132
 6429W        W 8629  11.452   3.970  24.373 -0.0143  0.3370 -0.1735
 6430W        W 8630  22.263   4.873  24.727  0.0731 -0.1394  0.2095
 6431W        W 8631  29.885   2.827  22.539  0.2664  0.0342  0.3394
 6432W        W 8632  12.628   1.507  10.232 -0.0131 -0.4226  0.0321
 6433W        W 8633   7.676   1.657   3.498  0.0706  0.0037 -0.1519
 6434W        W 8634  21.602   3.246  16.837 -0.5764  0.0998  0.1520
 6435W        W 8635   5.820   0.103   8.325  0.3011  0.0265  0.1637
 6436W        W 8636  24.016   4.254  16.175  0.0935 -0.0179 -0.1232
 6437W        W 8637   8.910   0.237  18.279 -0.1035  0.1258  0.2168
 6438W        W 8638   2.047   2.213   3.498 -0.0291 -0.1772 -0.2612
 6439W        W 8639  21.224   4.793  22.657  0.1338 -0.0447  0.2299
 6440W        W 8640  25.739   0.637  22.479  0.5363  0.1034  0.0096
 6441W        W 8641  30.493   0.167   4.035  0.1032 -0.2275  0.1109
 6442W        W 8642  27.658   7.384  11.099 -0.1588  0.0405 -0.2182
 6443W        W 8643   5.003   4.827   7.754  0.0243 -0.0420  0.0034
 6444W        W 8644  10.963   7.192   5.902 -0.1687 -0.2771 -0.0269
 6445W        W 8645  26.723   1.675  23.025 -0.1811 -0.1955  0.0725
 6446W        W 8646  27.903   6.409  20.135  0.2536  0.0763 -0.1070
 6447W        W 8647   5.569   5.199   7.171 -0.0514  0.2326 -0.0311
 6448W        W 8648   8.821   1.276   9.185 -0.2872  0.1402 -0.1019
 6449W        W 8649  27.844   2.861   4.258  0.1107 -0.1576  0.1479
 6450W        W 8650   0.240   0.957  19.070 -0.0795  0.0660  0.1557
 6451W        W 8651  18.246   7.689   3.004  0.1581 -0.1553 -0.0135
 6452W        W 8652   7.015   5.306   1.080 -0.0386  0.0662  0.3781
 6453W        W 8653  21.940   6.498   1.311  0.1350 -0.0843 -0.1814
 6454W        W 8654  26.507   3.223  16.242 -0.0317  0.0495  0.0854
 6455W        W 8655   8.879   4.784  24.640 -0.1207 -0.2258 -0.1346
 6456W        W 8656  17.975   7.538   6.090 -0.1286  0.2529  0.1234
 6457W        W 8657  28.590   5.237  22.441 -0.0700  0.2073  0.0047
 6458W        W 8658  30.983   1.958  16.304 -0.1520 -0.0347 -0.2974
 6459W        W 8659  26.392   0.859  17.263 -0.2997 -0.1326  0.1190
 6460W        W 8660  22.372   6.121  22.164  0.2365  0.1480  0.1112
 6461W        W 8661  17.696   0.886  19.395  0.0497  0.1323  0.2924
 6462W        W 8662   1.294   4.048   9.202 -0.0816 -0.2943  0.1047
 6463W        W 8663   2.052   5.109   9.865  0.0989 -0.0930  0.0809
 6464W        W 8664  13.216   7.487   0.057  0.2429  0.3355 -0.2488
 6465W        W 8665  26.466   2.452   5.372  0.3407  0.0582 -0.1179
 6466W        W 8666  31.072   4.252  24.336  0.0023  0.0692 -0.3153
 6467W        W 8667   8.633   3.926  20.645 -0.0259 -0.0954 -0.1193
 6468W        W 8668   5.030   7.071   7.882 -0.1504  0.0248 -0.2159
 6469W        W 8669  29.129   4.667   3.811 -0.2878 -0.0250  0.1877
 6470W        W 8670  10.166   4.566   8.654 -0.1987  0.1434  0.1183
 6471W        W 8671  19.213   0.598   3.328 -0.1520  0.1347 -0.0099
 6472W        W 8672   7.257   5.788  11.058  0.3049 -0.1329  0.0248
 6473W        W 8673   8.802   5.339   7.021 -0.0315 -0.1467  0.1343
 6474W        W 8674  11.383   4.806  17.062  0.0280 -0.3666  0.0474
 6475W        W 8675   7.799   5.940  17.845  0.4117 -0.1139 -0.1204
 6476W        W 8676   2.491   5.071   7.448  0.1049 -0.2820 -0.0118
 6477W        W 8677   2.711   3.190   1.785 -0.0246  0.1012  0.3339
 6478W        W 8678   0.867   1.209   8.962  0.2874 -0.1183 -0.2057
 6479W        W 8679  13.671   5.443   1.768  0.1103  0.0567 -0.3844
 6480W        W 8680  28.128   1.634  19.444  0.2455 -0.1669  0.2248
 6481W        W 8681   4.525   2.875  21.463  0.0232  0.1739  0.2699
 6482W        W 8682  20.247   5.201  18.160 -0.0106  0.0192  0.2374
 6483W        W 8683  10.234   6.672  20.403  0.0406  0.2117 -0.0640
 6484W        W 8684   8.614   3.553  16.858 -0.1976 -0.0513 -0.0783
 6485W        W 8685   8.966   6.572  10.302 -0.1682 -0.1817 -0.0031
 6486W        W 8686  10.381   2.688   4.849 -0.2512  0.2285 -0.0535
 6487W        W 8687  19.126   0.283  25.951 -0.1515 -0.0683 -0.3625
 6488W        W 8688  28.240   3.757  11.099  0.2164  0.0102 -0.0135
 6489W        W 8689  19.902   2.276   1.086 -0.0519  0.2774 -0.1622
 6490W        W 8690  26.033   6.049  25.566 -0.0246 -0.2240  0.0950
 6491W        W 8691  22.429   3.392  20.317 -0.0514 -0.2716 -0.4550
 6492W        W 8692   0.199   2.721  10.660 -0.1332  0.1765 -0.1354
 6493W        W 8693   8.593   6.673   2.004  0.0343  0.1046  0.0879
 6494W        W 8694  18.903   2.971   2.109 -0.0225  0.0253 -0.1391
 6495W        W 8695   2.852   5.014  22.823 -0.2534 -0.0829  0.0201
 6496W        W 8696  24.407   7.768  17.696 -0.1774  0.1703 -0.3663
 6497W        W 8697  12.131   6.043   9.585  0.2764  0.0480 -0.0598
 6498W        W 8698  25.183   6.713   7.090  0.2674 -0.2641 -0.1132
 6499W        W 8699   3.479   2.734  25.003  0.0083 -0.3184 -0.2061
 6500W        W 8700   4.263   2.760   1.341  0.1852 -0.4318  0.1693
 6501W        W 8701  28.563   0.375   3.343 -0.0093 -0.0056 -0.0781
 6502W        W 8702  28.480   0.099  25.625  0.2438 -0.1084  0.1498
 6503W        W 8703   2.752   7.235  16.510 -0.1425 -0.0899  0.5091
 6504W        W 8704   4.140   0.350  11.023 -0.1042  0.2449  0.0372
 6505W        W 8705   5.618   6.832   7.727  0.2545  0.0611 -0.0467
 6506W        W 8706  16.298   6.773  26.185  0.1724  0.0871 -0.1586
 6507W        W 8707   4.966   1.130  16.650  0.0285 -0.2033 -0.0429
 6508W        W 8708  28.302   0.004   2.393 -0.1407  0.1040 -0.0012
 6509W        W 8709   7.630   1.071  24.721  0.0197 -0.1092 -0.0365
 6510W        W 8710  15.037   4.680   9.364 -0.4735  0.2606  0.0780
 6511W        W 8711  27.527   5.613   7.190 -0.0658 -0.0461 -0.1949
 6512W        W 8712   5.743   4.206  19.522  0.0096 -0.1044 -0.0035
 6513W        W 8713  14.361   1.214   2.693  0.2500 -0.0220 -0.2287
 6514W        W 8714   3.339   6.693  17.241  0.2959  0.2430 -0.3184
 6515W        W 8715  22.707   3.827   9.506  0.0434  0.1060 -0.3878
 6516W        W 8716   6.757   0.937  18.101  0.0515  0.0822  0.3708
 6517W        W 8717  26.349   0.630  17.814  0.0317  0.0561  0.0561
 6518W        W 8718   4.532   7.206  18.177 -0.1863 -0.0773 -0.0470
 6519W        W 8719   9.940   2.287  15.697 -0.1803  0.2679  0.1368
 6520W        W 8720   4.952   7.418  10.076 -0.1769 -0.0217  0.1230
 6521W        W 8721   4.822   0.197   7.930 -0.2062  0.0236 -0.0995
 6522W        W 8722  17.984   6.670  16.830  0.0361 -0.0086 -0.2051
 6523W        W 8723   1.653   7.136  20.996  0.2224 -0.2090 -0.1498
 6524W        W 8724  26.885   6.814  17.671 -0.1640  0.3262  0.0099
 6525W        W 8725  23.745   3.715   0.145  0.0209 -0.0051 -0.0925
 6526W        W 8726  26.011   0.424  20.878 -0.1174  0.1031 -0.2730
 6527W        W 8727   3.880   5.171  21.786  0.0964 -0.0255 -0.0896
 6528W        W 8728  19.420   2.317  19.211  0.0916  0.0823 -0.1905
 6529W        W 8729   6.608   5.138   8.241  0.1316  0.0038 -0.4229
 6530W        W 8730  13.555   1.184  21.941 -0.1288 -0.0225  0.0081
 6531W        W 8731  29.342   5.989   4.676  0.1004 -0.1655  0.0701
 6532W        W 8732   2.948   7.334  11.295  0.0774  0.0149  0.3029
 6533W        W 8733  31.233   3.479  22.368 -0.1787  0.1502  0.0317
 6534W        W 8734  18.050   1.597  21.611 -0.1768  0.0043  0.1337
 6535W        W 8735   3.564   1.138  11.474  0.2625  0.2611 -0.2258
 6536W        W 8736  20.366   2.089  17.764  0.1581 -0.0319  0.2277
 6537W        W 8737  21.573   5.966   5.508 -0.2086  0.0404  0.3067
 6538W        W 8738   0.116   6.865  19.678  0.2196 -0.2978 -0.2819
 6539W        W 8739  22.191   4.334  24.011  0.2487 -0.2903  0.1060
 6540W        W 8740   9.552   6.239  16.504 -0.0116  0.1072 -0.1742
 6541W        W 8741   8.309   5.441   7.223  0.1143 -0.2078 -0.1823
 6542W        W 8742  10.152   2.478  16.086 -0.2021 -0.2534  0.1914
 6543W        W 8743  26.419   7.306   0.917  0.1799  0.0226  0.2539
 6544W        W 8744  23.671   4.105   2.237 -0.2106  0.0593 -0.0064
 6545W        W 8745  17.551   3.314  15.079 -0.1110 -0.1988  0.0198
 6546W        W 8746   5.197   7.102  23.733  0.1061  0.0697  0.4424
 6547W        W 8747  15.457   4.989  23.538  0.1555 -0.2558  0.0394
 6548W        W 8748   5.377   4.497  19.144  0.2245 -0.1116 -0.0692
 6549W        W 8749  25.128   7.600  18.567 -0.1187  0.0065  0.1206
 6550W        W 8750  23.902   5.945   7.130  0.1891  0.2165  0.0232
 6551W        W 8751   7.400   3.968  18.377 -0.1910  0.1280  0.0840
 6552W        W 8752  27.885   5.051  14.972 -0.0840  0.3451 -0.2026
 6553W        W 8753  25.122   1.384   9.391 -0.1310 -0.2573 -0.0893
 6554W        W 8754  19.082   0.596  21.832  0.1283  0.0026  0.3105
 6555W        W 8755  11.518   6.754   8.981  0.0126 -0.2195 -0.1036
 6556W        W 8756  25.936   7.346  22.510  0.1333 -0.0018  0.2535
 6557W        W 8757  18.210   5.555  25.490 -0.0618 -0.0891 -0.0659
 6558W        W 8758  16.731   6.714   4.987  0.0947 -0.0503 -0.1620
 6559W        W 8759  26.675   3.370  16.713  0.2739 -0.5541 -0.1466
 6560W        W 8760  25.270   5.763  20.447 -0.0571 -0.4113 -0.0852
 6561W        W 8761  27.557   5.883  23.159  0.0100 -0.0165  0.2275
 6562W        W 8762  23.064   5.075  23.947  0.0237 -0.0761  0.2543
 6563W        W 8763   5.365   3.439   0.412 -0.1637  0.1398 -0.4218
 6564W        W 8764   4.211   1.507  17.828 -0.0280  0.0713 -0.3687
 6565W        W 8765   8.639   2.808  10.971  0.1248 -0.2044 -0.0043
 6566W        W 8766   2.378   1.568   0.542 -0.0464 -0.2724  0.1849
 6567W        W 8767  31.057   5.219   8.392  0.1470  0.3366  0.2200
 6568W        W 8768  19.992   5.111   9.954 -0.0690  0.1732  0.0807
 6569W        W 8769  22.204   4.713   4.002 -0.1686 -0.1004  0.3152
 6570W        W 8770   7.646   5.756  17.183 -0.0745 -0.0687  0.1051
 6571W        W 8771  10.726   5.619  15.228 -0.2637  0.1368 -0.2216
 6572W        W 8772  14.611   1.575   8.657 -0.1344 -0.0162 -0.0488
 6573W        W 8773  12.081   4.285   1.114  0.0812  0.3173  0.0220
 6574W        W 8774  18.283   3.598  23.656  0.0372  0.1367  0.1963
 6575W        W 8775   1.122   2.550   0.522  0.2439 -0.1400  0.3015
 6576W        W 8776   9.955   6.293   9.102  0.0224 -0.2808  0.2053
 6577W        W 8777   6.370   7.340  20.121 -0.2361  0.1552  0.3319
 6578W        W 8778  15.259   5.216   6.810  0.0177 -0.0032  0.2361
 6579W        W 8779  20.956   6.621   4.074  0.2107 -0.1878  0.1552
 6580W        W 8780   8.620   2.959   8.472 -0.0917  0.2327  0.0594
 6581W        W 8781   2.082   3.285   3.265 -0.2161  0.0445 -0.0760
 6582W        W 8782   3.991   4.627   3.735  0.0550 -0.3864  0.2077
 6583W        W 8783  13.416   5.644  23.825  0.0632  0.1551  0.0633
 6584W        W 8784  29.002   2.881  18.419 -0.2102 -0.2513  0.0068
 6585W        W 8785  17.381   1.794  23.343  0.0670  0.0016 -0.3160
 6586W        W 8786   8.669   3.911  22.351 -0.0711 -0.3865 -0.1664
 6587W        W 8787  22.092   0.608  19.395 -0.0585 -0.0732 -0.1409
 6588W        W 8788  26.867   0.879  19.729 -0.4136  0.5324 -0.0122
 6589W        W 8789  18.418   2.735  25.595  0.3243 -0.2553 -0.4360
 6590W        W 8790  16.983   3.383   7.905  0.1059  0.1130 -0.0315
 6591W        W 8791  11.320   3.744  10.155 -0.1168  0.0512  0.0427
 6592W        W 8792   9.133   7.810  19.378 -0.4598 -0.0897  0.0604
 6593W        W 8793   4.002   4.378   6.865 -0.2112  0.3018  0.0991
 6594W        W 8794   2.703   0.211  21.583  0.3042 -0.0320  0.0664
 6595W        W 8795  26.023   0.574   2.451  0.2804  0.1498 -0.3199
 6596W        W 8796  22.093   0.622   0.700  0.0629 -0.2542 -0.0769
 6597W        W 8797  21.110   5.023   5.068  0.0353 -0.0834  0.1277
 6598W        W 8798  14.925   4.575   4.165  0.1432  0.0876  0.0513
 6599W        W 8799   4.709   4.360   5.059 -0.0165 -0.1183 -0.1495
 6600W        W 8800   0.630   0.973   6.364 -0.0880  0.0409  0.1141
 6601W        W 8801   2.719   1.120  24.629  0.0386  0.0105 -0.1518
 6602W        W 8802  15.592   7.020  22.868  0.1046  0.1584  0.1086
 6603W        W 8803  14.745   4.603  20.390 -0.0340  0.0159  0.0646
 6604W        W 8804   8.439   7.536   7.842 -0.1223 -0.1003  0.3922
 6605W        W 8805  10.291   2.467   2.407  0.0265  0.1502 -0.2076
 6606W        W 8806  21.859   1.051   4.735  0.1060  0.2162  0.1628
 6607W        W 8807  20.810   4.925  22.402  0.0711 -0.0336  0.1773
 6608W        W 8808  30.331   0.121   7.836  0.2037  0.3338  0.1315
 6609W        W 8809  21.273   0.237   9.831  0.0326 -0.0699  0.0984
 6610W        W 8810  13.825   6.211   0.073  0.3210 -0.1527  0.0487
 6611W        W 8811  30.339   4.952   1.286 -0.1539 -0.0367  0.1346
 6612W        W 8812  17.667   1.437  17.887 -0.1037  0.1697 -0.0961
 6613W        W 8813  20.786   6.463  26.128  0.1631  0.0057 -0.1466
 6614W        W 8814  18.764   5.384  20.712 -0.1436  0.2161  0.2061
 6615W        W 8815  11.061   4.074  22.102  0.3115  0.2163 -0.0307
 6616W        W 8816  30.596   3.445   5.216 -0.0840  0.0209  0.1557
 6617W        W 8817  25.142   0.700   6.999  0.1478 -0.0436  0.0136
 6618W        W 8818   5.566   3.146   0.998  0.0779 -0.1751 -0.0641
 6619W        W 8819  12.277   4.338  11.195  0.1697 -0.0831 -0.0320
 6620W        W 8820  27.514   4.986  16.837  0.1051 -0.2474  0.1357
 6621W        W 8821  19.665   7.456  19.877  0.1083 -0.0631  0.0137
 6622W        W 8822  27.604   7.060  14.840 -0.3211  0.1021  0.2224
 6623W        W 8823  24.361   4.910  23.096  0.1526  0.1562  0.0217
 6624W        W 8824  16.813   1.122   3.297  0.1460  0.3003  0.0062
 6625W        W 8825  11.816   7.596   3.316  0.0571  0.2252  0.0682
 6626W        W 8826  17.922   1.479  18.440 -0.0940  0.1994  0.2822
 6627W        W 8827  30.265   5.558   4.367  0.1939  0.2161 -0.0641
 6628W        W 8828   1.536   4.425  20.172  0.1671  0.1898 -0.2496
 6629W        W 8829   2.409   5.393  25.349 -0.1413  0.3702  0.0384
 6630W        W 8830   6.940   6.674   2.090 -0.0241  0.0561 -0.3838
 6631W        W 8831   2.282   5.236  17.569  0.0932 -0.3246  0.2804
 6632W        W 8832   8.716   0.414   1.695 -0.1404  0.1469  0.3061
 6633W        W 8833   0.789   6.945  16.568  0.1873  0.2198  0.0717
 6634W        W 8834  25.591   0.752   1.271 -0.0163 -0.0176 -0.2292
 6635W        W 8835  28.831   2.343  17.775  0.0665 -0.2457  0.0592
 6636W        W 8836  15.007   4.898  20.123  0.1517 -0.0660  0.1050
 6637W        W 8837   4.005   6.552  23.548  0.0455  0.0899 -0.1328
 6638W        W 8838  10.214   5.786   9.529 -0.0427  0.0519  0.1983
 6639W        W 8839  27.062   1.989  16.855  0.1825 -0.0698 -0.2260
 6640W        W 8840  11.751   4.171  19.853  0.0979 -0.0616  0.0002
 6641W        W 8841   9.054   6.565   1.438 -0.2216  0.2212 -0.0330
 6642W        W 8842   7.957   5.412  23.590 -0.1700  0.0596 -0.0075
 6643W        W 8843   0.970   1.004  22.325 -0.1716  0.1768  0.1857
 6644W        W 8844  24.489   7.345   0.184 -0.0602 -0.1517  0.1582
 6645W        W 8845  28.070   3.893   5.682 -0.2143 -0.0192 -0.2424
 6646W        W 8846  29.266   2.858   5.806 -0.1400 -0.2246 -0.0433
 6647W        W 8847  23.607   3.829  19.125 -0.1248 -0.1812 -0.1174
 6648W        W 8848  31.053   2.515  24.389 -0.0454 -0.1875  0.1213
 6649W        W 8849   9.864   5.176   4.134  0.0961  0.0907  0.2441
 6650W        W 8850  11.866   4.930   3.502  0.6262  0.0088  0.2124
 6651W        W 8851  15.036   7.118  23.347  0.1159  0.1429  0.0528
 6652W        W 8852  22.590   1.494  15.919 -0.4949 -0.1479 -0.1419
 6653W        W 8853  15.898   7.488  24.064 -0.0710  0.0792  0.1989
 6654W        W 8854  18.313   6.781  20.463 -0.3031  0.0951 -0.2716
 6655W        W 8855  19.085   7.177  22.457 -0.1202  0.1825 -0.1362
 6656W        W 8856   3.183   1.389  25.531 -0.3567  0.0143  0.2207
 6657W        W 8857  17.365   1.538   9.531 -0.0773 -0.1428 -0.1494
 6658W        W 8858   5.542   5.814  20.042 -0.0475  0.2107 -0.0981
 6659W        W 8859  13.396   6.658   9.839 -0.2385 -0.0154 -0.2987
 6660W        W 8860  13.474   3.289   8.958 -0.2407  0.1682 -0.2616
 6661W        W 8861  19.839   0.269  23.361  0.1879  0.0287 -0.0539
 6662W        W 8862  10.454   1.088   6.263 -0.5045  0.0147  0.0705
 6663W        W 8863   8.941   1.123   8.729 -0.0877 -0.0098 -0.0596
 6664W        W 8864  24.880   5.305   3.044 -0.1916  0.1242  0.0831
 6665W        W 8865   6.562   5.488   5.875 -0.0000  0.2583  0.0041
 6666W        W 8866  19.404   0.968  18.027 -0.0192 -0.0841 -0.2205
 6667W        W 8867  14.920   3.937   2.950 -0.0745 -0.3357 -0.1872
 6668W        W 8868   8.713   4.784   0.753 -0.0807  0.1140 -0.2565
 6669W        W 8869  30.327   6.964   5.013 -0.0060  0.1248  0.1568
 6670W        W 8870  16.632   6.029  20.486 -0.0604 -0.2633  0.0854
 6671W        W 8871  21.612   5.616   1.247  0.2271  0.2327  0.1779
 6672W        W 8872  14.067   4.410  15.091 -0.0765  0.1804 -0.2753
 6673W        W 8873  24.537   7.686   8.937  0.0962 -0.0201  0.1270
 6674W        W 8874  29.288   5.837  17.790 -0.0639 -0.1510  0.2592
 6675W        W 8875  18.795   6.286   9.249 -0.0558 -0.0532 -0.0285
 6676W        W 8876  12.983   7.386  23.357 -0.2422  0.0456 -0.1952
 6677W        W 8877   0.108   4.730   7.365 -0.5766  0.0517 -0.0083
 6678W        W 8878  23.387   3.823  22.127 -0.0026 -0.1074  0.2823
 6679W        W 8879  13.380   2.917  15.470  0.1824  0.0544 -0.1226
 6680W        W 8880  29.752   7.766   2.489 -0.0225  0.2316  0.1544
 6681W        W 8881  10.745   1.219  15.267  0.0654  0.0813  0.0806
 6682W        W 8882  18.040   7.001  18.535  0.1643  0.0886 -0.1492
 6683W        W 8883   0.753   6.538  16.913 -0.4136  0.0646 -0.2730
 6684W        W 8884   8.423   5.171   2.446 -0.4480  0.1664  0.0562
 6685W        W 8885  24.697   3.065   5.387 -0.0900 -0.1882  0.1723
 6686W        W 8886   4.411   7.460   0.124 -0.0335 -0.2008  0.1638
 6687W        W 8887   4.949   5.670  24.568  0.1991 -0.1292 -0.5909
 6688W        W 8888   8.236   7.171   7.329 -0.0462 -0.1248  0.1121
 6689W        W 8889  23.364   1.372   3.901  0.0091  0.0940  0.1167
 6690W        W 8890   5.878   1.929   2.639  0.2096  0.2505  0.0205
 6691W        W 8891   5.688   7.670   0.042  0.0713 -0.0255  0.2018
 6692W        W 8892  27.422   1.440   8.965 -0.0042 -0.1394 -0.1928
 6693W        W 8893  16.332   5.997   3.135 -0.0033  0.1170 -0.0003
 6694W        W 8894   8.898   0.265  17.450  0.1023 -0.0812  0.0884
 6695W        W 8895  23.670   0.933   8.567  0.0324  0.1852 -0.3430
 6696W        W 8896   7.297   1.810   8.324  0.1267 -0.0094  0.1571
 6697W        W 8897  17.812   5.689   7.348 -0.0083  0.0214  0.2226
 6698W        W 8898  23.834   7.769   4.338  0.0435 -0.0551 -0.3844
 6699W        W 8899  10.174   1.433   4.552 -0.0638 -0.0260 -0.0048
 6700W        W 8900  20.889   6.895   4.762  0.0756 -0.0871 -0.1950
 6701W        W 8901   1.675   1.176  17.065 -0.4084 -0.1068  0.1068
 6702W        W 8902  10.519   2.061  26.157 -0.3214 -0.0201 -0.2859
 6703W        W 8903  28.688   5.174   8.691  0.0603 -0.2939 -0.1118
 6704W        W 8904  11.617   3.947   0.558  0.0315  0.2658  0.0306
 6705W        W 8905  16.028   3.864   1.788  0.2559  0.0971  0.0089
 6706W        W 8906  17.872   2.068  16.161 -0.0943 -0.0122 -0.0999
 6707W        W 8907   5.316   7.486  17.785  0.0171  0.0608  0.3714
 6708W        W 8908   6.313   0.840   6.259  0.0967 -0.0841 -0.0914
 6709W        W 8909  24.053   7.233   9.372  0.0107  0.0118  0.1258
 6710W        W 8910  14.985   2.007   6.387 -0.0474 -0.3155  0.1473
 6711W        W 8911   4.556   0.142  21.370  0.1277 -0.1679  0.1120
 6712W        W 8912  11.105   6.798  19.901 -0.0624  0.0150 -0.0578
 6713W        W 8913  11.828   2.939   6.319 -0.1089  0.4834 -0.1243
 6714W        W 8914   9.182   5.284   7.340 -0.0454  0.0491 -0.1982
 6715W        W 8915   5.364   4.134   2.360  0.2114  0.0394  0.0599
 6716W        W 8916  26.726   3.145   2.040 -0.0648  0.1640 -0.0828
 6717W        W 8917   7.812   5.773  22.591  0.0787 -0.2565  0.1085
 6718W        W 8918  23.727   7.120  17.639 -0.0028 -0.2975  0.2855
 6719W        W 8919  15.327   2.775   7.317  0.1245  0.0626  0.0792
 6720W        W 8920  29.473   7.593  17.013  0.0110  0.1528  0.0917
 6721W        W 8921  23.669   0.404   9.918  0.1388 -0.2791  0.1045
 6722W        W 8922  15.469   4.300  10.619  0.1691  0.2725  0.1007
 6723W        W 8923  18.466   5.813  14.369  0.0942  0.0396  0.0290
 6724W        W 8924   8.069   5.878   5.142 -0.0224 -0.0835 -0.1062
 6725W        W 8925  16.857   3.508   6.661  0.0399 -0.1096  0.0183
 6726W        W 8926  30.658   3.972  16.425  0.3011  0.2354 -0.1028
 6727W        W 8927  15.717   6.876  10.159 -0.0381 -0.0324  0.2031
 6728W        W 8928   6.886   0.315  10.553  0.0634 -0.0325 -0.0758
 6729W        W 8929   1.871   2.936   1.478 -0.5035  0.0477  0.1621
 6730W        W 8930  14.412   1.754  16.848  0.0381 -0.0587 -0.0612
 6731W        W 8931   5.671   2.216   4.560  0.1514  0.0678 -0.2736
 6732W        W 8932   3.050   3.347  22.746  0.0075 -0.0588  0.0305
 6733W        W 8933  13.666   3.258  23.500  0.0860  0.2342 -0.1714
 6734W        W 8934   3.601   7.491  16.375  0.3695  0.3519  0.2278
 6735W        W 8935   4.610   3.368   7.399  0.1100 -0.3737 -0.0093
 6736W        W 8936  28.581   7.445  18.166  0.0548  0.1618 -0.1822
 6737W        W 8937  12.892   3.706   4.406 -0.4424  0.0807 -0.1653
 6738W        W 8938  11.247   5.081  15.663 -0.0835  0.0756 -0.0801
 6739W        W 8939   9.820   0.355  23.231  0.1718 -0.1133  0.3277
 6740W        W 8940   0.623   0.181   7.087 -0.0658  0.0448  0.0305
 6741W        W 8941  25.846   2.140  24.186 -0.2183  0.0318  0.0747
 6742W        W 8942   9.950   2.967  25.742 -0.1800  0.0615 -0.1437
 6743W        W 8943   6.070   4.563   8.952 -0.0615  0.0415  0.3147
 6744W        W 8944   2.752   2.190  25.093  0.1188 -0.2118  0.2587
 6745W        W 8945  21.383   4.166  22.106  0.1482 -0.1509  0.2293
 6746W        W 8946  21.101   1.817  10.186  0.0348 -0.0230 -0.0545
 6747W        W 8947  14.402   3.087  25.129 -0.0911  0.0721  0.3399
 6748W        W 8948  21.100   0.840  24.586  0.0575 -0.2314  0.1814
 6749W        W 8949   5.421   0.303   6.374  0.2680  0.0132  0.0079
 6750W        W 8950   4.674   5.076  10.203 -0.0369  0.0019  0.1032
 6751W        W 8951  29.158   1.780  15.026  0.2252  0.1419  0.0354
 6752W        W 8952  12.004   1.864   9.575 -0.2311  0.0784  0.2236
 6753W        W 8953   5.976   2.776  15.927 -0.1589  0.0389 -0.3020
 6754W        W 8954   1.482   7.392   8.297  0.0409  0.0613 -0.1499
 6755W        W 8955  30.417   5.957   3.198  0.3808 -0.2312  0.0224
 6756W        W 8956  23.320   1.567  18.004 -0.2250 -0.0472  0.1996
 6757W        W 8957  22.503   3.817   8.730  0.1360  0.4235 -0.3904
 6758W        W 8958  30.048   7.477  21.974  0.1009 -0.1660  0.1005
 6759W        W 8959   1.076   1.070   1.453 -0.1815 -0.1085 -0.1150
 6760W        W 8960  20.456   2.744   1.646 -0.0837 -0.2938 -0.0129
 6761W        W 8961   7.080   3.718  20.555  0.1235 -0.0212  0.0177
 6762W        W 8962   2.297   2.376  25.121  0.2480 -0.0441  0.4729
 6763W        W 8963  13.681   2.749  20.030 -0.3210  0.3823 -0.0426
 6764W        W 8964   9.414   7.015  22.160  0.1834 -0.0643 -0.0170
 6765W        W 8965  29.905   0.523  18.718 -0.0435 -0.1462  0.0478
 6766W        W 8966   6.605   3.374   0.353  0.2762  0.0061  0.1631
 6767W        W 8967  21.425   1.638   3.138 -0.3617  0.0168 -0.0685
 6768W        W 8968  20.788   1.352  16.739  0.1003  0.1364 -0.1366
 6769W        W 8969  31.100   4.180  16.288 -0.1830 -0.1417  0.1355
 6770W        W 8970  15.578   7.641   4.772  0.1458 -0.0420 -0.0058
 6771W        W 8971  17.093   6.977  16.300  0.0356 -0.0196 -0.2211
 6772W        W 8972  30.650   7.199  10.421  0.1753 -0.0139  0.0847
 6773W        W 8973  10.063   7.604   9.494 -0.1469  0.1578 -0.2349
 6774W        W 8974  19.255   5.762   0.809  0.0512 -0.2708  0.1279
 6775W        W 8975  27.116   7.620  15.317  0.0251  0.0571 -0.0532
 6776W        W 8976  29.474   6.254   5.097  0.1084  0.1416 -0.0759
 6777W        W 8977  26.377   6.441  22.235  0.1172  0.0711  0.0133
 6778W        W 8978   7.650   0.337   2.869 -0.0885  0.2569  0.0462
 6779W        W 8979  21.849   1.967  20.346  0.1823  0.2500 -0.0341
 6780W        W 8980   2.457   6.695  18.403 -0.1329 -0.0157  0.0333
 6781W        W 8981  22.458   4.343  22.120 -0.2525 -0.0089  0.0218
 6782W        W 8982  16.121   4.920  21.313  0.0515  0.0980 -0.1160
 6783W        W 8983  12.148   0.841  20.907  0.2325  0.1106  0.0933
 6784W        W 8984   6.882   3.078   5.113 -0.1995 -0.1882 -0.1919
 6785W        W 8985  22.263   7.080   9.165 -0.0317  0.2966 -0.1275
 6786W        W 8986   5.763   5.006   9.011 -0.1314  0.0274  0.0022
 6787W        W 8987  24.679   6.235  22.279 -0.0975  0.0088  0.1221
 6788W        W 8988   8.970   0.051  10.283  0.2901  0.2973 -0.2779
 6789W        W 8989  27.139   6.113  18.163 -0.3046  0.0384  0.0270
 6790W        W 8990  22.821   2.410  17.084 -0.0465  0.1898  0.1252
 6791W        W 8991  24.803   7.158   2.628 -0.3751 -0.1843 -0.0817
 6792W        W 8992  10.379   2.678   4.330  0.1764 -0.1793 -0.0426
 6793W        W 8993   0.311   4.571   5.192  0.3767 -0.1834 -0.3329
 6794W        W 8994   9.702   7.699  18.691 -0.1965 -0.0744 -0.2457
 6795W        W 8995  26.901   0.379   7.098 -0.1355 -0.0199  0.2380
 6796W        W 8996  13.974   1.143  23.325  0.1300 -0.1444 -0.0795
 6797W        W 8997  14.086   4.985  19.733  0.0020 -0.2387 -0.0961
 6798W        W 8998  13.974   2.754  17.629  0.2193 -0.1951 -0.2126
 6799W        W 8999   2.977   5.603  24.467  0.1358 -0.2835  0.0235
 6800W        W 9000   3.614   1.150  21.962 -0.0465 -0.0383  0.1190
 6801W        W 9001  29.072   7.435   4.815 -0.1842  0.0578  0.2343
 6802W        W 9002  15.887   7.792  20.602  0.0924 -0.1862  0.0667
 6803W        W 9003  19.745   2.217   9.916  0.1992 -0.1249  0.0726
 6804W        W 9004   4.412   1.147   0.898  0.0061 -0.1228  0.0524
 6805W        W 9005  26.976   6.915  25.426  0.0073 -0.1517  0.1781
 6806W        W 9006  12.156   1.342   0.910  0.3229  0.1803 -0.0174
 6807W        W 9007  31.297   2.407   5.592 -0.0554  0.1790  0.1296
 6808W        W 9008  20.589   1.906  16.959 -0.0810 -0.3220  0.1985
 6809W        W 9009   4.066   1.310  10.392  0.0302 -0.2912  0.1140
 6810W        W 9010  23.941   2.727  23.920  0.1450 -0.0405 -0.0821
 6811W        W 9011   8.641   4.169   9.254 -0.0599 -0.1492  0.0917
 6812W        W 9012   5.343   0.957  10.696  0.1797  0.1894 -0.0746
 6813W        W 9013   4.437   0.253   1.338  0.1484 -0.0612 -0.2699
 6814W        W 9014   5.452   5.638   1.346  0.1159 -0.1440  0.1133
 6815W        W 9015  22.323   3.127   5.800  0.0107 -0.1904  0.1581
 6816W        W 9016  24.162   7.495  20.857 -0.3955  0.1010 -0.0723
 6817W        W 9017  26.840   2.254  23.795 -0.0074 -0.0960 -0.0899
 6818W        W 9018  16.760   3.421   3.927 -0.0055 -0.0438 -0.2603
 6819W        W 9019   1.772   2.248   3.962 -0.1120  0.3210 -0.0308
 6820W        W 9020  23.600   5.376   1.876 -0.0584 -0.0501 -0.0131
 6821W        W 9021  30.423   1.178   5.666  0.2708 -0.2113 -0.1011
 6822W        W 9022  13.417   5.922   0.123  0.2898  0.2892  0.1319
 6823W        W 9023   1.940   6.329   7.063 -0.0652 -0.0006  0.3051
 6824W        W 9024  15.501   5.501   5.035  0.1821  0.1791  0.0135
 6825W        W 9025  13.071   6.826   5.593  0.0750  0.0822 -0.0905
 6826W        W 9026  25.443   2.491  23.987  0.0647  0.1714 -0.3181
 6827W        W 9027  21.024   6.083  23.996  0.2102  0.0921 -0.4449
 6828W        W 9028  18.497   3.516  21.472 -0.1023  0.0482 -0.2548
 6829W        W 9029  25.916   4.356  22.678 -0.0345  0.1026 -0.0601
 6830W        W 9030  10.881   6.779   8.104  0.2599 -0.0549 -0.0709
 6831W        W 9031  13.091   4.230  16.149  0.2869  0.1649  0.0067
 6832W        W 9032  12.222   3.938   2.551  0.0178 -0.0689  0.1854
 6833W        W 9033  17.210   4.308  22.045 -0.1011  0.3591 -0.0144
 6834W        W 9034  29.525   7.719   9.975  0.3437 -0.0519  0.0588
 6835W        W 9035   3.807   4.314  23.420 -0.0894 -0.2153 -0.2293
 6836W        W 9036   0.974   4.721  22.867 -0.0782  0.1391 -0.1020
 6837W        W 9037  13.680   4.921  22.799  0.0788 -0.3953  0.0515
 6838W        W 9038  27.881   5.824  24.915 -0.1315 -0.1322 -0.0342
 6839W        W 9039  15.256   6.670   9.637 -0.0643  0.0054 -0.0434
 6840W        W 9040  17.443   7.515   0.450 -0.2623  0.0686  0.2217
 6841W        W 9041   5.669   5.945   8.195 -0.2877 -0.0608  0.0196
 6842W        W 9042   9.537   1.169   5.096  0.1255 -0.3551  0.0739
 6843W        W 9043  29.499   5.527   6.825  0.2893 -0.0758  0.1945
 6844W        W 9044  29.361   3.156  22.095 -0.1749 -0.2776  0.0549
 6845W        W 9045  22.009   6.218  10.547  0.0936 -0.2194 -0.0290
 6846W        W 9046  12.239   0.164   7.689 -0.3350  0.2424  0.3597
 6847W        W 9047   8.295   5.964  17.891 -0.0781 -0.1124 -0.1717
 6848W        W 9048  12.092   1.733   7.409 -0.1563  0.1683 -0.0177
 6849W        W 9049   2.936   0.604  11.709 -0.1738 -0.0529 -0.1774
 6850W        W 9050  18.226   7.051   0.068 -0.0946  0.1455 -0.1396
 6851W        W 9051  28.557   4.052   4.900 -0.0439  0.0004 -0.1763
 6852W        W 9052   0.257   4.947  11.934  0.1408  0.0036  0.0454
 6853W        W 9053   4.476   6.400  24.427  0.1680 -0.0496 -0.2741
 6854W        W 9054  26.429   0.243  10.351  0.0773 -0.0135  0.2682
 6855W        W 9055  10.952   7.310  22.769 -0.4402  0.3611  0.2754
 6856W        W 9056  19.113   4.959  10.347  0.0153 -0.1013  0.0202
 6857W        W 9057   2.676   3.122  24.667 -0.0432  0.0555 -0.0364
 6858W        W 9058   2.631   2.712   7.776 -0.1209 -0.0409 -0.0017
 6859W        W 9059   8.785   0.488  17.863  0.0232 -0.0774  0.1362
 6860W        W 9060  21.788   6.155   7.764  0.1688 -0.0524  0.1522
 6861W        W 9061  20.140   2.962   7.152 -0.1659 -0.4232  0.2762
 6862W        W 9062  18.566   1.999   5.188 -0.0029  0.0516 -0.0802
 6863W        W 9063  30.075   4.201  22.698  0.0423 -0.0296 -0.1311
 6864W        W 9064  19.680   3.305   5.269 -0.1325 -0.1581  0.2352
 6865W        W 9065   6.389   5.792  22.258  0.1541  0.1620  0.1925
 6866W        W 9066   9.038   3.238  23.350  0.1010 -0.0105  0.1260
 6867W        W 9067  26.979   0.298  20.077  0.1227 -0.1787  0.2148
 6868W        W 9068   4.526   1.806  18.104 -0.0342  0.0576 -0.3622
 6869W        W 9069  20.049   0.217   7.665 -0.0471 -0.2101  0.0644
 6870W        W 9070  18.022   0.086   7.021 -0.3363 -0.6692  0.0029
 6871W        W 9071   9.867   2.651  10.573  0.0984  0.0699 -0.0121
 6872W        W 9072  22.487   7.680  22.033  0.1460  0.1013 -0.0489
 6873W        W 9073  27.125   6.162  23.731  0.2354  0.1292  0.1991
 6874W        W 9074   9.972   0.765  22.877  0.1042  0.0495  0.1021
 6875W        W 9075   9.087   0.335   3.717 -0.0860 -0.1079 -0.1052
 6876W        W 9076   6.426   7.660   5.600 -0.0964 -0.0786  0.0632
 6877W        W 9077  20.542   5.222  18.527  0.0161 -0.4095  0.0226
 6878W        W 9078  21.965   3.246  25.863 -0.2107 -0.0938 -0.1217
 6879W        W 9079  12.909   1.642   2.675  0.5257 -0.0666  0.1242
 6880W        W 9080  22.385   6.511   2.237  0.3096  0.0493  0.0852
 6881W        W 9081  25.856   6.296  21.312 -0.0009  0.1726  0.1694
 6882W        W 9082   9.237   3.220  19.172  0.4471 -0.1139  0.1829
 6883W        W 9083  12.759   1.214   9.367 -0.0284  0.0910  0.0778
 6884W        W 9084  27.313   0.927  16.960  0.2732 -0.0614 -0.1950
 6885W        W 9085  24.758   0.073  22.462 -0.0238  0.1985  0.5245
 6886W        W 9086  16.260   1.808  18.724 -0.0341  0.1768 -0.2434
 6887W        W 9087  15.260   6.341  24.010 -0.0013  0.0200  0.1681
 6888W        W 9088   3.922   1.655  24.686 -0.1257  0.0458  0.2771
 6889W        W 9089  21.655   4.272  18.373 -0.0459 -0.1242  0.1113
 6890W        W 9090  17.826   7.778  25.673 -0.2832  0.1403  0.1477
 6891W        W 9091  19.348   4.187   4.389 -0.2965  0.2048 -0.0615
 6892W        W 9092  27.233   0.198   0.375  0.0387 -0.0168 -0.0789
 6893W        W 9093   6.549   4.445   9.217  0.3377  0.0831  0.0396
 6894W        W 9094   1.086   6.918   9.241 -0.2022  0.0528 -0.1050
 6895W        W 9095  26.209   2.087   8.818 -0.0529 -0.1865  0.2512
 6896W        W 9096  19.315   7.651   3.195  0.1583 -0.2246  0.1002
 6897W        W 9097  28.152   6.763  23.588  0.1053  0.1308 -0.3034
 6898W        W 9098  15.069   3.675   1.428 -0.0869 -0.1165 -0.1039
 6899W        W 9099   3.335   7.332   6.647 -0.2440  0.0717 -0.2354
 6900W        W 9100  23.925   6.878  10.344 -0.1730  0.2210 -0.1649
 6901W        W 9101   2.888   1.417  25.939 -0.0933 -0.0200 -0.0520
 6902W        W 9102  24.956   2.051  20.402  0.3160 -0.1462 -0.2986
 6903W        W 9103  12.112   5.580   7.770  0.0918 -0.0791 -0.0977
 6904W        W 9104   6.168   7.478   9.529 -0.0887 -0.0102 -0.1593
 6905W        W 9105  24.531   3.949   8.932  0.0245  0.2257  0.3649
 6906W        W 9106  22.919   1.888   2.259 -0.3587 -0.3129 -0.0076
 6907W        W 9107   8.781   0.150  19.009  0.2372 -0.2030 -0.0667
 6908W        W 9108  25.734   4.212  20.313 -0.2276 -0.0721  0.2281
 6909W        W 9109   3.865   7.728  11.179  0.1722 -0.3011 -0.0847
 6910W        W 9110   2.818   7.423   0.742 -0.1729  0.3093  0.0523
 6911W        W 9111  21.228   1.932  15.347  0.1507  0.0127  0.2511
 6912W        W 9112  10.966   3.960  24.541  0.1629  0.0393  0.2754
 6913W        W 9113  11.619   5.639   4.268 -0.2439  0.2024  0.0319
 6914W        W 9114  15.321   2.114   4.183  0.3664  0.2106  0.0518
 6915W        W 9115  27.182   2.077   7.605 -0.1589 -0.2190  0.2258
 6916W        W 9116  25.261   5.509  16.040  0.1476 -0.3191 -0.1022
 6917W        W 9117  20.583   3.656   6.047 -0.0739 -0.1528  0.2503
 6918W        W 9118   3.239   5.645  16.751 -0.0015  0.1875 -0.3215
 6919W        W 9119  13.467   1.800  19.622 -0.4002 -0.0830  0.1401
 6920W        W 9120  20.861   3.926  16.984  0.0800 -0.0613 -0.1910
 6921W        W 9121  13.591   6.770   0.987 -0.3242  0.0918 -0.1819
 6922W        W 9122   8.589   2.823  15.762 -0.1939 -0.5564 -0.0953
 6923W        W 9123   5.259   4.004  16.650  0.1116 -0.0959  0.0516
 6924W        W 9124  10.283   6.626   5.858  0.1892 -0.0138 -0.1343
 6925W        W 9125   6.015   1.400   1.069  0.0880 -0.1014 -0.0350
 6926W        W 9126  11.786   7.463   0.988  0.0262  0.3273  0.2055
 6927W        W 9127  10.761   0.322   6.465  0.0396 -0.0071 -0.0288
 6928W        W 9128  30.219   1.330   8.571  0.0123  0.1079 -0.1533
 6929W        W 9129  19.116   6.559   2.747  0.0778 -0.1375 -0.0064
 6930W        W 9130   3.812   7.053  23.567  0.1406 -0.1322 -0.0048
 6931W        W 9131   2.601   7.642  11.484  0.0469 -0.1090 -0.3197
 6932W        W 9132  25.456   0.332  16.949  0.0015  0.0278 -0.1344
 6933W        W 9133  17.229   7.494  24.905  0.2391 -0.2775 -0.2735
 6934W        W 9134  10.702   7.492  24.005  0.2259  0.0923 -0.2926
 6935W        W 9135  23.597   3.676   3.433 -0.1128 -0.0512 -0.3526
 6936W        W 9136   3.922   3.657   9.585 -0.2021  0.2975  0.1171
 6937W        W 9137   4.063   5.646   7.688  0.0100  0.1705  0.0376
 6938W        W 9138  10.342   7.026   6.885 -0.1646  0.1474 -0.0217
 6939W        W 9139   2.518   3.626  20.912  0.0043 -0.1318 -0.0644
 6940W        W 9140   2.665   0.043  25.918 -0.2041 -0.0467  0.0555
 6941W        W 9141  17.011   7.643   3.527 -0.1517  0.1014  0.1219
 6942W        W 9142  10.078   2.534   5.588  0.0849  0.0340 -0.0070
 6943W        W 9143   4.740   0.034   8.641  0.0388 -0.0530 -0.0367
 6944W        W 9144   3.326   4.551   9.164  0.0090  0.0675  0.1970
 6945W        W 9145   7.331   7.764  24.214  0.1137 -0.1302  0.1158
 6946W        W 9146  21.743   3.099  25.267 -0.0104  0.1411 -0.1687
 6947W        W 9147  30.465   6.006  17.427  0.3032 -0.0589  0.1770
 6948W        W 9148  27.927   4.496   9.915  0.2661 -0.1697 -0.0388
 6949W        W 9149  23.782   5.993  20.320  0.1204  0.1634  0.1595
 6950W        W 9150  23.768   7.774  10.445  0.3413  0.1137  0.0802
 6951W        W 9151  13.161   7.280  19.383  0.0696  0.1518 -0.0951
 6952W        W 9152  20.979   4.958  19.486  0.0588  0.1039 -0.0828
 6953W        W 9153   3.999   5.820  16.561  0.1737 -0.0505 -0.2234
 6954W        W 9154  14.161   1.686  17.282 -0.1108  0.0545 -0.2754
 6955W        W 9155  15.525   0.160  17.596  0.4350 -0.0505 -0.2732
 6956W        W 9156  20.996   3.055   0.867  0.1184  0.2384  0.3312
 6957W        W 9157  19.681   0.926  17.602  0.3220 -0.2438 -0.1922
 6958W        W 9158   0.202   6.296  10.225  0.2093 -0.3898 -0.2235
 6959W        W 9159  13.503   1.120   9.981  0.1949  0.3449 -0.0324
 6960W        W 9160  24.122   5.428  20.306 -0.0641 -0.0055 -0.1169
 6961W        W 9161  23.730   4.457  20.315 -0.0993  0.1864  0.2565
 6962W        W 9162   6.008   5.367  18.439 -0.0702 -0.0640  0.1323
 6963W        W 9163  26.273   5.207   4.313  0.3250 -0.2157  0.1463
 6964W        W 9164  17.597   6.049   9.541  0.2892  0.0383  0.3052
 6965W        W 9165   3.237   6.119   7.929 -0.0949  0.2904 -0.1217
 6966W        W 9166  11.705   4.311   4.555  0.1170  0.0177 -0.2121
 6967W        W 9167  12.542   4.076   6.383  0.0854  0.2587  0.0427
 6968W        W 9168   1.559   0.433   2.080  0.0662 -0.0876  0.1295
 6969W        W 9169  10.245   3.441   9.317 -0.1633 -0.0767  0.1421
 6970W        W 9170  17.622   1.263  21.527 -0.1117 -0.0758  0.0163
 6971W        W 9171   2.535   1.056  18.831 -0.3574 -0.0743 -0.1929
 6972W        W 9172  24.091   1.621   2.968 -0.0449  0.2062  0.1108
 6973W        W 9173  11.848   3.601   6.621 -0.0795 -0.0725 -0.3446
 6974W        W 9174  16.763   2.418  17.985  0.1807 -0.0018 -0.2750
 6975W        W 9175   3.545   1.355   2.014 -0.0157 -0.1678  0.3443
 6976W        W 9176  25.823   5.087   4.874  0.1473  0.0863  0.0301
 6977W        W 9177  27.119   1.200  22.144  0.0358 -0.0029 -0.1527
 6978W        W 9178  12.678   7.703  26.112  0.1306  0.1638  0.0022
 6979W        W 9179   3.947   4.629  10.614 -0.0378  0.0748  0.1657
 6980W        W 9180  20.941   7.113  25.123 -0.1540  0.1995 -0.1128
 6981W        W 9181   6.835   3.416   9.416  0.1478  0.0141  0.1182
 6982W        W 9182  28.574   6.903  21.763 -0.0060 -0.1735 -0.1149
 6983W        W 9183   5.276   5.061  25.481 -0.4006  0.0215  0.3011
 6984W        W 9184   0.539   3.805  18.487 -0.2465 -0.5554  0.1506
 6985W        W 9185  19.309   4.948  10.778  0.4014  0.2470  0.1724
 6986W        W 9186  16.232   6.281  20.286  0.1562  0.2125 -0.0732
 6987W        W 9187  21.001   6.844  15.827  0.2645  0.0171 -0.2777
 6988W        W 9188  17.599   6.780  10.799 -0.1759  0.1032 -0.0692
 6989W        W 9189   5.611   4.788   9.470  0.0728 -0.0948  0.1994
 6990W        W 9190  25.803   2.339   8.987 -0.0932 -0.0405  0.1734
 6991W        W 9191  19.827   1.128  16.351  0.2500 -0.1775 -0.0316
 6992W        W 9192   5.537   0.917  22.172 -0.0244 -0.1918  0.0897
 6993W        W 9193  27.251   4.101  24.433  0.0258  0.0834  0.0160
 6994W        W 9194   2.971   3.689   4.200 -0.1000  0.1654 -0.2277
 6995W        W 9195   3.254   0.165   3.735  0.1650  0.0620  0.2104
 6996W        W 9196   1.696   5.247  23.800 -0.3310 -0.2018  0.1830
 6997W        W 9197   0.911   3.293   2.527 -0.0352 -0.1327 -0.2196
 6998W        W 9198   2.153   5.207   0.624 -0.4182  0.1027  0.1131
 6999W        W 9199  22.820   1.663   0.765  0.4961 -0.1120 -0.0622
 7000W        W 9200  13.165   7.449  17.232  0.0735 -0.1187  0.0316
 7001W        W 9201  14.289   1.344   9.887 -0.0014  0.0717 -0.4088
 7002W        W 9202  19.961   1.175   1.817  0.0484 -0.0077  0.0110
 7003W        W 9203   5.204   2.325   8.173  0.0097  0.4521 -0.0423
 7004W        W 9204  29.012   2.994  19.313  0.3570  0.1935 -0.0826
 7005W        W 9205  13.430   0.158  19.082  0.2373  0.1607 -0.1391
 7006W        W 9206   6.780   1.290  17.191  0.2431 -0.0314  0.3739
 7007W        W 9207  13.824   7.792  16.573 -0.1098 -0.1296  0.0426
 7008W        W 9208  27.245   4.189   0.580  0.1944 -0.0485 -0.0290
 7009W        W 9209  24.426   5.792  11.150  0.3701  0.1250 -0.0292
 7010W        W 9210  23.959   5.965   0.620  0.2188 -0.2723 -0.1308
 7011W        W 9211  12.874   2.664   8.461 -0.1159  0.3160  0.1398
 7012W        W 9212  13.250   5.717   6.260  0.1758 -0.0562 -0.1200
 7013W        W 9213  14.891   2.840  20.748 -0.0878  0.1507 -0.3049
 7014W        W 9214  21.648   4.381   0.583  0.0877 -0.0309  0.1422
 7015W        W 9215  10.944   2.730   2.813 -0.1298 -0.1924  0.1810
 7016W        W 9216  23.141   3.948   1.530 -0.0622 -0.0816 -0.2445
 7017W        W 9217  19.288   3.907   1.649 -0.0700 -0.0273  0.1536
 7018W        W 9218   4.563   1.450   7.775 -0.0541 -0.3435 -0.1092
 7019W        W 9219   0.455   7.245   1.767 -0.1490 -0.2383 -0.1690
 7020W        W 9220   2.681   2.194  16.626  0.0602  0.2673 -0.3845
 7021W        W 9221   7.141   2.079   4.706  0.0444  0.1101  0.0169
 7022W        W 9222  20.979   1.370  19.946 -0.2617  0.1753 -0.0399
 7023W        W 9223   7.539   6.745   6.989  0.1657  0.2017 -0.1476
 7024W        W 9224  20.566   2.798   5.403 -0.0205  0.0448 -0.1621
 7025W        W 9225   5.065   0.417  20.477 -0.0685 -0.0205 -0.0755
 7026W        W 9226  29.230   0.781  21.797  0.1427  0.0306  0.0995
 7027W        W 9227  26.162   0.221   6.029  0.1045  0.1415 -0.2297
 7028W        W 9228   2.220   1.077   0.479 -0.2152  0.0665 -0.0213
 7029W        W 9229  15.482   5.346  21.729  0.1101 -0.1755  0.2212
 7030W        W 9230   8.065   4.887   1.150  0.0096  0.0569  0.1047
 7031W        W 9231  25.126   1.859  22.880 -0.5506 -0.0402  0.0847
 7032W        W 9232  21.469   7.667   2.775  0.1638 -0.0356  0.2331
 7033W        W 9233   0.305   2.041  16.625  0.1366  0.1028 -0.0305
 7034W        W 9234  14.323   6.163  10.495 -0.0732  0.0197 -0.0017
 7035W        W 9235  21.321   5.578  20.128 -0.0716  0.0013 -0.3588
 7036W        W 9236  22.613   2.712  24.199 -0.1315  0.1007 -0.0317
 7037W        W 9237  29.752   0.647  11.087  0.4529  0.1771  0.0303
 7038W        W 9238  13.347   7.069  18.293  0.1513  0.1111 -0.0769
 7039W        W 9239  13.235   2.690   7.313 -0.1223 -0.0683  0.0315
 7040W        W 9240  23.923   1.769   1.486  0.1175  0.1112 -0.1948
 7041W        W 9241  15.070   1.336  16.029 -0.1274 -0.1178  0.2632
 7042W        W 9242  24.742   4.163  16.228 -0.0425  0.0474  0.1372
 7043W        W 9243   9.606   2.439   0.870  0.1544  0.1779 -0.0032
 7044W        W 9244  22.963   3.514  18.145 -0.0034  0.3441 -0.2652
 7045W        W 9245  11.364   0.783   4.642 -0.1896  0.1667  0.3307
 7046W        W 9246   1.368   2.137   5.385 -0.0354 -0.1341  0.0566
 7047W        W 9247  26.148   2.681  20.396  0.1874  0.2997 -0.0745
 7048W        W 9248  15.297   4.368   8.526 -0.1504  0.0648 -0.0230
 7049W        W 9249  14.172   7.184   6.434  0.1047 -0.0876  0.1468
 7050W        W 9250   8.078   6.074  22.916  0.0308 -0.3903 -0.2220
 7051W        W 9251  15.798   1.704   5.659 -0.0704  0.0710  0.2315
 7052W        W 9252   7.761   6.544  24.048  0.1936  0.1365 -0.1546
 7053W        W 9253  13.660   4.019   9.962 -0.2811 -0.1227 -0.0016
 7054W        W 9254   0.653   5.823   6.871 -0.0719 -0.2366  0.1401
 7055W        W 9255  12.123   0.813  15.883  0.0845  0.0630  0.1001
 7056W        W 9256  19.953   5.222  15.445  0.2802  0.0030  0.1192
 7057W        W 9257  16.074   5.151  22.514 -0.0462 -0.1250 -0.0091
 7058W        W 9258  29.137   0.923  24.481 -0.1067 -0.1145 -0.1078
 7059W        W 9259  19.447   5.936   6.802 -0.1053 -0.0336  0.2441
 7060W        W 9260   9.777   7.541  15.860  0.2891  0.0294  0.1079
 7061W        W 9261   7.493   1.413  15.946 -0.2029  0.5649  0.0857
 7062W        W 9262   4.056   2.151  24.684 -0.0213 -0.0231 -0.0611
 7063W        W 9263  24.781   6.502  23.269 -0.0425 -0.2151  0.2382
 7064W        W 9264   0.928   4.773   8.767  0.0846  0.1164  0.0065
 7065W        W 9265  15.476   0.725   4.856  0.1849  0.1784  0.1304
 7066W        W 9266  10.257   1.244   1.708 -0.1591 -0.0995 -0.6299
 7067W        W 9267  21.265   7.090   4.385  0.1204  0.1908 -0.0226
 7068W        W 9268  24.057   4.059   2.618  0.1177 -0.0589 -0.1095
 7069W        W 9269  17.797   4.089  17.411  0.0659 -0.0590  0.0738
 7070W        W 9270  28.029   6.266   2.634 -0.2029  0.0160  0.2874
 7071W        W 9271   5.401   3.385  10.186 -0.0372 -0.0121 -0.2606
 7072W        W 9272   0.697   7.594   6.301  0.2068  0.0479  0.1096
 7073W        W 9273  25.044   2.643   1.244 -0.2520  0.1374 -0.1155
 7074W        W 9274  12.300   3.212  23.066  0.0412 -0.2035 -0.2225
 7075W        W 9275  24.537   3.338   0.280 -0.1383  0.1606 -0.1395
 7076W        W 9276  11.601   3.915   4.246  0.1249 -0.0287  0.1304
 7077W        W 9277  24.076   1.413   4.749  0.0303 -0.2794  0.1721
 7078W        W 9278  10.576   0.013  21.405  0.0484  0.1158 -0.2435
 7079W        W 9279   9.444   7.369   2.616 -0.1627 -0.0178 -0.1134
 7080W        W 9280  17.724   5.882  15.065 -0.0679  0.1959 -0.2155
 7081W        W 9281  10.920   5.710  22.429  0.1780 -0.0879 -0.0392
 7082W        W 9282  27.346   7.308   9.617 -0.1771  0.0832  0.0785
 7083W        W 9283   5.462   0.691  23.686 -0.1084 -0.1409  0.1551
 7084W        W 9284  15.429   1.952   2.996  0.2653 -0.1389  0.3285
 7085W        W 9285  18.785   3.002   0.156 -0.0755 -0.1017  0.0774
 7086W        W 9286  11.034   1.865  19.709 -0.0140  0.3271 -0.1850
 7087W        W 9287  31.232   4.633  22.737 -0.1750 -0.0351  0.3778
 7088W        W 9288   5.826   1.384   8.832  0.0284 -0.0822  0.1181
 7089W        W 9289  26.339   7.627  22.542  0.1513  0.2980 -0.3218
 7090W        W 9290  17.895   4.917   4.745 -0.2102 -0.1340 -0.0487
 7091W        W 9291  19.877   6.922  19.721 -0.0949  0.1459  0.0957
 7092W        W 9292  25.566   7.588   5.197 -0.1471 -0.0110 -0.1812
 7093W        W 9293  24.317   4.006  24.746 -0.0978 -0.2135 -0.0394
 7094W        W 9294  26.485   3.816  21.985 -0.0791 -0.1177 -0.0248
 7095W        W 9295  29.533   6.744   2.095 -0.0861 -0.0239  0.0791
 7096W        W 9296  17.157   4.841   6.590  0.2576 -0.1001 -0.1004
 7097W        W 9297  23.093   4.900  16.982 -0.3194 -0.1349  0.0171
 7098W        W 9298   6.036   0.966  11.161 -0.0452 -0.0640 -0.1357
 7099W        W 9299  11.148   2.255  16.840  0.1529  0.1761  0.0480
 7100W        W 9300  25.082   1.603   2.497  0.0118  0.1618  0.1874
 7101W        W 9301  24.163   5.899  23.007 -0.1756 -0.0109 -0.0061
 7102W        W 9302  11.911   5.250   4.235  0.3840 -0.1743 -0.2091
 7103W        W 9303   9.972   3.043   9.070  0.0224 -0.0332  0.1432
 7104W        W 9304  23.046   4.818   0.612 -0.1182 -0.1998 -0.1106
 7105W        W 9305   7.143   6.225  22.876 -0.0045 -0.1250 -0.0227
 7106W        W 9306   0.822   2.254   3.764  0.3005 -0.0868 -0.0541
 7107W        W 9307  19.750   3.905  21.661 -0.2373  0.0737  0.2617
 7108W        W 9308   3.764   1.439   8.834 -0.0607 -0.0770  0.1546
 7109W        W 9309   3.410   4.220   6.230 -0.2362 -0.2988  0.3541
 7110W        W 9310  17.016   5.185  20.772  0.1795  0.0088 -0.1275
 7111W        W 9311  30.702   5.156  21.195 -0.2003 -0.0353 -0.0795
 7112W        W 9312   3.669   3.276  10.058 -0.0555  0.0211  0.0325
 7113W        W 9313  22.873   4.201  20.653 -0.1471  0.1571 -0.0930
 7114W        W 9314  12.130   2.664  11.416 -0.0428  0.3572  0.1050
 7115W        W 9315   6.600   0.693  20.004  0.1040 -0.1870  0.0539
 7116W        W 9316  23.306   6.537   5.846 -0.3140 -0.2021  0.0098
 7117W        W 9317  11.867   3.276   9.332 -0.1487 -0.0866 -0.1695
 7118W        W 9318  10.530   6.048   8.392  0.1534  0.2217  0.1298
 7119W        W 9319   7.476   6.206  23.263  0.0940  0.1805 -0.1694
 7120W        W 9320  29.866   1.475  21.714  0.1158 -0.1471  0.1376
 7121W        W 9321  25.267   2.694  26.059  0.0807  0.0095 -0.0082
 7122W        W 9322  23.534   1.695  24.860  0.0839  0.1071 -0.2059
 7123W        W 9323  26.138   1.203   5.386  0.0924  0.0374  0.0619
 7124W        W 9324  13.050   4.554  19.099 -0.3158  0.0045 -0.0757
 7125W        W 9325   4.472   5.285  21.532  0.0071 -0.2002  0.3054
 7126W        W 9326  13.251   2.816   9.550 -0.1971  0.3145 -0.1863
 7127W        W 9327   0.358   4.208  11.410  0.1971 -0.0351  0.2926
 7128W        W 9328  15.819   6.573   6.863 -0.1309 -0.0891 -0.0802
 7129W        W 9329  19.146   6.793   4.740  0.0796 -0.0736 -0.1616
 7130W        W 9330  27.310   5.929  20.696  0.0463 -0.0251 -0.0861
 7131W        W 9331   4.846   1.479   1.806  0.2451 -0.1928 -0.2419
 7132W        W 9332  14.401   4.190   5.701 -0.0863 -0.0815 -0.2094
 7133W        W 9333   4.965   4.896  18.712 -0.1326  0.2419  0.0832
 7134W        W 9334   9.410   6.540  17.839 -0.0769 -0.0634  0.0026
 7135W        W 9335  26.822   6.017  23.343  0.2380  0.4200 -0.0396
 7136W        W 9336   8.504   4.365   0.490 -0.0183  0.0962 -0.1219
 7137W        W 9337  12.102   5.213  18.194  0.0997 -0.3433  0.0214
 7138W        W 9338  20.899   3.230  24.195 -0.1725 -0.0550 -0.3240
 7139W        W 9339  20.865   0.604   9.749 -0.2599  0.0334  0.1769
 7140W        W 9340  12.330   0.692  21.449 -0.0832  0.0926  0.0002
 7141W        W 9341  10.806   0.096   0.466 -0.0468 -0.0860 -0.0099
 7142W        W 9342   6.994   7.038  20.974  0.2831  0.0994  0.2934
 7143W        W 9343   4.143   3.614  22.094 -0.0164  0.0228 -0.1537
 7144W        W 9344   3.760   4.377  20.692  0.0765 -0.0273 -0.3878
 7145W        W 9345  30.917   7.174   6.428  0.2150  0.2029  0.3736
 7146W        W 9346  24.507   5.886   5.700 -0.0065 -0.0323 -0.0755
 7147W        W 9347  10.482   1.219   2.986 -0.0662  0.0850  0.2422
 7148W        W 9348   9.164   5.557  15.889  0.1571 -0.3641 -0.0563
 7149W        W 9349  27.112   6.661  18.716 -0.0509 -0.0633 -0.1600
 7150W        W 9350   0.658   6.669   7.136 -0.3519 -0.0636 -0.0636
 7151W        W 9351   3.144   3.268  11.318 -0.1893  0.0546 -0.0329
 7152W        W 9352  12.104   6.236  23.607  0.1323  0.3166  0.1317
 7153W        W 9353  20.871   3.308  17.633 -0.3471  0.1267  0.0243
 7154W        W 9354  20.348   0.888   1.619 -0.1499  0.2016  0.4260
 7155W        W 9355  15.822   1.572   2.030 -0.2458  0.1433 -0.0087
 7156W        W 9356  23.297   0.258  21.250 -0.0523 -0.4610 -0.2009
 7157W        W 9357  23.173   3.152  16.713  0.1382  0.1366 -0.0648
 7158W        W 9358   6.278   7.389   7.165  0.0255 -0.0355 -0.0725
 7159W        W 9359  25.086   5.252   7.268 -0.0760  0.0736 -0.0093
 7160W        W 9360  25.806   7.511   7.406 -0.0756  0.2459  0.0480
 7161W        W 9361  18.892   1.130  20.976  0.1817 -0.0996 -0.0839
 7162W        W 9362  30.603   4.016  24.372  0.1100  0.1520 -0.3994
 7163W        W 9363   7.365   0.151   6.109  0.1007  0.0169 -0.1422
 7164W        W 9364  11.438   6.185  24.718  0.0955 -0.2996 -0.3134
 7165W        W 9365  27.046   6.391   7.279 -0.5188  0.2291 -0.4298
 7166W        W 9366  23.179   0.547   2.458 -0.1447  0.2463  0.0905
 7167W        W 9367  24.928   7.295   8.260 -0.0277 -0.0877 -0.1549
 7168W        W 9368  13.771   2.402   8.840 -0.0720 -0.0953 -0.1885
 7169W        W 9369  16.872   2.357  24.656 -0.0603 -0.4638  0.1900
 7170W        W 9370  11.236   1.447   8.883 -0.2580 -0.0014  0.1804
 7171W        W 9371  23.311   5.537  24.465 -0.2545  0.2543  0.0416
 7172W        W 9372   6.348   6.239   6.456  0.1360 -0.3077 -0.1859
 7173W        W 9373  26.222   4.055   9.426 -0.0438 -0.2705 -0.1628
 7174W        W 9374  13.900   3.001  25.276 -0.2560 -0.5983 -0.1730
 7175W        W 9375   3.567   5.231  16.397 -0.0171  0.1097 -0.4270
 7176W        W 9376  22.698   2.795  18.917  0.1082  0.1235  0.0662
 7177W        W 9377  23.842   4.711  20.972 -0.0664 -0.1799  0.0435
 7178W        W 9378   0.331   2.764   8.524  0.1477  0.0962  0.1841
 7179W        W 9379  30.901   4.528  24.904 -0.1625 -0.1507 -0.0183
 7180W        W 9380  10.339   6.906  25.709  0.1015 -0.2591  0.2182
 7181W        W 9381  28.477   7.023   0.716  0.0435  0.1233  0.3436
 7182W        W 9382  28.379   6.769  24.090  0.1223  0.1403  0.0103
 7183W        W 9383  17.650   6.922   9.722  0.3467 -0.1084 -0.3883
 7184W        W 9384  29.626   2.064  17.983  0.3655 -0.4916  0.2634
 7185W        W 9385   1.629   6.179   6.396  0.2155 -0.0092 -0.2339
 7186W        W 9386   8.419   6.409   2.824 -0.1173 -0.1228  0.0205
 7187W        W 9387  18.028   7.120   5.460  0.0221  0.3163 -0.0397
 7188W        W 9388   0.824   5.291   2.460 -0.0463  0.1748  0.1572
 7189W        W 9389  18.894   7.286  21.078 -0.0094  0.0035 -0.4612
 7190W        W 9390  16.770   6.143  25.930 -0.0318 -0.2229 -0.1979
 7191W        W 9391  11.529   3.287  25.662 -0.0101 -0.0323 -0.0957
 7192W        W 9392  17.843   1.129   7.231 -0.3354  0.0166 -0.0583
 7193W        W 9393  19.133   7.668  20.320  0.1183  0.2611  0.3463
 7194W        W 9394  21.212   2.845  25.352  0.0963 -0.0553 -0.0674
 7195W        W 9395   3.015   5.038   4.180  0.3382  0.1190  0.0790
 7196W        W 9396  25.237   0.255  18.616 -0.1770  0.1246  0.2055
 7197W        W 9397  21.264   5.199  22.289  0.1533  0.1640 -0.1931
 7198W        W 9398   9.534   1.392  24.159 -0.1209  0.1376 -0.0042
 7199W        W 9399  22.259   6.360  11.143  0.2374  0.2316  0.1654
 7200W        W 9400  12.286   5.250  23.957 -0.0049 -0.1588 -0.1699
 7201W        W 9401  21.426   5.839   7.626 -0.1596  0.0489  0.3614
 7202W        W 9402   2.646   0.792  20.445  0.1076  0.2262  0.0776
 7203W        W 9403  27.364   2.494   1.937 -0.3632  0.0108  0.0814
 7204W        W 9404  27.256   3.282  23.297 -0.0719  0.0471  0.0604
 7205W        W 9405  19.439   5.656  22.363 -0.1995 -0.1355  0.1261
 7206W        W 9406  18.472   4.672   4.587 -0.1111 -0.0997  0.0389
 7207W        W 9407  24.519   5.955   4.652 -0.0144 -0.2496 -0.1896
 7208W        W 9408  29.807   5.132   2.684  0.2029 -0.0918  0.2542
 7209W        W 9409  30.614   4.036   0.579  0.4045  0.2540  0.1333
 7210W        W 9410  25.790   7.117   2.475  0.1299 -0.4633 -0.3138
 7211W        W 9411   1.150   0.934  10.803  0.0063  0.0682  0.0749
 7212W        W 9412  28.173   3.721  19.173 -0.2529 -0.0220  0.1578
 7213W        W 9413  30.821   4.722  19.553 -0.1947 -0.0333 -0.3932
 7214W        W 9414   2.303   0.957  20.970 -0.1288  0.1916  0.2557
 7215W        W 9415   8.744   2.221  10.180  0.2464  0.0610 -0.1748
 7216W        W 9416  13.146   6.863   0.131 -0.2564  0.0007  0.0679
 7217W        W 9417   6.122   7.384   4.346  0.2005  0.1095 -0.2295
 7218W        W 9418  16.789   4.138  22.025  0.1325  0.1953 -0.1750
 7219W        W 9419  15.101   7.550  18.923 -0.1443  0.6227  0.0083
 7220W        W 9420   6.088   7.146   7.624 -0.2806  0.3989 -0.0835
 7221W        W 9421  16.432   4.019  16.053 -0.0635 -0.1358 -0.1998
 7222W        W 9422  28.453   5.258   4.083  0.0224 -0.5186  0.0444
 7223W        W 9423  30.404   0.827   8.517 -0.1625  0.1305 -0.0867
 7224W        W 9424  20.848   0.179   1.164 -0.0484 -0.0441 -0.2020
 7225W        W 9425   7.606   0.185   9.941 -0.0116 -0.1438  0.3170
 7226W        W 9426  19.374   1.519   6.131  0.2490  0.0188 -0.1906
 7227W        W 9427  30.749   2.377  20.517  0.4653  0.0698 -0.2504
 7228W        W 9428  29.536   7.436  21.864  0.1120 -0.0727 -0.0358
 7229W        W 9429  30.937   2.198  23.863 -0.1261 -0.1216 -0.0224
 7230W        W 9430   8.939   3.961  16.108 -0.0359  0.2343 -0.0328
 7231W        W 9431  13.210   7.379  20.339 -0.1870 -0.0376 -0.2530
 7232W        W 9432  30.359   4.235   4.658 -0.1126 -0.1202 -0.1256
 7233W        W 9433  18.038   0.260  14.308 -0.1031 -0.2129 -0.0332
 7234W        W 9434  28.467   0.443   9.530  0.0542 -0.0646  0.1003
 7235W        W 9435   3.426   2.282  20.666  0.0083 -0.0106 -0.0266
 7236W        W 9436  19.201   6.358   8.139 -0.4062  0.2508 -0.0975
 7237W        W 9437   5.054   7.366  19.911  0.1400 -0.0587 -0.0780
 7238W        W 9438   6.835   1.524  24.051  0.0077  0.0739  0.1415
 7239W        W 9439  15.431   6.697  10.541 -0.0220  0.1603  0.2964
 7240W        W 9440  15.606   5.210   7.977 -0.1660 -0.0119  0.0655
 7241W        W 9441  22.278   7.161  25.037 -0.1783 -0.0497  0.3453
 7242W        W 9442  29.960   0.488   4.589 -0.3501 -0.0141  0.0529
 7243W        W 9443  16.222   0.771  10.674  0.0588 -0.0915 -0.1764
 7244W        W 9444  11.307   6.303  20.027 -0.1138 -0.0332 -0.0336
 7245W        W 9445  19.440   2.861   9.199 -0.0837 -0.1176 -0.0465
 7246W        W 9446  13.176   0.875  18.347  0.0252 -0.2591 -0.0852
 7247W        W 9447  11.267   7.461   2.103 -0.3028  0.1229  0.0560
 7248W        W 9448   6.612   5.919  24.039  0.1707  0.0436 -0.0557
 7249W        W 9449   4.517   1.120  11.558  0.0065 -0.0144 -0.1743
 7250W        W 9450  21.002   5.881   9.126  0.0168 -0.0495 -0.1020
 7251W        W 9451  18.055   3.502   0.487 -0.1405 -0.3295  0.0386
 7252W        W 9452  18.494   0.327  17.689  0.0064  0.0314 -0.2089
 7253W        W 9453  26.882   1.215  23.137 -0.0319 -0.1003  0.2619
 7254W        W 9454   8.544   3.419  22.277  0.0403 -0.1580 -0.0459
 7255W        W 9455   2.263   4.383   7.176 -0.2160  0.0779 -0.0767
 7256W        W 9456  20.488   6.551   0.316  0.1875 -0.1012  0.2586
 7257W        W 9457   9.927   1.757  15.707  0.2200 -0.0663  0.1072
 7258W        W 9458  31.226   5.353   6.827 -0.3723  0.1130  0.0217
 7259W        W 9459  27.411   4.550   3.253  0.3203 -0.0376  0.0792
 7260W        W 9460   3.289   0.879  10.894  0.0283  0.0835 -0.0702
 7261W        W 9461   4.082   2.598   6.245  0.1364  0.0758 -0.4560
 7262W        W 9462   9.449   0.084   3.436 -0.0290 -0.1214 -0.1036
 7263W        W 9463  25.905   1.701   8.931  0.0758  0.1247 -0.1333
 7264W        W 9464  18.804   4.749   9.438  0.0794 -0.2199  0.1124
 7265W        W 9465  17.319   4.730  17.651 -0.1692  0.0428  0.1575
 7266W        W 9466  10.622   4.237  15.835 -0.3209 -0.0431 -0.0365
 7267W        W 9467  28.135   1.554   8.047 -0.0562  0.1694 -0.0702
 7268W        W 9468  12.887   2.254   2.271  0.2385  0.0606 -0.1766
 7269W        W 9469  11.199   2.809  20.955  0.1330  0.0681 -0.2689
 7270W        W 9470   5.665   7.060  18.233 -0.1971 -0.1008 -0.1518
 7271W        W 9471  17.992   5.237   7.414 -0.2589  0.2942 -0.1774
 7272W        W 9472  17.463   3.792   9.066 -0.0125  0.3529 -0.1217
 7273W        W 9473   4.935   6.006  24.891  0.1954 -0.1801 -0.2514
 7274W        W 9474  12.945   7.766  25.324  0.1337 -0.1589  0.0070
 7275W        W 9475  29.428   2.170   3.906 -0.2976 -0.0685 -0.0626
 7276W        W 9476   8.843   6.304  22.454  0.1063 -0.0688  0.1829
 7277W        W 9477   9.255   0.448  10.398  0.0043 -0.2780 -0.0272
 7278W        W 9478   8.688   1.685   3.763  0.0411 -0.1758  0.0050
 7279W        W 9479  14.200   6.621   7.961 -0.0948 -0.0474 -0.1796
 7280W        W 9480   9.339   4.812  19.254  0.1927 -0.4194 -0.4420
 7281W        W 9481  16.742   5.631  14.965 -0.0550 -0.1754  0.0080
 7282W        W 9482   3.227   1.607   3.205  0.0818 -0.1772 -0.0696
 7283W        W 9483   2.045   5.470  15.636 -0.0604  0.0596 -0.1620
 7284W        W 9484  14.352   1.637  20.119  0.1159 -0.2169 -0.0948
 7285W        W 9485   1.963   3.107  11.131  0.0511  0.1082 -0.0519
 7286W        W 9486   5.539   3.738  20.959  0.0548 -0.0008  0.1240
 7287W        W 9487  11.873   6.887  17.506 -0.2797 -0.2172  0.0044
 7288W        W 9488  14.244   5.918  15.922 -0.0899 -0.2662  0.3828
 7289W        W 9489  15.373   6.741  14.720  0.2881  0.0100  0.0505
 7290W        W 9490   5.781   6.228   4.568 -0.0649 -0.1142 -0.2649
 7291W        W 9491  13.942   3.673  17.993 -0.0393  0.0306 -0.0866
 7292W        W 9492  11.738   0.222  16.516 -0.1310  0.2759 -0.4255
 7293W        W 9493   5.099   5.893  23.237  0.0502 -0.0722 -0.1983
 7294W        W 9494  22.306   2.863   1.678 -0.3058  0.0825 -0.3063
 7295W        W 9495  26.927   4.832  20.931 -0.2084 -0.1088 -0.3393
 7296W        W 9496  30.615   2.655  19.067  0.0964  0.0943  0.0462
 7297W        W 9497  25.107   1.096  22.843  0.1263 -0.0974  0.0684
 7298W        W 9498  15.130   4.776   7.869  0.0205 -0.1055  0.2711
 7299W        W 9499  25.838   4.060  24.796  0.2078  0.0013  0.0327
 7300W        W 9500  20.460   6.733  15.771 -0.1655  0.1028 -0.1203
 7301W        W 9501  13.064   2.426  17.861 -0.1631 -0.1459  0.0561
 7302W        W 9502   2.487   7.633  24.974 -0.0427 -0.3259  0.0221
 7303W        W 9503  17.531   3.916   6.402 -0.4854  0.1386 -0.2779
 7304W        W 9504  17.857   1.669  16.897  0.0884  0.0691  0.0050
 7305W        W 9505   8.918   1.146  18.767  0.2066  0.0886 -0.1097
 7306W        W 9506  17.008   4.351  14.639 -0.2666 -0.0840  0.0034
 7307W        W 9507   6.754   6.952  16.685  0.0573 -0.2590 -0.1307
 7308W        W 9508  15.328   5.330   0.707 -0.0454 -0.1466 -0.3401
 7309W        W 9509  28.878   3.146  24.620  0.1484 -0.1423  0.2753
 7310W        W 9510  27.989   1.015   8.407  0.0914 -0.1466  0.0614
 7311W        W 9511  18.335   4.614  26.064 -0.2256  0.2196  0.0028
 7312W        W 9512  11.007   7.438  20.676 -0.0823 -0.1488 -0.2774
 7313W        W 9513   7.062   3.227  15.916 -0.0159 -0.2959  0.1478
 7314W        W 9514   0.156   5.709   6.591 -0.0945  0.0224  0.0799
 7315W        W 9515  30.688   3.716   5.650  0.2558 -0.2698 -0.0723
 7316W        W 9516  24.721   2.814   8.408 -0.0905  0.0244  0.1921
 7317W        W 9517   3.794   5.884   2.036  0.1408  0.4343  0.0383
 7318W        W 9518  29.410   2.060   8.394 -0.0077 -0.1459 -0.1159
 7319W        W 9519  11.528   2.802  22.947  0.0106 -0.1232  0.1255
 7320W        W 9520  14.720   3.571  20.862 -0.1418  0.0836 -0.1418
 7321W        W 9521  10.094   7.384   6.316  0.1131  0.0360  0.1601
 7322W        W 9522   3.544   7.329  22.644  0.2751 -0.1273  0.0297
 7323W        W 9523  25.879   0.895   3.140  0.6459  0.2484 -0.1091
 7324W        W 9524  16.911   2.178   5.122  0.1752 -0.0316 -0.1726
 7325W        W 9525   5.038   6.809   9.250 -0.1263 -0.1937  0.0530
 7326W        W 9526  14.399   6.023   3.105  0.0836  0.0838 -0.1736
 7327W        W 9527   7.700   4.169  16.545 -0.0295 -0.1632  0.2614
 7328W        W 9528   9.419   0.273  18.394 -0.0575  0.3885  0.2409
 7329W        W 9529  31.085   6.227  16.654 -0.2065  0.0131 -0.2403
 7330W        W 9530   0.239   4.229   5.681 -0.0021 -0.0430  0.0111
 7331W        W 9531  16.116   5.119   2.414 -0.1299 -0.1435  0.0965
 7332W        W 9532  14.658   2.588  24.165 -0.3036 -0.0547  0.0363
 7333W        W 9533  25.910   1.530   4.459  0.0766  0.1848  0.0730
 7334W        W 9534  23.046   6.021   7.218  0.3654  0.2862 -0.0302
 7335W        W 9535   4.503   0.730  18.265  0.2001  0.0100 -0.0031
 7336W        W 9536  27.859   7.655   6.544 -0.2414  0.1821 -0.1270
 7337W        W 9537  29.833   1.617  16.347  0.0134  0.2929  0.1381
 7338W        W 9538  23.233   1.877  19.377  0.1173  0.1101 -0.1915
 7339W        W 9539   8.379   2.785   2.929 -0.0173 -0.1273 -0.2519
 7340W        W 9540  18.525   2.832  17.279 -0.0203  0.0271  0.2820
 7341W        W 9541  30.530   1.930   7.263 -0.0036 -0.1406  0.1811
 7342W        W 9542  20.506   0.252   7.497  0.1562  0.1508 -0.0613
 7343W        W 9543  19.262   2.887   8.384  0.1507  0.0321  0.1228
 7344W        W 9544  30.130   7.350  18.408 -0.0456  0.3875  0.0473
 7345W        W 9545  23.346   4.824  10.759  0.1498  0.4478  0.1883
 7346W        W 9546  16.455   7.064  20.322 -0.0223  0.0450 -0.1319
 7347W        W 9547  13.320   5.711   3.907  0.0736 -0.1280 -0.0002
 7348W        W 9548  28.766   4.892  19.239  0.3174  0.5110 -0.2438
 7349W        W 9549   6.902   2.843   3.256  0.1833  0.1787 -0.0127
 7350W        W 9550   1.567   5.886   4.408  0.2686 -0.1055  0.1949
 7351W        W 9551   3.804   2.777   0.385  0.1980  0.2304 -0.0360
 7352W        W 9552   9.984   2.254  24.603  0.0861 -0.1692  0.0693
 7353W        W 9553  16.526   1.049   6.098  0.2734 -0.1032  0.1538
 7354W        W 9554  11.083   2.365  25.101 -0.1690 -0.0990 -0.1126
 7355W        W 9555  20.028   6.237  17.909 -0.3366 -0.1833 -0.0523
 7356W        W 9556  24.774   3.282  24.574 -0.0949 -0.0748 -0.1434
 7357W        W 9557  11.471   3.544  18.151  0.3465  0.0972  0.0342
 7358W        W 9558   2.134   4.013  18.033 -0.2551 -0.2861 -0.1176
 7359W        W 9559   4.245   2.744   8.049 -0.1605 -0.1428 -0.0077
 7360W        W 9560  19.750   5.134   7.400 -0.0251 -0.0403  0.0937
 7361W        W 9561  28.016   4.920   1.326  0.0898  0.2077  0.1655
 7362W        W 9562   4.709   4.825   5.479  0.2150 -0.3035 -0.1536
 7363W        W 9563  17.908   3.664  17.225  0.1227 -0.2986 -0.2526
 7364W        W 9564  21.722   2.358   1.580 -0.0319  0.0447 -0.2608
 7365W        W 9565  14.551   2.573  25.323 -0.1540 -0.0816  0.3195
 7366W        W 9566   9.450   7.521  25.396  0.2031 -0.0163  0.1020
 7367W        W 9567  24.633   7.574  18.612  0.1851 -0.2692  0.1856
 7368W        W 9568  20.091   1.236  15.332  0.1745 -0.1380 -0.0903
 7369W        W 9569  19.839   3.917   4.921 -0.0707  0.1150 -0.4098
 7370W        W 9570   6.936   6.757  22.951  0.2277  0.1506 -0.1966
 7371W        W 9571   1.253   1.624   9.075  0.1062 -0.1589  0.3277
 7372W        W 9572   5.471   7.146  22.888 -0.1713 -0.1068 -0.1496
 7373W        W 9573   8.224   4.097   2.660 -0.2799 -0.1839  0.1709
 7374W        W 9574  16.195   5.273   5.306 -0.0704  0.0505 -0.1353
 7375W        W 9575  15.480   1.320  25.314  0.3943  0.1535  0.2173
 7376W        W 9576   3.835   5.105  10.882  0.1228 -0.1585 -0.2089
 7377W        W 9577  30.298   4.406   0.448  0.0210  0.2212 -0.1952
 7378W        W 9578  12.481   2.496   2.432 -0.3740 -0.1495  0.0003
 7379W        W 9579  11.075   5.156   7.443 -0.0523  0.0955 -0.1128
 7380W        W 9580   6.794   2.945  18.278 -0.1467 -0.1797  0.2409
 7381W        W 9581  29.219   7.660   8.363  0.1209  0.1111 -0.0230
 7382W        W 9582  16.441   4.480  15.217 -0.2274  0.1451 -0.3367
 7383W        W 9583  10.768   7.213  17.249  0.1557 -0.2022  0.1813
 7384W        W 9584  16.695   0.591   1.820 -0.1379  0.0114 -0.1768
 7385W        W 9585  24.976   3.419   9.181  0.0036 -0.1475 -0.2104
 7386W        W 9586  29.650   0.045  24.767  0.0535  0.0916 -0.1889
 7387W        W 9587  15.152   1.198  23.321 -0.0449  0.1822  0.2114
 7388W        W 9588   4.180   5.589   2.979  0.0552 -0.1064 -0.1871
 7389W        W 9589   9.979   0.520  19.292  0.2748 -0.2032  0.1678
 7390W        W 9590   4.883   1.734   4.604 -0.0529 -0.1575 -0.0259
 7391W        W 9591  12.978   4.428   0.293 -0.0475  0.0589  0.2084
 7392W        W 9592   2.215   2.556  17.324  0.1523  0.3812  0.0974
 7393W        W 9593  13.762   5.055   2.213 -0.1641 -0.1527  0.1037
 7394W        W 9594  21.936   2.859  23.648  0.0876  0.2076  0.1449
 7395W        W 9595  19.437   4.884  23.855  0.1997 -0.2292 -0.0274
 7396W        W 9596  21.990   2.309   7.186 -0.1813  0.1782  0.1121
 7397W        W 9597   2.191   1.063   5.440 -0.2319 -0.2081 -0.2698
 7398W        W 9598  24.294   0.612   0.910  0.1971  0.1612  0.2948
 7399W        W 9599  19.616   0.654  25.334 -0.2640 -0.4841 -0.1208
 7400W        W 9600  13.967   4.511   4.952 -0.0816  0.3883  0.1013
 7401W        W 9601   9.821   5.351   5.979 -0.3416  0.1273 -0.2591
 7402W        W 9602  22.359   1.076   0.598 -0.1157  0.2848  0.1302
 7403W        W 9603  21.236   4.225  11.140 -0.2012  0.1388 -0.2723
 7404W        W 9604   7.762   7.568  20.315 -0.2198 -0.0826 -0.2108
 7405W        W 9605   2.108   7.528  17.179 -0.0341 -0.2819  0.1938
 7406W        W 9606  26.070   6.980  20.479 -0.2284  0.3884 -0.1621
 7407W        W 9607  18.503   0.388   8.233  0.1166 -0.1390  0.1966
 7408W        W 9608   9.758   2.535   1.340 -0.1337 -0.2030 -0.2669
 7409W        W 9609   2.096   6.289   4.735 -0.2403  0.2291  0.0226
 7410W        W 9610  11.710   4.851   8.293  0.1878 -0.0898  0.1533
 7411W        W 9611   5.843   4.183   2.473  0.1081  0.3011 -0.0701
 7412W        W 9612  24.944   6.404   0.759  0.0379 -0.0001  0.1592
 7413W        W 9613   0.215   1.279   1.717 -0.2525  0.2879  0.1981
 7414W        W 9614  19.450   0.927   9.616 -0.1505  0.0455  0.0826
 7415W        W 9615   5.593   1.285   9.736  0.0346  0.0747  0.1777
 7416W        W 9616  14.393   6.955  22.732  0.0979 -0.1261 -0.1861
 7417W        W 9617   6.822   2.912   7.997 -0.1187 -0.4306  0.0782
 7418W        W 9618  15.363   6.426   3.403  0.0619  0.1461 -0.1027
 7419W        W 9619  24.533   5.113  25.602 -0.0501  0.2225  0.1147
 7420W        W 9620  15.783   1.319   1.166 -0.1634 -0.1282 -0.0392
 7421W        W 9621  19.563   1.877  21.500 -0.1832 -0.3171  0.1096
 7422W        W 9622   6.144   0.260   7.530 -0.0950 -0.2643 -0.0768
 7423W        W 9623   1.712   4.589   0.238 -0.1571 -0.0699 -0.1666
 7424W        W 9624  25.562   5.545  25.575  0.0619 -0.0096  0.1823
 7425W        W 9625  13.342   0.090   9.827  0.0248 -0.2494 -0.1276
 7426W        W 9626   6.389   3.236   5.162 -0.1606 -0.2162 -0.2541
 7427W        W 9627  27.417   5.328  10.996 -0.0742  0.0721 -0.0732
 7428W        W 9628  23.096   0.521   6.306  0.0886 -0.1184 -0.0992
 7429W        W 9629   4.288   2.434  10.537  0.0584 -0.3020  0.0834
 7430W        W 9630   6.907   7.814  20.373  0.2891 -0.4635  0.0233
 7431W        W 9631  16.869   7.194   3.751 -0.1600 -0.2456 -0.3104
 7432W        W 9632  22.581   0.406   6.296  0.0914  0.2570  0.1911
 7433W        W 9633  22.240   6.055   4.771  0.1342  0.2072  0.0753
 7434W        W 9634   1.437   2.232   4.412 -0.1293 -0.1643 -0.1167
 7435W        W 9635  16.986   0.122  19.421 -0.0286 -0.1626  0.0141
 7436W        W 9636   2.323   1.095   7.179 -0.1891 -0.0546  0.0708
 7437W        W 9637  28.880   0.635  23.790  0.0144 -0.3003 -0.2257
 7438W        W 9638  16.842   1.730  15.535 -0.1528  0.0425 -0.2975
 7439W        W 9639   4.081   4.008   9.120 -0.1725  0.2271  0.4516
 7440W        W 9640   3.099   6.734  25.791 -0.0641 -0.3037 -0.0682
 7441W        W 9641  28.013   5.814  18.964  0.0482  0.1631  0.1356
 7442W        W 9642   3.116   1.191  23.739  0.0854  0.0786  0.1899
 7443W        W 9643  17.047   7.436  16.246  0.1257 -0.0417  0.0808
 7444W        W 9644   9.779   4.774   9.831 -0.0642  0.1884  0.2663
 7445W        W 9645  29.352   3.688  18.540 -0.0975  0.0881 -0.2786
 7446W        W 9646   4.328   7.620  19.630  0.0681  0.4084 -0.1845
 7447W        W 9647  10.412   1.985   2.445  0.0304 -0.2392 -0.3314
 7448W        W 9648  30.328   1.988  18.598 -0.0141  0.0937 -0.0668
 7449W        W 9649  14.197   4.384  25.221 -0.1696 -0.2276 -0.1416
 7450W        W 9650   3.794   2.935  25.343  0.1037 -0.1300  0.0534
 7451W        W 9651  14.544   6.212  16.222 -0.1273  0.1565 -0.0772
 7452W        W 9652  16.474   7.672  15.991  0.0457  0.0395 -0.0824
 7453W        W 9653  10.626   2.210  25.073  0.1589  0.3920 -0.0337
 7454W        W 9654  17.419   0.632   9.064 -0.5445 -0.1563 -0.0019
 7455W        W 9655   6.235   1.170   4.283  0.2614  0.0201  0.1522
 7456W        W 9656  24.738   2.082  23.532 -0.0139 -0.1105  0.1105
 7457W        W 9657  30.464   1.323  19.181  0.1283  0.3465 -0.0660
 7458W        W 9658  16.090   6.450  23.906  0.0643 -0.1298 -0.0760
 7459W        W 9659  17.327   1.280   1.116 -0.1799  0.0249  0.1497
 7460W        W 9660  22.114   1.321  25.894  0.1663 -0.0267 -0.1732
 7461W        W 9661  17.100   0.371   6.941 -0.2132 -0.0582 -0.0612
 7462W        W 9662  15.424   3.689   7.924  0.2568  0.0693 -0.0988
 7463W        W 9663  11.542   5.345  22.386  0.0048  0.0949 -0.0354
 7464W        W 9664  14.644   7.412   1.309 -0.3138  0.1350  0.0278
 7465W        W 9665  24.651   1.496   2.253 -0.0457  0.3936 -0.2789
 7466W        W 9666   4.932   6.007  15.101 -0.1103 -0.0439 -0.1837
 7467W        W 9667  30.702   4.747  22.638 -0.0459  0.1131  0.3574
 7468W        W 9668  26.986   5.941   8.641 -0.2971  0.0611  0.0496
 7469W        W 9669   0.120   1.975  10.576 -0.1573  0.1089 -0.2592
 7470W        W 9670  19.234   0.291   0.271  0.2964 -0.1633 -0.2156
 7471W        W 9671   6.409   0.411   0.326 -0.0030  0.0628  0.2816
 7472W        W 9672  14.585   4.888   3.140 -0.0609 -0.1432  0.2037
 7473W        W 9673  14.781   5.876  17.736  0.0078  0.1541  0.1828
 7474W        W 9674   5.648   2.506  22.006  0.0756 -0.1575  0.0046
 7475W        W 9675  28.161   6.525  22.830  0.1516 -0.0314 -0.2170
 7476W        W 9676   6.555   5.825  25.923  0.1918 -0.0601  0.1680
 7477W        W 9677  10.314   5.942  21.935  0.2450 -0.1805  0.1287
 7478W        W 9678  17.082   1.730   3.664  0.0953  0.0124  0.2311
 7479W        W 9679  25.843   7.774  22.296  0.1222  0.5098 -0.0891
 7480W        W 9680   3.158   1.854  20.412  0.1127 -0.1947  0.1094
 7481W        W 9681  10.861   0.402   1.691 -0.1964 -0.0626  0.1482
 7482W        W 9682  28.655   6.533   8.738 -0.0447 -0.4405  0.1339
 7483W        W 9683  14.839   5.747   9.861 -0.2179 -0.1335 -0.3540
 7484W        W 9684  21.298   4.710  16.568 -0.0231  0.1816 -0.1844
 7485W        W 9685  21.800   1.130   0.738 -0.2329  0.1455 -0.0640
 7486W        W 9686  20.280   5.021  25.029 -0.0853  0.0552 -0.2271
 7487W        W 9687  14.049   7.409   1.488 -0.4677 -0.1732  0.1416
 7488W        W 9688  13.872   1.817   8.097 -0.0789  0.1438 -0.2560
 7489W        W 9689  12.256   3.781   3.487  0.5897 -0.1543 -0.2843
 7490W        W 9690   4.570   6.808  25.397  0.0015  0.1756  0.0521
 7491W        W 9691  21.766   3.478  22.130 -0.3572 -0.1384 -0.0258
 7492W        W 9692   9.657   4.787   4.838 -0.0625  0.0335  0.0133
 7493W        W 9693  17.379   2.912   1.261 -0.0407 -0.3687  0.0766
 7494W        W 9694  13.539   2.579  22.245  0.1290  0.2501 -0.2504
 7495W        W 9695  19.939   1.329  16.777  0.0604  0.2378 -0.2556
 7496W        W 9696  12.676   5.479  16.288 -0.0905  0.0973 -0.0348
 7497W        W 9697   3.440   2.567   9.053 -0.2226  0.2311  0.4177
 7498W        W 9698  22.511   1.804   8.716  0.1591  0.0335 -0.0192
 7499W        W 9699  24.890   2.799   4.981 -0.0308  0.3746 -0.2555
 7500W        W 9700  30.464   1.346  15.190 -0.3325 -0.1345  0.0955
 7501W        W 9701  11.441   6.494   1.158  0.2583  0.0907 -0.1495
 7502W        W 9702  15.603   5.448  16.316  0.2053  0.1064 -0.1252
 7503W        W 9703   8.850   3.756   7.850 -0.0830  0.0246 -0.0197
 7504W        W 9704   7.838   2.038   9.139  0.1521 -0.0141 -0.0097
 7505W        W 9705  28.746   2.622  19.606 -0.2205 -0.2367  0.0492
 7506W        W 9706   0.400   7.594  19.474  0.0239  0.0467 -0.1762
 7507W        W 9707  10.778   3.136   8.239  0.0517  0.1323 -0.2381
 7508W        W 9708  26.232   1.687  18.015  0.1621 -0.1371 -0.0295
 7509W        W 9709  12.579   5.456   5.138 -0.2819 -0.1851  0.1220
 7510W        W 9710  13.434   3.813  22.917  0.1665 -0.2281 -0.1605
 7511W        W 9711  14.041   3.125   3.202 -0.0251 -0.2703 -0.0989
 7512W        W 9712  26.874   2.836  23.735 -0.0021 -0.1648  0.2194
 7513W        W 9713  12.240   7.782  18.023 -0.0363  0.1453 -0.2531
 7514W        W 9714  11.039   0.776  24.703  0.0218 -0.0960 -0.1887
 7515W        W 9715   6.960   4.206   0.966 -0.0215 -0.0809  0.0800
 7516W        W 9716  10.297   3.023  26.122  0.1038  0.0437  0.1603
 7517W        W 9717  22.150   4.361  10.653  0.2391 -0.1148  0.3636
 7518W        W 9718  28.673   3.308  22.827 -0.2828 -0.0064 -0.0934
 7519W        W 9719  21.662   7.053  22.361 -0.0172 -0.1037  0.1584
 7520W        W 9720  24.830   5.372  25.940 -0.3884 -0.0258  0.3760
 7521W        W 9721   6.054   2.086  18.637  0.3156 -0.2536  0.1349
 7522W        W 9722   0.173   6.587   5.258  0.0075  0.1560  0.2860
 7523W        W 9723   1.194   1.588   1.512 -0.1545 -0.0185 -0.2047
 7524W        W 9724  19.613   2.018  16.933 -0.1561  0.1866  0.0205
 7525W        W 9725  18.457   2.974  22.988 -0.0152  0.0872 -0.0858
 7526W        W 9726  30.976   7.327   5.104  0.1227 -0.0174  0.2445
 7527W        W 9727   1.608   0.606  20.459 -0.2162  0.0161  0.0723
 7528W        W 9728   4.379   3.076   6.154  0.0173  0.1567  0.2002
 7529W        W 9729  19.565   4.245  16.131 -0.0007  0.0877  0.1505
 7530W        W 9730  30.976   4.475   0.605  0.0598  0.1120 -0.1447
 7531W        W 9731  21.700   4.045   8.574 -0.2881  0.1567 -0.0560
 7532W        W 9732  15.780   1.593   6.831 -0.1203 -0.2833 -0.0549
 7533W        W 9733   2.212   3.186   9.179  0.0636  0.1757 -0.0868
 7534W        W 9734  29.093   5.767  16.001 -0.0707  0.0674 -0.1032
 7535W        W 9735  22.124   3.686  17.422  0.1168  0.3287 -0.4344
 7536W        W 9736  19.014   2.726  21.630 -0.1809  0.1769 -0.2084
 7537W        W 9737  10.080   3.376  17.017 -0.0724  0.0999 -0.1700
 7538W        W 9738  15.901   0.941  15.875  0.2020  0.1994 -0.1967
 7539W        W 9739   0.634   2.174  17.070  0.0957  0.0120 -0.0540
 7540W        W 9740  14.408   5.228  20.973  0.0372 -0.0982  0.1315
 7541W        W 9741  12.464   5.283  25.722  0.0854  0.0839 -0.3853
 7542W        W 9742  10.787   2.314  19.586  0.0288 -0.3978 -0.2750
 7543W        W 9743  31.055   3.284  18.668 -0.3705  0.0833  0.0010
 7544W        W 9744  12.181   4.156  21.912  0.2156  0.2778 -0.1170
 7545W        W 9745  17.872   0.505   4.626 -0.1788  0.1028 -0.1586
 7546W        W 9746  28.960   5.637  26.140  0.2275  0.0584  0.1777
 7547W        W 9747  31.254   5.028  21.106 -0.3654 -0.0771  0.1127
 7548W        W 9748  18.576   4.708  17.166 -0.1282  0.0219  0.0021
 7549W        W 9749  22.092   0.985   1.101  0.0108 -0.1643  0.0448
 7550W        W 9750  25.070   2.956   2.780 -0.2096  0.1064 -0.2782
 7551W        W 9751  19.108   3.436   0.858 -0.3834 -0.0392  0.1340
 7552W        W 9752  13.247   0.728  17.486  0.2250  0.3667  0.0131
 7553W        W 9753  20.502   1.451   8.261 -0.0130 -0.3089 -0.2096
 7554W        W 9754  13.798   6.926   1.430  0.1336  0.1010 -0.1169
 7555W        W 9755  19.308   7.108  10.337 -0.2777 -0.0837 -0.2765
 7556W        W 9756  15.585   6.735   3.791  0.0713 -0.0437  0.3179
 7557W        W 9757   8.472   0.051  22.950  0.3043 -0.1184  0.0425
 7558W        W 9758   4.332   4.499  23.424  0.2803  0.1109  0.0456
 7559W        W 9759   5.411   2.249  16.532  0.0863  0.1125 -0.1564
 7560W        W 9760  27.783   7.669   3.487  0.0417  0.2174 -0.2305
 7561W        W 9761  27.017   5.156   9.811 -0.3405  0.1462  0.1429
 7562W        W 9762  19.079   0.832   1.144  0.0244 -0.1557  0.0828
 7563W        W 9763  14.229   1.897   8.632  0.0569  0.1322 -0.0376
 7564W        W 9764  14.598   5.721   4.033  0.1539 -0.1109 -0.0131
 7565W        W 9765   5.532   6.874   9.122 -0.1895 -0.0838  0.0848
 7566W        W 9766  28.718   5.957  21.106  0.1673  0.3369 -0.1086
 7567W        W 9767   3.581   5.795   7.479 -0.0084  0.1752 -0.5046
 7568W        W 9768  10.663   4.106  16.490  0.2269  0.1041 -0.0173
 7569W        W 9769  16.370   6.668   7.496  0.0268  0.2800  0.5463
 7570W        W 9770   7.425   4.571  20.708 -0.1544  0.1266 -0.0981
 7571W        W 9771   7.558   7.228   4.148 -0.0001  0.0908  0.1256
 7572W        W 9772  28.188   2.208   6.759  0.1006 -0.0890  0.2471
 7573W        W 9773  19.427   2.746   6.038 -0.1309 -0.0375  0.0901
 7574W        W 9774  19.607   7.320  20.868 -0.0650  0.3581  0.0713
 7575W        W 9775  15.076   0.119   2.065  0.1634  0.2019 -0.0225
 7576W        W 9776  21.527   6.252  19.607  0.2013 -0.0564  0.1312
 7577W        W 9777  24.782   2.802  24.773 -0.2493  0.0332 -0.0882
 7578W        W 9778  29.815   7.346  20.362  0.1475  0.2374 -0.2636
 7579W        W 9779  13.984   1.740  18.909 -0.0230  0.0484 -0.1323
 7580W        W 9780  10.843   7.060   4.055  0.1355 -0.3338  0.1117
 7581W        W 9781  22.970   0.699  21.623  0.1791 -0.2972 -0.3068
 7582W        W 9782  30.903   2.617  20.087 -0.0381  0.0595  0.2987
 7583W        W 9783   7.867   7.034   0.915  0.1541 -0.1914  0.1201
 7584W        W 9784   5.842   0.221  23.188 -0.0774 -0.2970  0.0923
 7585W        W 9785  23.967   3.275   8.159 -0.0565  0.0469 -0.0110
 7586W        W 9786  15.255   2.468  22.088  0.1192 -0.0912  0.1516
 7587W        W 9787  19.855   0.800   1.470  0.1533 -0.4896  0.1004
 7588W        W 9788  10.117   0.955  20.530  0.2154 -0.0733  0.0845
 7589W        W 9789  24.753   3.045  22.776  0.1199  0.3267 -0.1219
 7590W        W 9790  27.406   0.154  24.310  0.1531 -0.0077 -0.1469
 7591W        W 9791  13.775   2.096  25.196  0.0013 -0.2200  0.0252
 7592W        W 9792  29.461   4.418  11.204 -0.1974 -0.1133  0.0576
 7593W        W 9793   7.441   6.461   4.555 -0.1721  0.1568 -0.0211
 7594W        W 9794   7.962   2.771   1.821  0.0561  0.1262  0.0125
 7595W        W 9795   6.191   6.639   5.622  0.4905  0.0394  0.1159
 7596W        W 9796   5.628   2.131  19.727 -0.2510  0.3397 -0.1342
 7597W        W 9797  17.245   3.271   7.458 -0.0514 -0.0381 -0.2856
 7598W        W 9798  17.572   3.631  24.001 -0.1638 -0.0406  0.0606
 7599W        W 9799  24.027   5.308   2.820  0.2033  0.1754  0.2493
 7600W        W 9800  31.258   1.187  17.563  0.2100 -0.0275  0.1345
 7601W        W 9801  22.919   3.318   4.075  0.1269 -0.0891  0.1714
 7602W        W 9802  26.621   1.589   1.364 -0.0554 -0.0519 -0.3628
 7603W        W 9803   3.070   3.834  18.120  0.1003 -0.1819 -0.0529
 7604W        W 9804  19.895   0.200   4.557  0.0730 -0.0235  0.2650
 7605W        W 9805   1.025   7.421  10.134  0.1287  0.4802  0.3350
 7606W        W 9806  28.255   2.324  18.588  0.0985 -0.0848 -0.1683
 7607W        W 9807  20.051   1.380  25.694 -0.0234  0.1168 -0.3531
 7608W        W 9808   1.505   0.063  24.661  0.2484  0.0463 -0.0352
 7609W        W 9809  19.155   7.104  20.176  0.4269 -0.1189 -0.0223
 7610W        W 9810   5.984   2.663   6.455  0.0748  0.0367  0.0021
 7611W        W 9811   2.621   2.288   5.970  0.3089 -0.2458  0.0862
 7612W        W 9812  22.997   7.758  19.095  0.0997  0.2300 -0.0172
 7613W        W 9813   3.378   6.336   5.284  0.0799 -0.1328  0.2363
 7614W        W 9814   2.863   0.089   5.903 -0.3612  0.1969 -0.0846
 7615W        W 9815   4.376   3.296   8.732 -0.0381 -0.0362 -0.1323
 7616W        W 9816  29.431   6.800  24.646 -0.1032 -0.1396 -0.1706
 7617W        W 9817   8.316   6.221   4.737  0.1782  0.0393  0.0529
 7618W        W 9818  28.100   6.652   8.822  0.1550 -0.2081  0.1294
 7619W        W 9819   7.480   6.974  17.919  0.3000  0.0081 -0.0171
 7620W        W 9820  11.773   5.362   8.071  0.3264  0.0123  0.0680
 7621W        W 9821  22.101   1.483   4.745  0.2957  0.0631 -0.1451
 7622W        W 9822  29.005   7.014   0.478  0.0184 -0.0413  0.1770
 7623W        W 9823  11.946   7.459  22.340  0.1010  0.0436  0.0254
 7624W        W 9824   8.897   5.558   9.256 -0.2018  0.1786 -0.0617
 7625W        W 9825  25.229   4.448  21.574  0.0848 -0.0156  0.1658
 7626W        W 9826  24.818   5.180   9.234  0.2279 -0.2774  0.1385
 7627W        W 9827   0.473   5.877   4.848  0.0792 -0.0819 -0.3844
 7628W        W 9828  25.636   4.746  22.874 -0.2646  0.1381 -0.0395
 7629W        W 9829  15.405   4.470   6.795 -0.0611 -0.2393 -0.0147
 7630W        W 9830  23.416   4.644   9.462  0.1184  0.0377 -0.0117
 7631W        W 9831  15.298   2.559  19.716 -0.2123  0.1883 -0.0733
 7632W        W 9832  25.673   3.952   6.497 -0.0314  0.0755 -0.0486
 7633W        W 9833  18.692   6.850   6.059 -0.0835 -0.1647 -0.2136
 7634W        W 9834   2.915   2.093  23.887  0.1731 -0.2226  0.1714
 7635W        W 9835  29.508   7.080   6.335  0.1435 -0.3054 -0.4121
 7636W        W 9836   2.758   3.295   8.512 -0.0708 -0.0028  0.0027
 7637W        W 9837  24.268   4.895   3.795 -0.1154  0.0596 -0.1400
 7638W        W 9838  16.903   4.971  16.597  0.1552 -0.0750 -0.1401
 7639W        W 9839  17.265   0.204  16.647  0.0695  0.0407  0.5073
 7640W        W 9840  10.182   3.995   2.081 -0.3192  0.0410 -0.2803
 7641W        W 9841  14.537   0.816  21.654 -0.1488 -0.0752  0.0817
 7642W        W 9842   9.822   2.542  16.541 -0.0549  0.2893  0.1316
 7643W        W 9843  14.786   6.473   0.466  0.2341 -0.0810  0.3789
 7644W        W 9844   9.461   5.533   2.275  0.2203  0.0440  0.0334
 7645W        W 9845  15.485   5.814  16.027  0.0404 -0.3509 -0.4431
 7646W        W 9846  26.916   7.432   7.954  0.3046  0.2093  0.0616
 7647W        W 9847  17.165   5.994   4.039  0.2102  0.2156 -0.2040
 7648W        W 9848  30.751   4.112   1.036 -0.1012  0.3337  0.1338
 7649W        W 9849  25.594   7.035  22.715  0.2761 -0.3093 -0.3007
 7650W        W 9850  30.334   7.136  11.305 -0.1751  0.0291 -0.0673
 7651W        W 9851  29.574   6.528  10.578  0.1748 -0.0200 -0.3091
 7652W        W 9852  22.482   1.542   0.411 -0.0313  0.0486  0.2936
 7653W        W 9853  29.904   2.958   9.077  0.1657  0.0385  0.3950
 7654W        W 9854  19.618   7.455   0.936 -0.0513 -0.0873 -0.0703
 7655W        W 9855  13.035   5.106   1.454  0.2235 -0.0127 -0.0752
 7656W        W 9856   8.731   3.095  26.081  0.1870  0.1133  0.0774
 7657W        W 9857   7.862   5.285   8.489  0.1564 -0.1534  0.3046
 7658W        W 9858   5.522   4.366  24.720  0.0165  0.1844 -0.2601
 7659W        W 9859  14.121   4.745  11.215  0.2070 -0.1712  0.2104
 7660W        W 9860  26.741   3.693  11.348 -0.2184 -0.1079 -0.0273
 7661W        W 9861   3.748   7.415   2.334 -0.1080  0.0994  0.1597
 7662W        W 9862   8.482   4.699   5.827  0.0629  0.1022  0.1000
 7663W        W 9863  25.291   6.847  24.935 -0.1333  0.1521 -0.2709
 7664W        W 9864   3.713   0.134  16.043 -0.0066 -0.0042  0.1284
 7665W        W 9865   1.549   6.023   0.530 -0.0902  0.1472 -0.0856
 7666W        W 9866  15.564   4.814   8.282  0.1296 -0.1995  0.2352
 7667W        W 9867   8.055   0.162  25.530 -0.2636  0.0494 -0.5296
 7668W        W 9868  18.120   1.231   9.936 -0.2065  0.1925  0.0144
 7669W        W 9869  21.893   0.848   6.801  0.3404 -0.2303 -0.0658
 7670W        W 9870  29.344   1.165  10.516 -0.2319  0.1724  0.0322
 7671W        W 9871   1.857   7.601   8.550 -0.0286  0.0035  0.1447
 7672W        W 9872   8.566   6.625  16.935 -0.2295  0.0521  0.2273
 7673W        W 9873  21.530   2.795  23.228  0.0600  0.2010 -0.0332
 7674W        W 9874   0.827   3.948   6.491  0.0097  0.1876  0.2022
 7675W        W 9875  30.323   6.304   1.560  0.1495  0.1889 -0.2315
 7676W        W 9876   1.542   3.415  10.321 -0.1263  0.0616 -0.0552
 7677W        W 9877  21.192   1.132  16.991 -0.3874  0.1217 -0.1144
 7678W        W 9878   5.078   4.182  11.101 -0.0673  0.0676 -0.1345
 7679W        W 9879   6.858   6.795  25.701  0.1550  0.0023 -0.0558
 7680W        W 9880   3.339   7.650  10.851  0.1297  0.0693  0.0983
 7681W        W 9881  28.904   7.270   0.892 -0.0424  0.0668 -0.1152
 7682W        W 9882  12.156   0.102   1.519  0.3052  0.1237 -0.2830
 7683W        W 9883  25.695   3.705  24.489 -0.2133 -0.2908 -0.2409
 7684W        W 9884   7.766   5.008  10.782  0.2882 -0.2604  0.3535
 7685W        W 9885   0.451   6.152  10.742 -0.1649  0.4238 -0.1512
 7686W        W 9886  28.607   2.826  22.662  0.0563  0.3164  0.0379
 7687W        W 9887   8.611   4.724  23.093 -0.1369 -0.1211  0.4123
 7688W        W 9888  27.608   7.435  10.035 -0.0164  0.0458  0.1912
 7689W        W 9889   4.908   3.913  24.083 -0.1810  0.2755  0.4678
 7690W        W 9890   6.173   6.684   7.888 -0.1894 -0.1109  0.0270
 7691W        W 9891   7.226   0.084  22.100  0.1610 -0.0798 -0.2597
 7692W        W 9892  13.283   3.803   4.771 -0.1258 -0.0240  0.0744
 7693W        W 9893  14.468   6.367  15.707  0.0496 -0.0905 -0.2264
 7694W        W 9894  29.116   4.849   8.574  0.4250 -0.1855 -0.1630
 7695W        W 9895   1.820   2.876  16.999  0.4487  0.0080  0.0625
 7696W        W 9896  19.060   4.647  23.590  0.0509 -0.0228 -0.0791
 7697W        W 9897  29.143   0.783  19.209 -0.1887 -0.2225  0.0007
 7698W        W 9898   9.998   5.036  21.762  0.1804  0.2039  0.0620
 7699W        W 9899   6.533   4.277   3.462 -0.0510 -0.3112 -0.1236
 7700W        W 9900  23.053   0.498  15.080 -0.1898 -0.1482  0.2408
 7701W        W 9901  25.858   1.767  21.182  0.1351 -0.1757  0.0480
 7702W        W 9902   9.654   2.140   1.608 -0.1581  0.0347 -0.1119
 7703W        W 9903   0.814   6.646   8.862  0.1705 -0.0216  0.1070
 7704W        W 9904  28.191   2.878  17.211  0.3709 -0.0502  0.1071
 7705W        W 9905   4.248   0.597  21.303 -0.1980 -0.2132  0.0235
 7706W        W 9906  24.367   3.480   3.066 -0.3109  0.0718  0.0471
 7707W        W 9907  12.267   5.046   8.089 -0.0980 -0.1734  0.2420
 7708W        W 9908  23.999   7.652  25.143  0.2078  0.0025 -0.0541
 7709W        W 9909   1.566   7.387  26.169 -0.0199  0.1465 -0.3782
 7710W        W 9910   0.302   6.393  18.342 -0.0090 -0.1016  0.1065
 7711W        W 9911   5.043   5.231   7.432  0.0893 -0.0331 -0.0257
 7712W        W 9912  15.350   4.898  19.223 -0.0086  0.0566  0.0921
 7713W        W 9913  28.905   0.268   2.368 -0.0726 -0.0714  0.0117
 7714W        W 9914  19.755   6.842   6.968 -0.0219  0.1262 -0.1000
 7715W        W 9915   7.223   3.164  25.081 -0.1023 -0.2066 -0.0307
 7716W        W 9916  19.886   0.861  25.845 -0.0945  0.0803  0.1889
 7717W        W 9917  28.606   3.431  10.941 -0.0146  0.0540  0.1029
 7718W        W 9918  27.529   4.262   1.039  0.2022 -0.2161  0.1803
 7719W        W 9919  29.184   7.819  22.095 -0.1953  0.1464  0.2215
 7720W        W 9920  26.340   7.451  20.418  0.1826 -0.1762  0.0059
 7721W        W 9921   9.537   1.664   7.740 -0.1367  0.2081  0.2889
 7722W        W 9922  11.799   1.737  16.066 -0.0897  0.0245 -0.0775
 7723W        W 9923  24.199   3.754   4.438  0.0641  0.2845 -0.0771
 7724W        W 9924  16.624   4.965  19.118  0.0251 -0.1277  0.4447
 7725W        W 9925  20.160   6.300  17.443 -0.0658  0.0059  0.1363
 7726W        W 9926   7.645   2.808  18.359 -0.1340 -0.1402  0.1915
 7727W        W 9927   2.996   3.028   7.606 -0.2201  0.2335 -0.1944
 7728W        W 9928   2.915   5.499   6.664 -0.0134 -0.2196 -0.0270
 7729W        W 9929   4.209   7.635  23.394  0.2173 -0.2594 -0.1248
 7730W        W 9930  30.377   5.918  23.206 -0.1874  0.0955  0.3642
 7731W        W 9931   2.757   3.691   9.409  0.1934  0.0798 -0.0803
 7732W        W 9932   0.491   0.587  21.771  0.1405  0.0521  0.0955
 7733W        W 9933   7.598   5.279  22.684 -0.0576 -0.0233  0.2118
 7734W        W 9934  23.557   3.194  24.409  0.0358  0.1860  0.2109
 7735W        W 9935  10.054   6.100  20.641 -0.0601  0.0260 -0.3126
 7736W        W 9936  20.639   0.937  22.571  0.0264  0.3206 -0.3952
 7737W        W 9937   1.954   1.386  17.443 -0.0555  0.2970 -0.2313
 7738W        W 9938   5.805   6.692  17.058 -0.0840 -0.3279 -0.0988
 7739W        W 9939  26.376   1.413  20.430 -0.1537 -0.1253  0.0025
 7740W        W 9940  21.823   2.517   2.952 -0.1571  0.1568  0.2029
 7741W        W 9941  10.376   2.854  21.331 -0.0981 -0.1240 -0.1024
 7742W        W 9942   0.865   5.836  24.543  0.1046  0.2155  0.2145
 7743W        W 9943   2.611   7.375  26.022  0.1131 -0.1565 -0.1555
 7744W        W 9944  27.659   5.280  22.324  0.2184 -0.2591 -0.0138
 7745W        W 9945  16.353   7.283  10.614  0.0739  0.1576 -0.2608
 7746W        W 9946  14.767   3.143  21.107  0.0097  0.1232  0.2752
 7747W        W 9947  14.554   0.635  22.799  0.0762 -0.0120 -0.1320
 7748W        W 9948  28.526   6.454   2.190  0.0306  0.3071  0.2978
 7749W        W 9949  29.889   4.911  18.513 -0.2364  0.0916 -0.1827
 7750W        W 9950  29.568   1.711  19.297  0.0227  0.2283  0.0408
 7751W        W 9951   9.391   2.308  22.480 -0.0883 -0.1071  0.0508
 7752W        W 9952  16.774   5.156   7.915 -0.1107  0.0539  0.2403
 7753W        W 9953   1.076   2.302   6.330 -0.1556 -0.1681  0.1990
 7754W        W 9954   4.647   2.379  17.469 -0.0223 -0.1585 -0.0626
 7755W        W 9955   0.095   4.336   1.488  0.1002 -0.1150  0.1166
 7756W        W 9956  15.098   1.105   2.931 -0.5145  0.1623  0.1916
 7757W        W 9957   2.037   4.864   7.218 -0.1395  0.0268  0.1181
 7758W        W 9958   9.257   6.282   4.557  0.3012 -0.0401 -0.1893
 7759W        W 9959   2.681   5.862  21.590  0.2895  0.0832  0.0884
 7760W        W 9960   8.831   7.021  16.543 -0.2660 -0.0837 -0.0746
 7761W        W 9961  23.946   2.755  21.153  0.0630  0.0660 -0.0527
 7762W        W 9962  10.731   5.307  17.410  0.3516  0.0440  0.2224
 7763W        W 9963  26.665   5.149   8.348 -0.1293 -0.0703 -0.1253
 7764W        W 9964   0.281   6.602  15.967  0.2892  0.0024  0.0650
 7765W        W 9965  17.327   3.032   1.818 -0.0795  0.0941  0.2429
 7766W        W 9966  25.670   6.700   2.797  0.0183 -0.0929  0.1679
 7767W        W 9967   7.272   6.071   3.486 -0.3257  0.0625  0.3998
 7768W        W 9968  20.180   0.360  26.106 -0.0888 -0.1625  0.0840
 7769W        W 9969   6.150   0.078   7.010 -0.1539  0.1448  0.0982
 7770W        W 9970   5.320   6.974  26.061 -0.0316  0.6757  0.4604
 7771W        W 9971  12.528   7.598  14.992  0.0206 -0.2148  0.2332
 7772W        W 9972  13.237   5.666   7.424  0.1903 -0.0840 -0.0421
 7773W        W 9973  30.082   5.305  10.182  0.2836 -0.0863  0.2200
 7774W        W 9974  23.417   4.898  25.639  0.1355  0.0433  0.0875
 7775W        W 9975   9.365   2.954  24.265  0.5426 -0.2502  0.2709
 7776W        W 9976  24.391   5.772  10.517 -0.2800  0.3102 -0.2928
 7777W        W 9977  13.780   7.809  17.682 -0.3054  0.1148 -0.5595
 7778W        W 9978  14.072   6.454   5.275  0.1150 -0.4828 -0.1666
 7779W        W 9979  28.712   1.772  10.858  0.2532 -0.0711  0.2121
 7780W        W 9980  18.514   7.815   4.627  0.2429 -0.1926 -0.0825
 7781W        W 9981  20.324   1.004   2.126 -0.0160 -0.1762 -0.1679
 7782W        W 9982  15.582   1.760   8.668  0.1276  0.0679  0.1035
 7783W        W 9983  22.352   7.765  17.696 -0.1877 -0.1116 -0.1351
 7784W        W 9984   7.547   5.663  23.447  0.1863  0.0260 -0.2444
 7785W        W 9985  21.402   4.928   5.428  0.2732  0.2459  0.0917
 7786W        W 9986  24.102   2.144   4.833 -0.0764 -0.2198  0.1896
 7787W        W 9987  21.632   6.392  18.654 -0.3111  0.2392  0.0018
 7788W        W 9988  24.135   4.192   3.457 -0.2426  0.1622  0.1435
 7789W        W 9989  26.632   2.297   2.445 -0.2664 -0.3581 -0.0804
 7790W        W 9990  29.434   3.576   3.844  0.0472 -0.4967 -0.1275
 7791W        W 9991  13.834   7.264   0.985  0.1096  0.1359 -0.2265
 7792W        W 9992  13.143   6.266  21.820  0.2364 -0.0196  0.0644
 7793W        W 9993   4.238   4.813   2.400 -0.0766  0.0242 -0.1414
 7794W        W 9994   3.666   1.356   7.951 -0.0176  0.0089  0.0220
 7795W        W 9995   2.370   4.390  23.936 -0.0189  0.0968 -0.4385
 7796W        W 9996   2.052   4.966   5.368 -0.0461  0.0831  0.3693
 7797W        W 9997   3.177   7.011  21.206 -0.1326 -0.1471  0.0016
 7798W        W 9998   2.096   5.478   3.351  0.2769  0.2054  0.0915
 7799W        W 9999  10.003   1.689   1.773  0.2079 -0.4347  0.1679
 7800W        W10000  10.047   3.733  20.954  0.3377  0.1683  0.1905
 7801W        W10001  18.484   4.411   2.825  0.0495  0.2087  0.0827
 7802W        W10002  13.766   1.278   8.508  0.2936  0.2601 -0.2077
 7803W        W10003  12.039   1.851   6.909 -0.1805 -0.2056  0.0794
 7804W        W10004  18.252   5.912  14.956 -0.2216  0.2324  0.0793
 7805W        W10005  26.957   3.616  16.017 -0.1571  0.1187 -0.0518
 7806W        W10006  24.388   6.068   7.177  0.2679 -0.1422  0.3107
 7807W        W10007  19.521   0.591   8.714  0.0545  0.1188  0.0309
 7808W        W10008  23.894   6.007  22.513  0.1574  0.0769  0.2747
 7809W        W10009  17.692   6.017  17.366 -0.0014  0.2939 -0.3410
 7810W        W10010  24.066   0.058  23.535  0.0575  0.0460  0.1603
 7811W        W10011  21.169   3.972  20.754  0.0951 -0.0380 -0.1915
 7812W        W10012  20.761   1.368   2.250 -0.1176  0.0358 -0.0857
 7813W        W10013   9.397   5.730   9.362 -0.1091 -0.1110 -0.0642
 7814W        W10014  24.540   6.832   0.398 -0.2687 -0.2450 -0.0371
 7815W        W10015  11.470   1.996  18.765  0.1346  0.0735 -0.0138
 7816W        W10016   9.304   4.613   8.209  0.3488  0.2430 -0.0135
 7817W        W10017  15.579   7.523  15.620 -0.1375 -0.3708  0.0436
 7818W        W10018  22.097   4.025  16.640  0.1265  0.0204 -0.1009
 7819W        W10019   5.096   7.153   8.401 -0.0041  0.1590 -0.1752
 7820W        W10020  28.025   0.586  26.183  0.3379  0.2901 -0.1891
 7821W        W10021   1.516   1.158  10.097  0.2843  0.0541 -0.0981
 7822W        W10022   6.338   2.190  16.755 -0.1865 -0.1799 -0.0256
 7823W        W10023  10.054   2.960   2.813 -0.2398 -0.3010  0.0128
 7824W        W10024  22.166   0.366  16.670 -0.0769 -0.0011  0.1745
 7825W        W10025  19.897   4.421   0.704 -0.2273 -0.1886 -0.0878
 7826W        W10026   4.039   3.470  15.591 -0.1359  0.3272  0.0716
 7827W        W10027   6.012   4.954   7.003 -0.1259  0.0680  0.0677
 7828W        W10028  27.805   3.700  22.395  0.1335 -0.2096 -0.1332
 7829W        W10029  16.104   7.293  23.605  0.3153  0.0591  0.3111
 7830W        W10030  12.244   2.576   5.387  0.1807  0.1052 -0.3033
 7831W        W10031  15.669   1.329  16.127  0.2248 -0.3293  0.2686
 7832W        W10032   3.209   5.492  10.078 -0.0666 -0.2386  0.0669
 7833W        W10033   4.352   2.945  23.643  0.1627  0.2002  0.1951
 7834W        W10034  23.091   0.569  22.136 -0.0250  0.0716 -0.2499
 7835W        W10035  14.380   6.566  24.194  0.1008 -0.0415  0.4371
 7836W        W10036  25.767   6.464  10.142 -0.0678 -0.0329 -0.1890
 7837W        W10037   8.146   3.986  16.453  0.0611 -0.2071 -0.1141
 7838W        W10038   5.670   2.093   5.379 -0.1513 -0.2853 -0.1312
 7839W        W10039  17.855   2.357   4.267  0.2735  0.0829 -0.0601
 7840W        W10040   2.237   1.580   2.190 -0.0040 -0.0921 -0.0058
 7841W        W10041  22.808   6.062  25.225  0.0837 -0.1231 -0.0943
 7842W        W10042  19.929   2.069  10.400 -0.1122 -0.2045  0.1948
 7843W        W10043   8.097   2.553   0.317 -0.1888 -0.2313  0.0095
 7844W        W10044   9.251   0.044  16.729  0.1899 -0.1022  0.4210
 7845W        W10045  30.996   2.825   8.961 -0.0535  0.2258  0.1699
 7846W        W10046   6.641   7.438   0.526 -0.2280  0.3095 -0.0230
 7847W        W10047   0.249   5.588  19.665 -0.1010 -0.1188  0.1207
 7848W        W10048  27.321   3.025   2.207  0.0378 -0.0735 -0.1942
 7849W        W10049  14.036   4.205  16.263 -0.2861  0.2094 -0.2163
 7850W        W10050  11.529   0.600  24.816 -0.1589  0.2041 -0.0229
 7851W        W10051  18.945   4.425  24.579  0.1911 -0.1415 -0.1644
 7852W        W10052   3.702   3.803  25.763  0.0581  0.0915 -0.2632
 7853W        W10053  21.980   5.883   8.526 -0.0241  0.1296 -0.4146
 7854W        W10054  11.263   0.684  19.399  0.1709  0.2459  0.0427
 7855W        W10055   3.276   2.825   1.109 -0.1553  0.2232 -0.2195
 7856W        W10056  29.975   4.778  19.028 -0.2583  0.0779 -0.1703
 7857W        W10057  10.194   2.186  21.893 -0.0606  0.0704  0.0868
 7858W        W10058  26.500   3.573  20.827 -0.0204  0.2160 -0.0019
 7859W        W10059  22.698   5.140  21.750 -0.0887  0.0265  0.0531
 7860W        W10060  29.421   7.781  25.766  0.2211  0.1716 -0.4729
 7861W        W10061  12.277   5.518   4.037 -0.1893  0.2537 -0.2736
 7862W        W10062  29.769   3.762  23.372  0.4061 -0.3367  0.0253
 7863W        W10063  17.291   4.149  19.208  0.0262 -0.0167  0.1696
 7864W        W10064  16.050   4.663  11.086  0.3492  0.0274 -0.2792
 7865W        W10065  28.128   0.795  20.121 -0.2159  0.2118 -0.1405
 7866W        W10066   4.348   1.933  17.556 -0.2389  0.2664 -0.4808
 7867W        W10067   4.232   4.477  17.544  0.2426  0.1853 -0.3248
 7868W        W10068  12.540   1.324  25.070 -0.2813 -0.0842  0.0520
 7869W        W10069  28.089   4.203   0.946 -0.0317 -0.3024 -0.1162
 7870W        W10070   7.235   3.149   9.216  0.3057 -0.2909 -0.0098
 7871W        W10071  16.254   5.627  14.593 -0.0941  0.1140  0.1413
 7872W        W10072  29.899   1.782  24.053  0.0498 -0.3003 -0.2243
 7873W        W10073   0.006   0.821   1.943  0.1982 -0.2260  0.0881
 7874W        W10074  16.218   0.049  24.311 -0.0503 -0.0886  0.0434
 7875W        W10075   0.181   2.440   3.439 -0.1597  0.3892  0.0043
 7876W        W10076  26.068   3.956  20.005  0.3650 -0.0752 -0.1021
 7877W        W10077  23.264   7.493   2.544  0.2274 -0.3124 -0.1820
 7878W        W10078  14.526   5.707   5.073 -0.3281 -0.1269 -0.1544
 7879W        W10079  18.286   7.792  22.238  0.1683 -0.1300  0.1070
 7880W        W10080  10.546   7.578   5.824 -0.2421  0.0567  0.0507
 7881W        W10081  14.992   2.807   0.484  0.0681  0.1588 -0.3038
 7882W        W10082  20.518   1.320   0.853  0.1051  0.0580 -0.1816
 7883W        W10083   3.373   6.576   8.563  0.0627  0.4329  0.2159
 7884W        W10084  19.000   3.776  24.380 -0.1688  0.0014  0.2712
 7885W        W10085  12.279   2.872   6.147  0.1800 -0.2755  0.0746
 7886W        W10086  19.887   3.047   7.875 -0.0419  0.0801 -0.0046
 7887W        W10087  23.351   0.362  18.971 -0.2797  0.1308 -0.0999
 7888W        W10088  20.694   0.709   7.457  0.3465 -0.1684  0.3968
 7889W        W10089   9.220   1.457  16.134 -0.0882  0.1973 -0.0998
 7890W        W10090  16.420   5.523   2.958 -0.1519  0.1933  0.2102
 7891W        W10091  19.152   3.368   5.170  0.1798  0.0270  0.1091
 7892W        W10092  22.467   6.801  15.942 -0.1698  0.1813  0.2161
 7893W        W10093  10.816   1.369  18.699  0.1357  0.2361  0.1064
 7894W        W10094  14.205   1.956   0.550 -0.2555 -0.3350 -0.1128
 7895W        W10095  15.321   7.157  18.605  0.2182 -0.2044 -0.2213
 7896W        W10096  19.854   2.795   0.030  0.0284 -0.1245  0.1055
 7897W        W10097   3.722   2.586  20.338  0.4242  0.0719 -0.1990
 7898W        W10098  24.103   2.493  24.400  0.1246  0.1297  0.0212
 7899W        W10099  20.701   4.361  16.822  0.0427  0.1828 -0.4068
 7900W        W10100  24.932   1.856  10.606  0.0170  0.3791  0.0786
 7901W        W10101   8.533   3.425   5.252 -0.1431  0.0041 -0.3259
 7902W        W10102   0.322   0.204  16.852 -0.0340 -0.1001  0.1683
 7903W        W10103   5.283   6.100  19.165  0.2162  0.3324  0.0668
 7904W        W10104   1.039   2.705  22.143 -0.0525  0.1373 -0.1541
 7905W        W10105   3.808   2.421   3.665 -0.1541 -0.3239  0.2124
 7906W        W10106  16.333   3.150   1.866 -0.1239 -0.1798  0.0256
 7907W        W10107   4.332   5.013   3.031 -0.2266  0.0543 -0.0786
 7908W        W10108   2.534   3.546  23.671 -0.1079  0.1942  0.1889
 7909W        W10109  24.467   6.630   4.007 -0.0819  0.0871  0.0558
 7910W        W10110  23.395   6.717   3.845  0.0055 -0.3827  0.1422
 7911W        W10111  13.993   2.011   9.069  0.0366 -0.0761 -0.1654
 7912W        W10112   1.037   6.551  22.008  0.3837 -0.2845  0.1418
 7913W        W10113  28.329   6.578   6.795  0.0052 -0.0013  0.1154
 7914W        W10114  14.224   1.054   0.268 -0.2539 -0.3057 -0.0625
 7915W        W10115   9.184   0.344  24.195 -0.0337  0.0887  0.0588
 7916W        W10116  10.315   4.549  21.980 -0.0572  0.1125 -0.1273
 7917W        W10117   6.487   3.847   7.813 -0.0575  0.1306  0.1581
 7918W        W10118   9.163   6.423   0.576  0.0155  0.1827 -0.3312
 7919W        W10119  23.404   0.330   5.346  0.0871  0.0431 -0.1290
 7920W        W10120   7.986   3.750   1.169 -0.0324  0.1429 -0.1240
 7921W        W10121  25.667   4.846   5.754 -0.2517 -0.2697 -0.2484
 7922W        W10122   5.909   6.017   5.045 -0.1554  0.3265  0.1863
 7923W        W10123   3.611   3.505  21.892 -0.1115 -0.1693  0.0514
 7924W        W10124  16.165   6.612   3.767  0.0153 -0.1768 -0.2436
 7925W        W10125  25.148   1.078  10.316  0.0859  0.3684 -0.3932
 7926W        W10126   4.012   1.972  19.269  0.1470 -0.0627 -0.0925
 7927W        W10127  14.880   0.614  21.346  0.1826 -0.2835 -0.1497
 7928W        W10128   8.268   1.773   6.039  0.0101  0.0570 -0.0127
 7929W        W10129   2.061   7.054  23.423 -0.1348 -0.3095  0.0096
 7930W        W10130  22.652   2.524   5.495  0.1100 -0.0420 -0.0138
 7931W        W10131  18.834   7.651   2.116 -0.1819  0.0136  0.0705
 7932W        W10132  14.858   0.170  21.031  0.0469  0.1371 -0.0425
 7933W        W10133   5.641   3.726  24.568 -0.1499  0.0515 -0.1201
 7934W        W10134  10.851   1.423  19.835 -0.1511 -0.0482  0.0925
 7935W        W10135  31.008   4.391  21.053  0.1149 -0.0764 -0.0585
 7936W        W10136  31.104   3.751  21.933 -0.1671  0.1972 -0.0855
 7937W        W10137  27.848   4.836   3.345  0.2354 -0.0489  0.2023
 7938W        W10138  22.489   3.285  17.363  0.0293 -0.2080 -0.0268
 7939W        W10139  25.218   5.514   0.929 -0.0010  0.0452 -0.1590
 7940W        W10140   0.506   0.706  11.309 -0.3039  0.0497 -0.0040
 7941W        W10141  14.958   0.216  10.161  0.0666  0.1677 -0.0622
 7942W        W10142   9.212   0.422   5.883 -0.0483  0.0686 -0.2012
 7943W        W10143   8.129   2.561  23.696 -0.0199  0.2659  0.1406
 7944W        W10144  23.729   5.824   6.229 -0.0500  0.1029  0.0556
 7945W        W10145  13.206   6.956  16.444 -0.2783 -0.0005 -0.0743
 7946W        W10146  18.127   5.384   3.890  0.0353 -0.0028  0.0095
 7947W        W10147  14.113   4.174   3.532 -0.1983  0.2156 -0.1070
 7948W        W10148  30.434   6.972   4.087  0.1401 -0.1942 -0.2102
 7949W        W10149  22.401   4.713   4.523  0.0275  0.1263 -0.0042
 7950W        W10150  29.098   3.760  22.845  0.0277 -0.1379  0.2231
 7951W        W10151  26.773   7.629  21.878  0.4324  0.0129  0.1860
 7952W        W10152   6.565   6.535  21.710 -0.0614 -0.1391 -0.1419
 7953W        W10153  20.025   3.317  25.882 -0.2730  0.0509 -0.0531
 7954W        W10154  14.967   7.338   3.006  0.1216 -0.2174  0.0751
 7955W        W10155  12.638   3.445   3.599 -0.0065 -0.0184  0.3196
 7956W        W10156  11.354   7.023  23.546 -0.1064  0.3054  0.1480
 7957W        W10157   8.432   2.689  19.121  0.0373  0.2116  0.2937
 7958W        W10158   3.098   0.097   1.362 -0.0977 -0.1809 -0.0639
 7959W        W10159   8.341   1.369  19.901  0.2111  0.1804  0.0354
 7960W        W10160  18.233   0.900   0.891  0.0722  0.0845  0.0046
 7961W        W10161  11.473   4.737  21.803 -0.1536  0.1395  0.1251
 7962W        W10162  15.269   5.955  15.231 -0.0635 -0.1624 -0.2479
 7963W        W10163  29.842   2.292  17.578 -0.1142 -0.0937 -0.3338
 7964W        W10164   4.317   4.962  25.377  0.0039 -0.4197 -0.0874
 7965W        W10165   5.245   0.229  19.775 -0.2594 -0.0912 -0.3670
 7966W        W10166  29.082   7.337  17.423 -0.3475 -0.2898 -0.0784
 7967W        W10167  10.263   4.202   0.080 -0.4298 -0.2992  0.0278
 7968W        W10168  29.397   3.878   3.445  0.2364  0.1404  0.0143
 7969W        W10169   7.463   2.829   7.200 -0.0538  0.3455 -0.4351
 7970W        W10170  27.512   3.081   3.008 -0.1108 -0.1413  0.0047
 7971W        W10171  26.319   6.492   9.054 -0.0100 -0.1340 -0.1583
 7972W        W10172  15.508   4.943  24.018 -0.0917  0.0812 -0.2580
 7973W        W10173   9.625   6.930   9.806 -0.1281  0.2950 -0.2161
 7974W        W10174   7.834   4.428  16.996 -0.0553 -0.1517 -0.1178
 7975W        W10175  17.041   6.140  20.012  0.2886 -0.1705 -0.1471
 7976W        W10176  15.039   0.263   5.503 -0.0372 -0.1494  0.1258
 7977W        W10177   1.329   1.633   5.429  0.1559 -0.1105 -0.0217
 7978W        W10178   4.549   6.304   2.003 -0.0713  0.1231 -0.0765
 7979W        W10179  18.846   3.542   7.454 -0.3152  0.1380  0.0319
 7980W        W10180  18.155   5.868  20.989 -0.0772  0.0736 -0.0379
 7981W        W10181  25.763   5.384   9.294  0.0691 -0.2022  0.0820
 7982W        W10182   0.139   6.427  22.203 -0.1206  0.0964  0.3253
 7983W        W10183  12.159   0.600   6.383  0.0776 -0.0031 -0.1092
 7984W        W10184  22.817   7.352   9.734 -0.2609 -0.2747  0.1726
 7985W        W10185  24.070   7.040  20.536  0.4183  0.5249  0.1163
 7986W        W10186   7.106   3.362   4.254 -0.1384  0.1742 -0.1028
 7987W        W10187  12.226   6.410  16.312  0.1153  0.0785 -0.0713
 7988W        W10188   5.660   0.610  16.109  0.0225 -0.0208 -0.2113
 7989W        W10189  26.995   2.549  24.572  0.2446 -0.2158  0.0022
 7990W        W10190   7.555   5.375  20.391 -0.1741  0.0359 -0.1158
 7991W        W10191  24.433   2.103  16.026 -0.0968  0.0033  0.0938
 7992W        W10192   2.472   2.022  24.701 -0.1406  0.0150 -0.2277
 7993W        W10193   9.181   1.709   3.643 -0.0789 -0.1339 -0.0176
 7994W        W10194   6.093   7.068  10.075  0.0534 -0.1376  0.0325
 7995W        W10195   9.234   6.787  15.661 -0.2124 -0.1213  0.3443
 7996W        W10196   8.022   1.710  10.608  0.2443 -0.0648  0.1005
 7997W        W10197  27.835   4.867   9.105  0.0419 -0.0375 -0.4050
 7998W        W10198   6.701   6.849   9.203  0.0773 -0.4551  0.2354
 7999W        W10199  19.036   3.430  24.739  0.0433  0.0064  0.0038
 8000W        W10200  27.396   3.550  21.756  0.1302 -0.4301 -0.0335
 8001W        W10201  28.950   3.247   0.019  0.1505  0.1053  0.2493
 8002W        W10202  22.429   4.208  15.461 -0.1957 -0.1759  0.1246
 8003W        W10203  22.152   5.560  26.067 -0.0266 -0.0628 -0.0235
 8004W        W10204  20.686   3.062   8.841 -0.2286 -0.2237  0.1292
 8005W        W10205  11.441   3.833  16.728 -0.4166 -0.2155 -0.1443
 8006W        W10206   8.093   4.009   3.678  0.1053 -0.0039 -0.1227
 8007W        W10207  17.149   1.524   3.192  0.1669 -0.1583 -0.1008
 8008W        W10208  26.511   7.533  24.599 -0.2235  0.1673 -0.2062
 8009W        W10209   1.911   7.116  20.100  0.1015  0.2255  0.3286
 8010W        W10210   5.299   0.710  19.419  0.1190  0.0629 -0.1502
 8011W        W10211   2.465   0.856   9.927 -0.1032  0.1378  0.1637
 8012W        W10212  27.537   7.813   9.408  0.0154  0.2432 -0.0911
 8013W        W10213  28.734   2.730  17.268  0.3755 -0.0566 -0.0700
 8014W        W10214   2.028   5.276   8.254  0.2543  0.0791  0.1216
 8015W        W10215  14.613   6.150  23.217 -0.3021  0.4100 -0.0778
 8016W        W10216  30.314   1.839  17.588 -0.0393  0.1658 -0.1823
 8017W        W10217   4.224   0.077  22.606 -0.2275 -0.0839  0.2100
 8018W        W10218   6.304   5.692  21.557 -0.1216 -0.3481  0.2795
 8019W        W10219   2.366   1.450  10.398 -0.0271  0.3172 -0.1410
 8020W        W10220  31.238   2.068  23.508 -0.1816 -0.0744 -0.0647
 8021W        W10221  30.527   2.944  21.252 -0.2255  0.2605  0.2299
 8022W        W10222   6.831   3.768   0.598 -0.0970 -0.0433  0.0308
 8023W        W10223  15.123   5.914   3.615  0.1134 -0.0862 -0.3018
 8024W        W10224  18.751   4.848  23.181  0.3067  0.4094 -0.0981
 8025W        W10225   2.172   4.287   9.114  0.0371  0.1270  0.0430
 8026W        W10226  24.704   7.397   7.824  0.0761  0.0128  0.1633
 8027W        W10227  27.879   1.238  24.003  0.1707 -0.1892 -0.1208
 8028W        W10228   0.377   2.501  23.134  0.0799 -0.0976  0.2144
 8029W        W10229  19.769   4.566   5.122  0.0871 -0.2749  0.0832
 8030W        W10230  31.221   1.780  20.999  0.2020 -0.1083 -0.3184
 8031W        W10231  28.358   7.739  21.597  0.1352 -0.0167  0.0335
 8032W        W10232   4.538   1.921  20.480  0.0504  0.3232 -0.0961
 8033W        W10233  21.311   3.230   3.775  0.1271 -0.2911  0.0624
 8034W        W10234   8.256   6.058   5.576  0.1301  0.1675  0.0218
 8035W        W10235   7.823   5.971  22.107  0.0347  0.2891 -0.0557
 8036W        W10236  15.127   7.786   7.881  0.0082 -0.1151  0.2189
 8037W        W10237   9.766   2.082  16.174  0.0411 -0.0142  0.0127
 8038W        W10238  12.648   0.550  10.885 -0.0029 -0.0351  0.1185
 8039W        W10239   8.997   4.545  25.651  0.0255  0.1367 -0.1775
 8040W        W10240  25.164   5.472  18.909  0.1128 -0.1073  0.1951
 8041W        W10241   2.107   3.751  20.357 -0.0409  0.1977  0.2293
 8042W        W10242   2.551   5.518   2.440  0.1281 -0.1865  0.2004
 8043W        W10243   9.381   2.481   9.194  0.2402  0.1652  0.1590
 8044W        W10244  12.311   5.321   4.639 -0.0109  0.0138 -0.1560
 8045W        W10245  16.424   6.015  19.346  0.2296 -0.0959 -0.1276
 8046W        W10246  22.368   5.460   6.875 -0.0779 -0.1584 -0.2321
 8047W        W10247  12.610   2.627  18.042 -0.0720 -0.0985 -0.0893
 8048W        W10248   9.330   3.179   8.402  0.0846 -0.0544  0.1125
 8049W        W10249   7.391   2.265  25.529 -0.0320  0.2210 -0.1044
 8050W        W10250  21.425   3.201  25.705  0.1975 -0.1349  0.2134
 8051W        W10251   6.272   2.667  20.188 -0.0092 -0.0232 -0.0134
 8052W        W10252   3.488   4.677  24.160  0.3400 -0.2365 -0.1575
 8053W        W10253  22.895   7.086   2.624  0.0949 -0.0266  0.1178
 8054W        W10254  16.149   2.670   2.064 -0.0231 -0.0125  0.1416
 8055W        W10255  22.400   0.784   7.330  0.2347 -0.1305  0.1110
 8056W        W10256  19.362   4.425   3.478  0.0235  0.0032 -0.0351
 8057W        W10257  13.926   2.511  19.295  0.0913 -0.1589  0.0923
 8058W        W10258  16.064   2.120  24.981  0.2882 -0.0489 -0.1020
 8059W        W10259  17.276   6.238   0.698 -0.0048  0.0464  0.4080
 8060W        W10260  18.090   5.582   0.303 -0.0405 -0.0417 -0.1726
 8061W        W10261  15.545   6.478  10.036 -0.0703  0.3916  0.5076
 8062W        W10262  10.040   1.739  24.873  0.1528 -0.0331 -0.0893
 8063W        W10263  10.494   5.369   4.508  0.1621  0.0904 -0.1704
 8064W        W10264   9.046   7.807  22.556 -0.2065  0.1560 -0.0082
 8065W        W10265   3.346   4.116  18.709 -0.0851  0.0630  0.2410
 8066W        W10266  29.335   0.449   9.777  0.1233 -0.0976 -0.2566
 8067W        W10267  22.289   6.352   3.591 -0.0256  0.1178  0.0935
 8068W        W10268  24.174   4.535  18.717  0.0457  0.0659  0.1663
 8069W        W10269  31.246   1.476  23.847  0.3015  0.0460 -0.3877
 8070W        W10270   8.541   6.363   1.094 -0.0455  0.1597 -0.1555
 8071W        W10271   6.782   7.176  22.756  0.0953  0.0367  0.1474
 8072W        W10272  23.283   7.263  25.422  0.0216 -0.1822 -0.0434
 8073W        W10273  30.148   1.342  24.659 -0.1991 -0.3755  0.1100
 8074W        W10274   4.661   2.166   1.088  0.4488 -0.0222  0.1406
 8075W        W10275  10.953   6.920   4.917 -0.1735  0.1219 -0.1056
 8076W        W10276  15.834   6.397  19.769 -0.1602  0.0785  0.0344
 8077W        W10277   1.794   1.677   8.795 -0.4351  0.1161 -0.1432
 8078W        W10278  29.685   0.644   4.974 -0.0519  0.0622 -0.0310
 8079W        W10279   8.782   6.495  15.906 -0.1061  0.0755 -0.1225
 8080W        W10280   9.359   3.260   0.087  0.0539 -0.0797  0.1703
 8081W        W10281  28.012   4.414   8.969 -0.3251 -0.3246 -0.1478
 8082W        W10282  28.604   3.448  24.050 -0.0569  0.1112  0.0313
 8083W        W10283   0.803   2.420   6.869 -0.0199  0.1016 -0.0513
 8084W        W10284  29.018   4.055   0.715  0.0253  0.0389 -0.2076
 8085W        W10285  19.674   4.204  24.748 -0.0494  0.3351  0.2485
 8086W        W10286   2.258   2.796   0.762 -0.4495  0.0624 -0.1112
 8087W        W10287  15.086   2.262   4.617  0.3209 -0.0939 -0.0857
 8088W        W10288  20.900   6.063   1.450 -0.3940  0.1259  0.3173
 8089W        W10289  30.176   1.693   4.835  0.0201 -0.0308  0.1465
 8090W        W10290   0.227   2.142  18.330 -0.2876 -0.1243 -0.0274
 8091W        W10291   2.757   3.442  19.730  0.2577 -0.1381 -0.2607
 8092W        W10292  17.521   3.395  17.668 -0.1289  0.3273 -0.3417
 8093W        W10293  11.837   1.709  26.086  0.0580 -0.2864  0.0422
 8094W        W10294   8.035   5.847   6.412 -0.2389 -0.2193  0.0004
 8095W        W10295  21.611   2.397  22.842 -0.3561  0.1560 -0.1121
 8096W        W10296  13.980   6.770  17.508 -0.0239  0.1814  0.1613
 8097W        W10297  28.908   7.523   2.396  0.0715  0.3258  0.4053
 8098W        W10298  17.970   1.098   3.231  0.0184  0.2691  0.1275
 8099W        W10299  13.519   3.106  22.137  0.1726  0.1295 -0.0794
 8100W        W10300   5.815   1.760  11.294  0.0337  0.2391 -0.2349
 8101W        W10301  13.233   3.900  21.732 -0.0093 -0.2971 -0.0041
 8102W        W10302  31.235   6.782  25.598 -0.1572  0.3470  0.0652
 8103W        W10303  16.538   2.032   2.341 -0.1182  0.1604  0.4172
 8104W        W10304  17.242   3.295   8.345 -0.0154 -0.1866 -0.0065
 8105W        W10305  22.929   1.810   3.646 -0.1269  0.2453 -0.1314
 8106W        W10306  18.799   6.550  24.567  0.0974 -0.0954 -0.3839
 8107W        W10307   1.526   4.474  25.483  0.1951 -0.0452  0.1838
 8108W        W10308  19.184   0.866  23.516 -0.1640 -0.2207 -0.0886
 8109W        W10309  19.315   4.752  21.512  0.0840  0.1042  0.3078
 8110W        W10310  21.737   4.405  10.267 -0.3309 -0.0164  0.2743
 8111W        W10311  10.820   5.064  24.080  0.1137  0.2089 -0.0319
 8112W        W10312   4.443   3.224   6.952  0.1261  0.1235  0.0031
 8113W        W10313  13.396   6.545  15.269 -0.0443  0.0911 -0.0964
 8114W        W10314  21.218   4.958   3.128  0.0645  0.1010 -0.0846
 8115W        W10315  28.159   1.634   2.842  0.2229  0.0375  0.1885
 8116W        W10316  26.989   2.703   6.281  0.0231 -0.1090  0.0093
 8117W        W10317  22.518   5.479   0.245 -0.2593 -0.0876 -0.2790
 8118W        W10318  14.022   5.093   6.491  0.1434  0.0512 -0.1614
 8119W        W10319  21.483   1.820  22.594  0.2552  0.1560 -0.2631
 8120W        W10320  25.911   2.150  22.470 -0.0940  0.1808 -0.1573
 8121W        W10321  16.035   2.464  16.277  0.2931 -0.2553 -0.3542
 8122W        W10322  24.355   4.176  15.099  0.0843  0.0849 -0.1492
 8123W        W10323  23.798   0.481   0.970 -0.0835 -0.1815 -0.0418
 8124W        W10324  31.004   2.747   5.246  0.1816 -0.0039  0.3851
 8125W        W10325  27.131   1.403   5.917 -0.0099  0.4063 -0.1099
 8126W        W10326  28.952   5.722  21.955  0.0135 -0.1574  0.1377
 8127W        W10327  22.335   1.376  21.100  0.2402  0.0898  0.2917
 8128W        W10328  27.810   6.691   5.874  0.2719 -0.0676 -0.0651
 8129W        W10329  10.961   6.173  21.330  0.1722  0.1053 -0.1931
 8130W        W10330   7.098   7.617   1.826 -0.0105 -0.1334 -0.3607
 8131W        W10331  12.753   6.149  20.265  0.1424  0.1608  0.0412
 8132W        W10332   1.082   7.818   3.290 -0.1854  0.1911 -0.0921
 8133W        W10333   9.463   0.495  16.619 -0.0069 -0.1673 -0.1737
 8134W        W10334  12.214   1.639  22.072 -0.1007 -0.1068  0.2190
 8135W        W10335  21.819   1.623   6.328 -0.1216 -0.3343  0.1661
 8136W        W10336  17.585   0.784  10.284 -0.1909 -0.3628 -0.2413
 8137W        W10337  11.198   5.297  17.138  0.1336  0.1512  0.1495
 8138W        W10338   0.631   7.425   7.906  0.2729 -0.3436  0.2237
 8139W        W10339  13.250   4.918   2.029 -0.2299  0.0368  0.3387
 8140W        W10340   2.065   6.258  21.339  0.2143 -0.3631 -0.1632
 8141W        W10341  23.870   1.842  18.205  0.1519  0.3209  0.3279
 8142W        W10342  15.606   2.359  20.204  0.2527 -0.2457  0.1066
 8143W        W10343   9.498   4.228  16.145 -0.2008 -0.3821 -0.1931
 8144W        W10344  22.565   5.845   7.139 -0.2710 -0.1210  0.1111
 8145W        W10345  16.554   0.094  21.456  0.0911 -0.0455 -0.0155
 8146W        W10346   7.004   1.860   7.936 -0.1994 -0.0498  0.0403
 8147W        W10347   8.840   0.928   3.407  0.0772 -0.3801  0.1399
 8148W        W10348  13.465   1.310   4.542 -0.2342  0.3253 -0.0756
 8149W        W10349  24.652   2.209   5.665 -0.1761  0.1186 -0.1853
 8150W        W10350   0.594   1.957   0.305 -0.0456  0.1049  0.2314
 8151W        W10351  16.531   4.014  18.727  0.0640 -0.1405  0.2397
 8152W        W10352  13.035   1.994  24.350 -0.0397  0.2976  0.2030
 8153W        W10353  14.348   0.836  23.185 -0.0260  0.0670 -0.0748
 8154W        W10354  20.153   6.245   5.775 -0.2241  0.0841  0.2324
 8155W        W10355  20.822   0.231  16.992  0.0002 -0.4660 -0.3230
 8156W        W10356  16.773   7.296  17.284 -0.5298 -0.2239 -0.1339
 8157W        W10357  22.712   7.665  20.413  0.2497 -0.0999 -0.0150
 8158W        W10358  22.247   2.068  16.553 -0.0331 -0.4061 -0.0711
 8159W        W10359   5.290   5.437  23.223  0.1228 -0.0122 -0.0435
 8160W        W10360  10.676   7.823  20.301 -0.1147  0.0147  0.0302
 8161W        W10361  23.587   3.124  21.625  0.3331  0.1112 -0.1033
 8162W        W10362  23.629   7.360  10.232 -0.1328  0.2045  0.1033
 8163W        W10363  23.708   5.038  16.648 -0.2206 -0.0121  0.0246
 8164W        W10364  14.559   7.641   2.512 -0.0521  0.1892  0.0899
 8165W        W10365   7.501   3.550   7.529 -0.0807 -0.1170 -0.0709
 8166W        W10366  15.495   3.058   3.113  0.1942  0.0940  0.0235
 8167W        W10367  12.885   5.518   7.076  0.3277  0.0227 -0.0953
 8168W        W10368  21.636   4.277   9.716 -0.3883 -0.2576  0.0020
 8169W        W10369  25.566   2.240   8.029 -0.0391  0.2548  0.1806
 8170W        W10370  28.832   5.279   5.932  0.1724 -0.0741  0.0916
 8171W        W10371  23.178   0.381   0.756  0.0069 -0.1165 -0.1145
 8172W        W10372  20.067   6.304  20.360  0.0094 -0.0090 -0.0980
 8173W        W10373  26.884   7.208  21.076  0.2552 -0.0465  0.1120
 8174W        W10374  14.569   6.768  16.004  0.0858 -0.1062 -0.1035
 8175W        W10375   8.357   0.917   3.295 -0.1207  0.0363  0.0701
 8176W        W10376  25.088   2.641  15.599 -0.0235 -0.1883 -0.4451
 8177W        W10377  24.620   2.962  18.955  0.0651  0.0060 -0.1484
 8178W        W10378  11.387   4.641   0.693 -0.2222  0.0884  0.2141
 8179W        W10379  21.520   1.271  22.779  0.2349  0.2080 -0.1879
 8180W        W10380  23.187   6.465  10.340 -0.1059 -0.1043 -0.0189
 8181W        W10381   9.264   7.387   0.072 -0.2151 -0.0965  0.0396
 8182W        W10382   9.176   6.752   5.437  0.3136 -0.0000  0.3154
 8183W        W10383  12.228   3.323   2.727  0.0686  0.2499  0.0314
 8184W        W10384  12.389   3.739   9.555  0.0084 -0.2564  0.0101
 8185W        W10385  25.639   6.525  24.047  0.0002 -0.2421  0.1553
 8186W        W10386  16.647   4.142  15.591  0.0232  0.1648  0.5228
 8187W        W10387  15.194   1.924   7.879  0.2776 -0.0766  0.4038
 8188W        W10388  31.239   5.713  23.515  0.3129  0.3225 -0.2839
 8189W        W10389  25.234   5.580   3.568  0.0916  0.0650  0.0247
 8190W        W10390   2.048   3.562  10.942  0.1603 -0.2108 -0.2934
 8191W        W10391   9.352   0.139  17.776 -0.0103  0.2484 -0.1552
 8192W        W10392  19.059   0.653  14.756  0.1750  0.2350 -0.0239
 8193W        W10393  25.945   2.125  25.311  0.0541  0.0223  0.0227
 8194W        W10394  24.125   5.133   7.897  0.2246 -0.2122 -0.2113
 8195W        W10395  11.143   6.581   7.376  0.0573 -0.1295 -0.2898
 8196W        W10396  17.006   2.531   8.789 -0.1554 -0.2995 -0.0295
 8197W        W10397  22.169   7.595  18.212 -0.1708 -0.0287  0.0140
 8198W        W10398  21.327   4.066   5.336 -0.1387 -0.0090  0.0787
 8199W        W10399  15.722   4.248  21.460  0.0325  0.0856 -0.2608
 8200W        W10400  19.626   5.504  17.743  0.1091 -0.0954 -0.2061
 8201W        W10401  25.719   6.121   2.977 -0.0571 -0.1447 -0.1266
 8202W        W10402   9.732   3.884   0.767 -0.1027 -0.4982 -0.1821
 8203W        W10403   8.521   2.535  22.353 -0.0609 -0.1168  0.3320
 8204W        W10404  20.821   1.952  18.856  0.0670 -0.0719  0.3026
 8205W        W10405  28.911   6.179  15.723  0.0029 -0.0586  0.3702
 8206W        W10406  26.561   2.257   7.971  0.1838 -0.1190  0.0111
 8207W        W10407   1.631   5.365   4.575  0.1151 -0.2897 -0.3527
 8208W        W10408   4.385   0.797   8.569  0.1559  0.1189 -0.1243
 8209W        W10409  30.457   0.249  10.382 -0.2752  0.0127 -0.3593
 8210W        W10410  17.288   6.927  10.430 -0.0119  0.0394 -0.0631
 8211W        W10411  11.036   7.001   3.486  0.0581 -0.1349  0.2103
 8212W        W10412   7.295   3.370  10.179 -0.0818 -0.1486 -0.1350
 8213W        W10413  15.474   7.444  23.232  0.0987 -0.1998 -0.1842
 8214W        W10414  11.930   7.711  21.904  0.0569  0.2216  0.0510
 8215W        W10415  27.292   5.320  19.859  0.1482  0.0940  0.0779
 8216W        W10416  22.195   6.373   0.866 -0.0194  0.0434  0.1894
 8217W        W10417  29.959   1.550  22.798  0.0193 -0.0332  0.0979
 8218W        W10418  20.811   6.555  22.554  0.4271 -0.1256 -0.0652
 8219W        W10419  24.160   2.856   4.615 -0.0189  0.1860 -0.0981
 8220W        W10420   1.821   5.716   8.070  0.1243  0.0247  0.2198
 8221W        W10421  13.080   3.192  15.908  0.0374 -0.0707 -0.0410
 8222W        W10422  11.814   7.543   9.233 -0.0282  0.2936 -0.2717
 8223W        W10423  11.479   6.726   9.680 -0.0605 -0.1686  0.1806
 8224W        W10424  19.266   4.041  20.372  0.2005 -0.2199 -0.0644
 8225W        W10425  18.809   7.025  24.356  0.1223  0.1050  0.0408
 8226W        W10426  20.828   0.471   2.754  0.0513 -0.1793  0.2775
 8227W        W10427  14.514   7.799   5.464 -0.0970 -0.1895 -0.0866
 8228W        W10428  26.553   0.613   2.436  0.0094  0.0012 -0.6242
 8229W        W10429  11.536   2.892  10.203 -0.1579 -0.2593  0.0904
 8230W        W10430   8.163   5.328   5.908 -0.5660 -0.2481  0.1682
 8231W        W10431  10.058   1.378   6.263  0.0478  0.0689  0.0791
 8232W        W10432  14.076   4.132  10.084  0.0572 -0.0965  0.0901
 8233W        W10433   3.132   0.483   4.101 -0.1929  0.1193 -0.0786
 8234W        W10434  19.275   3.196  17.244 -0.0259  0.0442  0.1428
 8235W        W10435  10.249   1.650  17.845  0.0730 -0.0564 -0.1149
 8236W        W10436   0.056   0.434  19.973  0.1445 -0.0835 -0.0808
 8237W        W10437  22.793   5.936  17.126 -0.1490  0.0272 -0.0327
 8238W        W10438   2.255   5.476  19.772  0.2163 -0.1731  0.2607
 8239W        W10439  26.734   5.277  10.404 -0.0827  0.2790  0.3787
 8240W        W10440  22.954   5.142  19.587  0.0006 -0.0618  0.1384
 8241W        W10441  17.164   4.370   6.421  0.1993 -0.0537  0.3064
 8242W        W10442  23.635   2.761  20.151 -0.0167  0.0924  0.0385
 8243W        W10443  27.520   5.553  25.269 -0.1656  0.1669  0.1399
 8244W        W10444   3.745   1.184  24.657  0.2136  0.1083 -0.2030
 8245W        W10445  12.629   1.785   5.120  0.0612  0.0405  0.0651
 8246W        W10446  18.263   7.783  15.585 -0.1460 -0.0807 -0.0404
 8247W        W10447  14.691   3.885   8.033 -0.0693  0.0920 -0.3577
 8248W        W10448  15.223   1.622  19.266 -0.1688  0.1958 -0.0032
 8249W        W10449  16.366   1.924  20.213  0.0591 -0.1067  0.4144
 8250W        W10450   7.456   2.262   6.203  0.1008  0.0751 -0.0072
 8251W        W10451  26.155   6.568  18.408  0.1817 -0.1523  0.1173
 8252W        W10452  30.368   3.432  22.280  0.1490 -0.1813  0.1177
 8253W        W10453  17.472   3.890  17.852 -0.1953  0.0907 -0.2905
 8254W        W10454  10.219   3.063   7.286  0.0701  0.1372 -0.0898
 8255W        W10455   2.383   7.274   3.762  0.1150  0.0537  0.0922
 8256W        W10456   8.203   2.109   8.321  0.2729 -0.1108 -0.0978
 8257W        W10457   8.129   4.696   1.604 -0.2639  0.0586  0.1129
 8258W        W10458   8.987   4.394  22.229 -0.0788 -0.3443  0.1570
 8259W        W10459  14.458   6.075   0.251  0.1006 -0.0984  0.0414
 8260W        W10460  22.083   0.556   7.726  0.0045  0.0187 -0.2389
 8261W        W10461  26.635   6.721   8.718 -0.1166  0.0763  0.2088
 8262W        W10462  26.546   3.830  14.898  0.1005 -0.2380  0.2533
 8263W        W10463  21.628   3.720   6.945 -0.1529 -0.1184  0.1264
 8264W        W10464  20.019   0.090   8.853  0.0075  0.4873 -0.3498
 8265W        W10465  10.701   4.036   4.465  0.3368  0.0474 -0.0125
 8266W        W10466  13.378   6.440   5.368 -0.0238 -0.0229  0.1622
 8267W        W10467  13.830   2.423  23.973  0.0554  0.1332  0.0618
 8268W        W10468  23.639   5.007  25.075 -0.0486 -0.0623 -0.3566
 8269W        W10469  31.146   0.354   4.054  0.1517  0.0728  0.0141
 8270W        W10470  25.728   5.172   0.589  0.1310 -0.1618 -0.1500
 8271W        W10471  26.752   0.742  10.499 -0.0229  0.1563 -0.2438
 8272W        W10472  26.396   6.813   4.127 -0.2143 -0.2001 -0.1792
 8273W        W10473   0.263   0.381   4.424  0.3126  0.0032 -0.1037
 8274W        W10474   5.411   0.774   9.395  0.1530  0.1248  0.0041
 8275W        W10475  24.045   2.235  19.298 -0.0329  0.1494 -0.2251
 8276W        W10476  26.970   5.450   5.515 -0.2079 -0.0435  0.2024
 8277W        W10477  29.291   6.776  21.135  0.0840 -0.0319  0.0555
 8278W        W10478  25.567   2.202   1.328  0.0835  0.1154  0.5473
 8279W        W10479  13.765   0.832  17.477 -0.0627 -0.1304  0.1673
 8280W        W10480   8.296   2.639  24.564  0.0198 -0.1008 -0.0288
 8281W        W10481  11.019   0.121   2.933 -0.0188 -0.0676 -0.1484
 8282W        W10482  29.972   2.975  17.916 -0.2493 -0.0954 -0.0577
 8283W        W10483   9.680   4.869   5.844 -0.2123  0.0291  0.1183
 8284W        W10484   9.407   1.837   6.852 -0.0458  0.0496  0.1566
 8285W        W10485  26.493   0.262   3.840 -0.2834 -0.2056  0.4903
 8286W        W10486  18.638   3.648  25.154  0.0345  0.0853 -0.0405
 8287W        W10487  15.629   2.177  16.157  0.0673  0.1181 -0.1594
 8288W        W10488  20.549   0.615   8.442  0.0655  0.2447 -0.0387
 8289W        W10489  29.851   2.150  18.497 -0.2822 -0.1548  0.0793
 8290W        W10490  29.887   7.032  26.171  0.1995  0.0075  0.0029
 8291W        W10491  15.047   0.174   8.851  0.2063  0.0671  0.1836
 8292W        W10492  11.109   3.208  23.983  0.4333 -0.1394 -0.1393
 8293W        W10493   5.146   4.202  21.015 -0.1114 -0.1413  0.1286
 8294W        W10494  29.486   1.943   6.656 -0.0600  0.2963 -0.0306
 8295W        W10495  16.757   3.697   1.273 -0.1155 -0.0100  0.3047
 8296W        W10496  12.244   1.150   8.092 -0.0143 -0.2637 -0.0577
 8297W        W10497  16.281   7.267   0.132  0.1803  0.2061  0.0238
 8298W        W10498  29.155   0.878  23.467 -0.1083  0.2637 -0.1964
 8299W        W10499  17.551   4.501   6.835  0.2477  0.1607  0.1268
 8300W        W10500   8.120   2.342   3.395 -0.1587  0.2490  0.2265
 8301W        W10501  23.445   6.105   5.627 -0.0754  0.1734  0.0357
 8302W        W10502   5.545   1.088   2.570 -0.1544 -0.1401 -0.2315
 8303W        W10503  12.748   3.026   6.505 -0.1405  0.0575  0.4568
 8304W        W10504  29.899   7.376   7.286 -0.3215 -0.3357  0.2291
 8305W        W10505  23.607   5.973  14.948 -0.0057  0.2912  0.1515
 8306W        W10506  24.740   3.881  25.780  0.0270  0.0811  0.0907
 8307W        W10507   8.579   5.412  18.889 -0.0989  0.3710  0.2666
 8308W        W10508   5.444   2.012   7.832 -0.0908 -0.0654  0.0776
 8309W        W10509   5.890   1.298  20.147 -0.0225  0.2990  0.2531
 8310W        W10510   2.879   6.426  10.278 -0.3853 -0.1113  0.0646
 8311W        W10511  20.778   4.399  18.738 -0.2281 -0.1373 -0.1614
 8312W        W10512  20.396   4.883   4.355  0.1043  0.0001 -0.1695
 8313W        W10513   6.626   6.751  18.093  0.1738  0.4153  0.0169
 8314W        W10514  30.678   6.353   1.153  0.1873  0.0053  0.0001
 8315W        W10515  17.373   2.818   8.490 -0.0034 -0.1180  0.1540
 8316W        W10516  24.810   2.977  23.763 -0.2536 -0.0350 -0.0725
 8317W        W10517  15.277   0.246  22.038  0.0510 -0.0555 -0.1481
 8318W        W10518   4.820   0.734   0.821  0.3618  0.3194 -0.1939
 8319W        W10519   3.097   4.367   0.569  0.1741  0.1724 -0.0587
 8320W        W10520  20.958   1.179  17.476  0.1243 -0.1634  0.0511
 8321W        W10521   7.004   4.721  17.557 -0.0597 -0.1838 -0.1545
 8322W        W10522   9.850   5.002  25.089 -0.2771  0.0335  0.0877
 8323W        W10523  18.420   4.250   0.867  0.0061  0.0841 -0.1655
 8324W        W10524   4.432   6.830   3.835 -0.0633  0.1795  0.1536
 8325W        W10525  19.761   5.418   8.159 -0.3299  0.4061 -0.1355
 8326W        W10526  31.036   4.037   9.797 -0.2068 -0.0250  0.2350
 8327W        W10527  14.036   4.949   0.796 -0.1888  0.0156 -0.0379
 8328W        W10528   5.771   4.742   3.143  0.0549  0.2524  0.2459
 8329W        W10529  15.479   2.491   8.756 -0.1114  0.1375 -0.0744
 8330W        W10530   2.941   1.744  10.900  0.2251  0.1747  0.0195
 8331W        W10531   7.686   3.964  25.202 -0.0391 -0.0332 -0.3027
 8332W        W10532  19.930   6.277  24.873 -0.0267 -0.4079 -0.0859
 8333W        W10533  28.171   3.872   9.125 -0.2192 -0.2489 -0.1591
 8334W        W10534  17.223   2.747  19.146 -0.0606  0.2329  0.1873
 8335W        W10535  31.266   7.490   0.692 -0.0387 -0.0719  0.1023
 8336W        W10536   7.451   0.957  25.692  0.0950  0.1785  0.0335
 8337W        W10537  25.803   2.636   2.431  0.0939  0.1184 -0.0014
 8338W        W10538  16.261   1.253   2.174  0.0298  0.1404 -0.0656
 8339W        W10539   1.550   1.175   6.758 -0.0119 -0.0501  0.2278
 8340W        W10540   2.957   5.333  18.487 -0.0457 -0.1016  0.1363
 8341W        W10541  26.096   5.984   8.898 -0.0087  0.0166 -0.3384
 8342W        W10542   1.170   4.817  25.291  0.1927 -0.0277 -0.1001
 8343W        W10543   9.001   0.608  15.153  0.0330  0.1218  0.1948
 8344W        W10544  29.461   2.970  18.223 -0.1075 -0.0337  0.0940
 8345W        W10545  17.361   0.789  21.904 -0.0441  0.0124  0.1198
 8346W        W10546  22.273   2.267   6.152 -0.2012  0.0175 -0.0888
 8347W        W10547  28.740   1.103  19.915  0.3190 -0.0612  0.0073
 8348W        W10548  26.164   7.554   4.972 -0.0097 -0.3108  0.0732
 8349W        W10549  18.355   6.326  15.979  0.2160 -0.1556  0.0243
 8350W        W10550   6.105   1.408  20.685  0.0006  0.3981  0.1978
 8351W        W10551  10.231   5.007  21.310  0.2040  0.0109 -0.0549
 8352W        W10552  22.756   6.897   9.829 -0.3289  0.1779 -0.0098
 8353W        W10553  14.526   6.265  19.894 -0.0121  0.1727 -0.1824
 8354W        W10554  21.656   3.530  10.288 -0.0097  0.1237  0.0283
 8355W        W10555   2.679   1.653   1.900  0.2514 -0.0028 -0.0147
 8356W        W10556  20.441   6.036  15.000 -0.1445 -0.1515  0.0083
 8357W        W10557  30.033   6.874  18.061 -0.1567 -0.0183  0.0076
 8358W        W10558  23.390   3.158  20.370 -0.4293  0.5097  0.3950
 8359W        W10559  23.614   4.301  17.788  0.1385 -0.0400 -0.1651
 8360W        W10560  24.609   4.946   6.643  0.2373 -0.0778  0.2142
 8361W        W10561  28.545   1.133   2.230 -0.0181 -0.1280  0.0453
 8362W        W10562  16.589   4.886  14.891  0.1166  0.2415  0.0684
 8363W        W10563   3.379   4.750   7.212  0.0517  0.4669 -0.2223
 8364W        W10564   6.046   0.466   0.724 -0.0533  0.1583 -0.3654
 8365W        W10565  21.724   4.361  16.486  0.1184  0.2009 -0.1655
 8366W        W10566  21.828   1.585  21.806  0.0832 -0.2952 -0.0378
 8367W        W10567   7.854   0.324   9.550 -0.0908 -0.2206  0.3339
 8368W        W10568  28.823   0.569   9.877  0.0318 -0.1039 -0.0831
 8369W        W10569  18.389   1.673  24.297 -0.1662 -0.1042  0.2775
 8370W        W10570  28.632   4.831   5.035 -0.0472 -0.0074 -0.2448
 8371W        W10571  23.153   4.599   9.900 -0.0690  0.0479 -0.1322
 8372W        W10572  16.805   6.251   3.198  0.1770  0.0159  0.2013
 8373W        W10573   1.212   3.649  20.534  0.0496 -0.0375 -0.1595
 8374W        W10574  19.309   3.948  10.929  0.0184  0.0403  0.1591
 8375W        W10575   7.564   2.436  17.063 -0.0035 -0.3789  0.1902
 8376W        W10576  24.595   0.980  17.729  0.1367  0.1086  0.0503
 8377W        W10577  24.566   3.010  18.045 -0.0896 -0.2750 -0.2815
 8378W        W10578  11.480   7.084  24.240  0.1527 -0.1763  0.0459
 8379W        W10579  20.168   2.936  18.240  0.0911 -0.1039  0.1311
 8380W        W10580  30.809   5.704   2.886  0.4002 -0.0626 -0.1750
 8381W        W10581   0.235   6.896   3.922 -0.0238 -0.2993  0.1725
 8382W        W10582   1.632   4.683  20.583 -0.1223  0.1810 -0.1616
 8383W        W10583  18.824   3.281  23.622  0.2376 -0.4133 -0.1219
 8384W        W10584  14.469   0.463   1.390  0.1952  0.2384 -0.0198
 8385W        W10585  23.269   6.843   1.378  0.0453 -0.1706 -0.3572
 8386W        W10586  21.951   3.958  19.451  0.0100  0.0976 -0.0814
 8387W        W10587  25.778   7.747  16.809 -0.1060 -0.0404 -0.1707
 8388W        W10588  18.331   3.785  21.821 -0.0307  0.0275 -0.0501
 8389W        W10589  16.687   6.336  16.308 -0.2947 -0.0005  0.2452
 8390W        W10590  21.261   0.071  17.354  0.2480 -0.1465 -0.1044
 8391W        W10591  25.868   6.371   1.192  0.1728  0.0321  0.3333
 8392W        W10592  26.247   2.519   5.833 -0.0792  0.1441  0.1808
 8393W        W10593  19.997   0.602   1.873  0.0212  0.0247  0.1265
 8394W        W10594  25.522   6.003  24.762  0.0494  0.0261 -0.0133
 8395W        W10595  27.809   0.042   4.517 -0.1495  0.2840 -0.3076
 8396W        W10596   7.751   6.377  10.674 -0.0135 -0.1082  0.1027
 8397W        W10597   2.696   4.493  20.668  0.3162 -0.2091 -0.2254
 8398W        W10598  12.908   6.373   7.934 -0.1363  0.1107 -0.1049
 8399W        W10599   2.964   7.201   1.993  0.0604 -0.0666  0.0555
 8400W        W10600  15.689   5.601   9.966 -0.2715  0.0515  0.0122
 8401W        W10601   2.801   3.920  19.976  0.1255 -0.0536 -0.1624
 8402W        W10602  19.751   7.547   7.725 -0.1421 -0.0586 -0.0714
 8403W        W10603  27.306   5.952  14.981 -0.3621  0.0153 -0.0067
 8404W        W10604  30.206   6.213  19.149  0.1951  0.3546 -0.3243
 8405W        W10605  30.770   0.977   0.203  0.0385 -0.0859  0.1475
 8406W        W10606  29.094   6.563   6.468 -0.2148 -0.1358  0.1231
 8407W        W10607  30.722   4.050   8.882  0.3690  0.1105 -0.2275
 8408W        W10608  10.450   0.516  24.506 -0.1032 -0.2654 -0.2262
 8409W        W10609  11.308   7.322   8.692  0.3899 -0.1126  0.1800
 8410W        W10610  10.580   2.711  18.077  0.0186 -0.5584 -0.3310
 8411W        W10611  19.743   4.537   3.754  0.0770  0.1510 -0.1125
 8412W        W10612  28.976   0.673   0.117  0.3510  0.1088  0.0049
 8413W        W10613  19.763   7.743   2.436  0.1196 -0.0944 -0.1601
 8414W        W10614  22.803   4.131  19.239  0.0242  0.0882 -0.1254
 8415W        W10615  13.312   2.557   5.986  0.2328  0.2197 -0.1191
 8416W        W10616  27.456   6.464  21.017 -0.1099 -0.0388  0.1293
 8417W        W10617  19.037   3.012   2.972  0.1209 -0.3198 -0.0996
 8418W        W10618  19.867   6.125   2.847 -0.2439  0.0688 -0.0225
 8419W        W10619   9.001   1.063   2.462  0.1427 -0.4724 -0.0059
 8420W        W10620  24.451   2.566  18.288 -0.1224 -0.0091 -0.1340
 8421W        W10621  21.027   2.255  26.145  0.3214 -0.3235  0.0160
 8422W        W10622  18.997   2.516  25.299  0.0317  0.1051 -0.2299
 8423W        W10623  14.695   3.150   4.466  0.1639 -0.0446  0.1755
 8424W        W10624   6.766   4.005   3.108  0.1378  0.2500  0.2223
 8425W        W10625  10.802   5.311  19.406  0.0032  0.1022 -0.1365
 8426W        W10626  22.874   4.680   5.952  0.1282 -0.1397 -0.0657
 8427W        W10627  29.766   3.526   6.377  0.0710  0.0909 -0.0166
 8428W        W10628  26.164   5.196  19.006 -0.2940 -0.1518  0.1125
 8429W        W10629  25.288   0.450   9.305  0.3306  0.2215  0.1456
 8430W        W10630   2.213   1.825  16.493  0.2902 -0.0323 -0.0340
 8431W        W10631  29.949   6.076  11.276  0.1883 -0.1607 -0.1047
 8432W        W10632  25.103   5.290   6.738  0.3856 -0.1958 -0.0607
 8433W        W10633   0.331   2.280  19.784  0.0054 -0.1167  0.1730
 8434W        W10634   5.786   4.058  20.456  0.1663 -0.0664  0.0240
 8435W        W10635  20.527   5.190  21.680  0.1442 -0.2739 -0.3371
 8436W        W10636  14.521   0.018   8.421  0.1560  0.2480 -0.1923
 8437W        W10637  26.768   2.540  20.820  0.0489 -0.0728  0.1916
 8438W        W10638   4.425   6.776   6.734 -0.2667 -0.0226 -0.0963
 8439W        W10639  30.786   6.774  17.197  0.0278 -0.1265 -0.0986
 8440W        W10640  14.118   5.893  19.874  0.2274 -0.2492 -0.1824
 8441W        W10641  18.818   0.078   0.860  0.3488 -0.0244  0.0825
 8442W        W10642  29.037   7.186  20.889  0.2266  0.0911  0.3098
 8443W        W10643  12.395   1.131   1.577  0.1689 -0.0671  0.0137
 8444W        W10644   5.882   2.853  17.722  0.2669 -0.3103 -0.0882
 8445W        W10645   1.619   2.853  20.210 -0.0538 -0.2315 -0.0874
 8446W        W10646  30.274   1.948   3.560  0.1233 -0.0022 -0.1921
 8447W        W10647  20.177   0.539  25.044 -0.0608  0.6633 -0.0607
 8448W        W10648   3.725   3.233  19.119  0.1631 -0.2969 -0.0726
 8449W        W10649  15.723   0.248   6.255  0.2410 -0.0549 -0.3163
 8450W        W10650  13.888   3.057  25.773  0.1311 -0.1042 -0.0305
 8451W        W10651  14.705   6.222   5.337 -0.2925  0.1666 -0.0701
 8452W        W10652  23.717   4.844   1.573 -0.1321  0.1225 -0.1431
 8453W        W10653  13.068   5.420  19.118 -0.1729 -0.2454 -0.0425
 8454W        W10654  13.039   2.423  23.154 -0.0500 -0.1849  0.0957
 8455W        W10655  10.957   0.494  16.331  0.2291 -0.1054  0.1163
 8456W        W10656  10.536   7.243  14.687 -0.1369  0.1701 -0.2849
 8457W        W10657  27.635   5.096   2.309  0.0008 -0.1845 -0.0442
 8458W        W10658   2.837   2.825  19.887  0.0652  0.2611  0.2335
 8459W        W10659   8.248   4.607  15.473  0.1372 -0.2413  0.3399
 8460W        W10660  26.627   4.933   6.521  0.1154 -0.2326  0.0090
 8461W        W10661   0.963   4.205   1.688 -0.0802  0.0585 -0.1048
 8462W        W10662   5.073   0.660   9.783 -0.0706  0.0878  0.0542
 8463W        W10663   8.687   6.993  21.070  0.0638 -0.1703  0.1410
 8464W        W10664  11.159   2.160  10.712 -0.1191 -0.0306  0.0922
 8465W        W10665   5.974   6.104  22.337 -0.2710 -0.3709 -0.0184
 8466W        W10666  12.163   0.909  11.219  0.3418 -0.3932 -0.0646
 8467W        W10667  12.633   7.712  10.327  0.1543  0.0828  0.2486
 8468W        W10668   9.503   6.261   6.271  0.1674  0.1176  0.1913
 8469W        W10669   8.219   4.949   7.188  0.0742 -0.1346 -0.0385
 8470W        W10670   5.802   1.327  18.423 -0.1245 -0.3946  0.1977
 8471W        W10671   6.922   4.700  16.350  0.0917 -0.3177 -0.0970
 8472W        W10672   7.866   7.106  21.664 -0.2506 -0.1161  0.2202
 8473W        W10673  15.330   6.909   0.945  0.1126  0.2808 -0.0268
 8474W        W10674   4.287   3.907  15.667 -0.1576  0.0189  0.0229
 8475W        W10675  18.719   2.821  10.959  0.1085 -0.0414  0.1349
 8476W        W10676  29.418   3.329   5.989 -0.0218  0.0404  0.2762
 8477W        W10677  25.270   7.721  10.553  0.2305 -0.0712  0.0821
 8478W        W10678  19.556   4.266   8.639 -0.0948  0.1522 -0.2224
 8479W        W10679   5.953   6.576  22.532 -0.1351  0.1209  0.2034
 8480W        W10680  13.274   0.577   1.350 -0.0776 -0.1472  0.0854
 8481W        W10681   6.429   2.457  19.648  0.0825  0.0939 -0.1117
 8482W        W10682  23.046   5.462  18.656  0.0649  0.3693 -0.3089
 8483W        W10683  29.892   3.578   6.961 -0.3462 -0.0632 -0.1852
 8484W        W10684   1.897   1.360   7.828 -0.1080 -0.1352  0.0493
 8485W        W10685  16.321   4.705  18.638  0.0901 -0.0535  0.2156
 8486W        W10686  24.227   5.409  18.182  0.0157  0.0428  0.1184
 8487W        W10687   2.440   2.289   9.468 -0.0229 -0.1846 -0.1070
 8488W        W10688  10.555   7.696   6.686  0.0996  0.0753 -0.0387
 8489W        W10689   1.135   4.167   4.065 -0.1671 -0.0212 -0.0504
 8490W        W10690  21.451   7.686  20.721 -0.2927 -0.0598  0.0101
 8491W        W10691   6.142   4.729   9.466 -0.0035 -0.0913  0.1974
 8492W        W10692   3.939   4.190  10.903 -0.1301  0.0709  0.1963
 8493W        W10693  17.395   0.843  14.256  0.1935  0.1324  0.3726
 8494W        W10694  13.652   3.309  10.743 -0.0782 -0.1091  0.1031
 8495W        W10695   4.667   3.736  21.211 -0.1993  0.0708  0.0047
 8496W        W10696   8.379   4.012   0.985 -0.2020  0.0549 -0.1921
 8497W        W10697  29.289   0.754   9.420  0.0484  0.1351 -0.1378
 8498W        W10698   1.038   1.822   3.080 -0.3649  0.2134 -0.0651
 8499W        W10699   7.724   2.811  15.397 -0.0942 -0.2479  0.1109
 8500W        W10700  22.272   4.422   5.349 -0.2994 -0.2027  0.3094
 8501W        W10701  18.404   0.784  25.703  0.1560  0.1398 -0.0505
 8502W        W10702  24.734   6.857   8.386  0.0645 -0.1790 -0.0905
 8503W        W10703  22.248   3.771  21.574  0.0199 -0.1234  0.1148
 8504W        W10704  23.861   4.759  22.349  0.1637  0.0229 -0.0848
 8505W        W10705  25.357   7.779  11.557 -0.1534 -0.2169  0.0830
 8506W        W10706  15.054   6.201  23.005  0.0390 -0.1876 -0.1046
 8507W        W10707   1.342   2.615  19.841  0.0196  0.4795  0.0799
 8508W        W10708   5.956   7.171   3.026 -0.2737 -0.1072  0.0327
 8509W        W10709   9.414   7.563  23.894  0.0612 -0.1630 -0.0080
 8510W        W10710   2.956   7.458  25.656  0.1838  0.0497  0.0385
 8511W        W10711  14.331   5.101  15.910 -0.1290  0.1135  0.4387
 8512W        W10712   9.613   6.889  19.031  0.1026  0.3478  0.0217
 8513W        W10713  23.211   3.726   6.293 -0.2970  0.0554  0.2067
 8514W        W10714  11.484   0.181  18.141 -0.3137 -0.2971  0.0225
 8515W        W10715   0.791   6.759  24.497 -0.0296  0.1606 -0.1409
 8516W        W10716  27.745   3.815  20.501  0.0520  0.2594  0.3744
 8517W        W10717  26.250   3.485   0.695  0.1822 -0.0552 -0.0560
 8518W        W10718  18.787   3.343  19.771 -0.2337 -0.1411 -0.0589
 8519W        W10719  24.624   6.068  21.801  0.0154  0.0875 -0.0961
 8520W        W10720   4.492   7.198  11.521 -0.0180  0.0487 -0.3731
 8521W        W10721  29.707   5.285   8.340 -0.0391  0.1541 -0.2025
 8522W        W10722  26.046   0.445  18.924 -0.1161  0.2544  0.0864
 8523W        W10723  16.986   0.283   2.598 -0.3549  0.0155  0.1878
 8524W        W10724   0.247   6.320  16.887  0.0146 -0.1053  0.0848
 8525W        W10725   8.060   4.828   6.106  0.1643 -0.0754 -0.0634
 8526W        W10726   9.201   6.805  21.183  0.3294 -0.2220 -0.1601
 8527W        W10727   4.227   0.169   1.791 -0.0290 -0.1019  0.3662
 8528W        W10728  12.987   2.450   5.628 -0.2627 -0.0717  0.1244
 8529W        W10729   4.906   3.223  11.031  0.0194  0.1525  0.1222
 8530W        W10730  13.008   0.745  10.037  0.2091 -0.3627  0.1247
 8531W        W10731  26.264   1.885  20.363 -0.2332 -0.2659 -0.3351
 8532W        W10732  12.761   2.590   1.458 -0.0000 -0.1963 -0.0888
 8533W        W10733  19.859   2.998  14.765 -0.1019  0.0283  0.0681
 8534W        W10734  18.726   7.637   1.283 -0.0242 -0.1280 -0.0421
 8535W        W10735  20.627   3.874  10.500 -0.0051  0.3452 -0.0743
 8536W        W10736   0.041   4.703  20.187 -0.0923  0.0731 -0.1521
 8537W        W10737  30.551   3.473  23.972 -0.1518 -0.0735  0.1586
 8538W        W10738  23.363   5.272   7.474  0.0810 -0.0064 -0.0193
 8539W        W10739   2.806   5.675  10.260  0.3134  0.0091  0.1475
 8540W        W10740  13.755   7.796  25.229 -0.1554 -0.0122 -0.1797
 8541W        W10741  31.190   2.017  24.430 -0.0698  0.2247 -0.1837
 8542W        W10742  11.794   3.872   6.200  0.1103 -0.2219 -0.0420
 8543W        W10743   2.313   6.856   8.675  0.1187  0.3676  0.0359
 8544W        W10744  19.265   1.719   2.055  0.3101 -0.2125 -0.1977
 8545W        W10745  25.617   2.716  10.447 -0.1174 -0.0888  0.1519
 8546W        W10746  14.957   5.244   4.465 -0.0879  0.0932 -0.1917
 8547W        W10747  13.407   2.378  25.839 -0.1961  0.3426  0.3993
 8548W        W10748  24.993   0.807  24.165  0.0625 -0.1359  0.1414
 8549W        W10749  26.883   7.248   8.769 -0.0129 -0.0725 -0.2342
 8550W        W10750  12.749   2.415   0.873  0.0504 -0.2157  0.2706
 8551W        W10751  25.012   4.571   3.571 -0.1067  0.4235  0.3640
 8552W        W10752   4.351   2.705   9.474  0.0238  0.1862 -0.1893
 8553W        W10753  14.355   6.125  22.243  0.0682  0.1228 -0.2348
 8554W        W10754  16.297   6.420  23.265 -0.0186 -0.1077 -0.2303
 8555W        W10755   6.976   1.170  22.607 -0.3278  0.1142  0.0012
 8556W        W10756  10.458   1.522  24.243  0.1641 -0.1574 -0.0061
 8557W        W10757   3.717   1.903  16.212 -0.2559  0.1245  0.1729
 8558W        W10758   4.979   7.297   5.032  0.1084 -0.0188  0.2582
 8559W        W10759   6.232   1.747   2.933 -0.2217 -0.0227  0.0896
 8560W        W10760  10.872   4.796  20.644 -0.1018 -0.0119  0.1774
 8561W        W10761   1.357   7.273   3.307 -0.2985 -0.2082 -0.0793
 8562W        W10762  10.493   1.072   3.940  0.3331 -0.1882 -0.1483
 8563W        W10763  10.372   3.849  15.668 -0.0710 -0.1161 -0.1007
 8564W        W10764  28.505   1.160   1.723 -0.0985 -0.2248 -0.0997
 8565W        W10765  24.211   4.082  24.219 -0.1987  0.1339 -0.2374
 8566W        W10766  29.458   1.545   1.744  0.2818 -0.0096 -0.4050
 8567W        W10767   7.793   6.987   6.594 -0.0409  0.1706  0.0907
 8568W        W10768  10.621   1.060   4.603 -0.2109 -0.0931 -0.0597
 8569W        W10769  12.027   4.011  22.413  0.2073  0.0902 -0.2739
 8570W        W10770  18.806   3.825   6.025 -0.0428  0.0243 -0.0159
 8571W        W10771  18.390   2.543  15.886  0.2593 -0.1301 -0.1132
 8572W        W10772  15.938   2.719  17.354 -0.0706  0.1595 -0.2414
 8573W        W10773  17.901   4.255  10.054  0.0283  0.0200  0.2823
 8574W        W10774   9.320   4.606  16.780 -0.0707  0.1509 -0.0550
 8575W        W10775  22.454   4.343  26.184  0.2436 -0.0717 -0.0988
 8576W        W10776  25.571   1.584  22.048  0.0641  0.0763  0.1895
 8577W        W10777  10.496   5.816   2.610 -0.2244 -0.0060  0.1336
 8578W        W10778  18.895   1.587  17.561 -0.0876 -0.0913 -0.3941
 8579W        W10779  10.521   4.639   3.831 -0.3011  0.1112 -0.0226
 8580W        W10780  14.045   7.025   5.605  0.5378 -0.0182 -0.0000
 8581W        W10781   0.899   1.453   6.186  0.2818  0.0626  0.1206
 8582W        W10782   7.783   7.231   9.434 -0.3329 -0.2610 -0.0972
 8583W        W10783  20.276   4.887   9.514 -0.0255  0.0618  0.2833
 8584W        W10784   3.763   1.593  21.139  0.1842 -0.3046 -0.2296
 8585W        W10785  28.262   7.041  17.956 -0.0481  0.0335  0.1449
 8586W        W10786  18.699   0.629  17.306 -0.1329  0.3430 -0.0892
 8587W        W10787   8.084   1.286  18.952  0.2086 -0.1853 -0.0148
 8588W        W10788  14.383   3.411   0.813  0.3198 -0.1244  0.1364
 8589W        W10789   6.568   5.450  24.459  0.1852  0.1060  0.1425
 8590W        W10790  10.666   7.663  17.758 -0.1938 -0.0723 -0.2326
 8591W        W10791  12.835   3.797  23.780 -0.1945 -0.2191  0.1855
 8592W        W10792  14.805   1.293  17.733 -0.0057 -0.1434  0.0983
 8593W        W10793  18.593   2.996  18.975 -0.1095 -0.1993  0.1635
 8594W        W10794  26.397   2.030  22.500 -0.0586  0.2018  0.1933
 8595W        W10795   4.608   6.275   3.050  0.0783  0.3243  0.0795
 8596W        W10796  22.594   6.573  16.726 -0.2361 -0.2206  0.0213
 8597W        W10797  30.148   4.934  24.578  0.0234  0.2968  0.0446
 8598W        W10798  20.084   4.834  16.572 -0.1040  0.1926 -0.1399
 8599W        W10799  17.127   2.490   6.857  0.0157 -0.0221 -0.0214
 8600W        W10800   0.232   3.855   7.766 -0.2908 -0.0408 -0.1412
 8601W        W10801  11.382   6.159   5.904  0.0613 -0.1460  0.1423
 8602W        W10802   0.821   3.061  17.319 -0.0134 -0.3114  0.2555
 8603W        W10803  19.242   1.098  25.582 -0.0609 -0.0947  0.0413
 8604W        W10804  18.047   2.267  25.046 -0.0043  0.0207  0.1693
 8605W        W10805  22.331   1.829   8.192  0.2278  0.1566 -0.0242
 8606W        W10806  28.978   1.232   4.096  0.0826 -0.1996 -0.0798
 8607W        W10807  27.219   5.523  22.397  0.2278 -0.3467  0.2274
 8608W        W10808  17.678   1.621   5.704 -0.0488  0.1507  0.3900
 8609W        W10809  14.955   1.473  22.262  0.0901 -0.1050 -0.2645
 8610W        W10810  18.224   1.157  18.613  0.2510  0.3274  0.0253
 8611W        W10811  12.994   4.073  19.229  0.1143 -0.4605 -0.0534
 8612W        W10812   7.360   2.807  24.659 -0.1920 -0.1321  0.0464
 8613W        W10813  26.596   0.168   7.465  0.1041  0.1050  0.0410
 8614W        W10814   3.195   0.560   3.434 -0.0534  0.4207  0.2783
 8615W        W10815  17.095   6.342   5.491 -0.1424  0.0356  0.2404
 8616W        W10816  22.444   3.110   6.678 -0.1096 -0.1720  0.0723
 8617W        W10817   7.004   3.458  18.161  0.0596 -0.1755  0.1235
 8618W        W10818   1.090   0.886  23.742 -0.1698 -0.0700  0.0153
 8619W        W10819   6.910   2.940  24.789  0.0503  0.0053 -0.2322
 8620W        W10820   5.701   0.246  25.169  0.1268  0.0209  0.1954
 8621W        W10821   6.636   3.160   5.618  0.0131 -0.0738  0.0055
 8622W        W10822  20.073   5.701  18.142  0.0384  0.1573 -0.1292
 8623W        W10823  11.772   1.236  11.129  0.0523  0.0742  0.0602
 8624W        W10824  11.392   1.258   8.029 -0.1848  0.1476 -0.2477
 8625W        W10825   1.463   4.431   4.835  0.0425 -0.0484  0.0331
 8626W        W10826  30.952   6.948  19.417  0.0663  0.1844 -0.1437
 8627W        W10827  14.100   6.481  25.066  0.0567  0.3170 -0.1150
 8628W        W10828   6.825   0.739  10.808 -0.1391  0.0869  0.3628
 8629W        W10829   7.604   3.527   1.431  0.0545 -0.1280 -0.3578
 8630W        W10830  30.373   7.025  23.518 -0.0696 -0.2044 -0.0442
 8631W        W10831  22.011   3.090  19.628 -0.0156 -0.0293  0.0932
 8632W        W10832  18.172   0.670   2.916 -0.1319  0.1105 -0.0102
 8633W        W10833  14.258   1.843   4.984  0.2883  0.0979 -0.1024
 8634W        W10834  25.849   4.046  20.899  0.0062 -0.0176 -0.1610
 8635W        W10835  15.519   6.192  21.820  0.1358 -0.0606 -0.1461
 8636W        W10836  20.283   5.597  23.500  0.1617 -0.0124  0.1771
 8637W        W10837  28.650   1.481   0.547 -0.1037  0.0330  0.0123
 8638W        W10838  25.548   2.864  16.525  0.0482  0.2073 -0.0135
 8639W        W10839  14.181   3.380  26.027 -0.0005 -0.0695 -0.2637
 8640W        W10840   3.891   6.938   2.557 -0.2873  0.0977  0.1089
 8641W        W10841   2.409   3.836   0.480 -0.0257  0.0269  0.0487
 8642W        W10842  13.348   1.813   3.192 -0.1317  0.0191  0.0419
 8643W        W10843  15.180   2.780   6.824  0.0316 -0.0850 -0.0592
 8644W        W10844  26.383   0.013  23.893  0.2321 -0.0730 -0.0158
 8645W        W10845   4.361   5.708  22.825  0.0173 -0.2940 -0.1098
 8646W        W10846  24.717   3.900   2.065  0.1533 -0.0243 -0.3813
 8647W        W10847  12.173   2.297  20.186 -0.4269  0.2637  0.0418
 8648W        W10848   4.457   1.310   9.185 -0.0655  0.2426 -0.0382
 8649W        W10849   0.243   0.878   0.881 -0.3511 -0.1486  0.2599
 8650W        W10850   0.076   3.112   8.785  0.1033  0.1654 -0.2419
 8651W        W10851   9.634   4.011   3.706  0.0954  0.1763 -0.0267
 8652W        W10852  24.955   7.732   3.670 -0.0232 -0.1325  0.1424
 8653W        W10853  27.784   7.168  17.741 -0.2169 -0.0060  0.1967
 8654W        W10854  16.941   2.099  23.532  0.0118 -0.0725  0.1922
 8655W        W10855  14.618   1.256   1.705  0.1233 -0.1634  0.0426
 8656W        W10856   9.412   3.449  21.766  0.1099 -0.1372  0.0542
 8657W        W10857   8.495   5.245   9.579 -0.1641  0.0565  0.0532
 8658W        W10858   6.463   6.968  17.684  0.1600 -0.1128  0.1492
 8659W        W10859  23.755   3.526  15.521 -0.0372 -0.2346  0.3376
 8660W        W10860   0.148   0.476  24.960  0.1121  0.0943 -0.2111
 8661W        W10861  21.652   4.889  10.047 -0.1359 -0.1902 -0.1539
 8662W        W10862  27.989   4.069  17.096 -0.0700  0.1640 -0.2616
 8663W        W10863  26.162   3.959  15.937 -0.4495 -0.1885  0.1277
 8664W        W10864  18.676   6.249  19.048 -0.0482  0.4041 -0.0578
 8665W        W10865  14.449   6.084  24.213 -0.2006 -0.0674 -0.1457
 8666W        W10866  13.865   5.823   9.573  0.3789  0.0533 -0.3088
 8667W        W10867  14.840   0.611  20.795 -0.1846  0.2842 -0.1007
 8668W        W10868  28.080   1.737   7.544  0.0125 -0.2117  0.0338
 8669W        W10869  14.326   1.841   3.388 -0.3176  0.4170 -0.2204
 8670W        W10870  23.067   4.178  26.027 -0.0786 -0.1477 -0.1232
 8671W        W10871  30.267   4.524   8.159  0.1804 -0.1679 -0.1870
 8672W        W10872  10.328   5.330  15.629  0.0875  0.0389  0.0852
 8673W        W10873  25.974   3.525  23.059  0.2626 -0.0723  0.1179
 8674W        W10874   2.323   3.675  19.929 -0.0897  0.1081 -0.2265
 8675W        W10875  16.649   3.368  25.347 -0.2076  0.1896  0.0302
 8676W        W10876  20.270   0.798   9.200  0.1276 -0.0044  0.2625
 8677W        W10877   2.052   3.077   4.240  0.1683  0.0695  0.3312
 8678W        W10878  17.513   4.765  10.781  0.0117  0.1147  0.1570
 8679W        W10879  13.542   6.520  22.086 -0.0043  0.2914 -0.0673
 8680W        W10880  10.606   0.089  24.303 -0.2248 -0.0109  0.0539
 8681W        W10881  10.825   1.110   2.195  0.1145  0.0945 -0.0794
 8682W        W10882  17.468   4.541   9.836 -0.0228 -0.4047 -0.1196
 8683W        W10883  25.091   7.260  26.162 -0.0220 -0.1832  0.0738
 8684W        W10884   2.578   5.014   5.494  0.1200  0.1077 -0.0394
 8685W        W10885   5.614   4.963  25.941 -0.2778 -0.4554 -0.2207
 8686W        W10886  25.597   2.680   6.679  0.0956  0.1839 -0.0323
 8687W        W10887  25.000   7.631   8.612 -0.1240 -0.0205  0.1569
 8688W        W10888  27.230   6.413  17.716 -0.1661  0.2100  0.4083
 8689W        W10889   1.601   4.408   4.098  0.1163 -0.1618  0.2468
 8690W        W10890  11.246   3.052   6.431  0.3279 -0.3185 -0.2574
 8691W        W10891  24.057   2.781   1.519  0.0267  0.0580 -0.1170
 8692W        W10892  30.732   7.556  21.891 -0.0346  0.0307 -0.0179
 8693W        W10893   4.055   3.555   1.862 -0.0682  0.3164 -0.0072
 8694W        W10894  28.284   3.739  25.351  0.1409 -0.1550 -0.0487
 8695W        W10895  30.485   1.123  23.439 -0.0835 -0.2766 -0.1872
 8696W        W10896   3.459   4.544   3.859 -0.2579  0.0112  0.1112
 8697W        W10897  23.177   2.675  21.007  0.0367  0.2125 -0.2803
 8698W        W10898  19.987   4.117   8.875 -0.1113  0.0632  0.6157
 8699W        W10899  23.549   0.300  20.811 -0.3415 -0.2089 -0.0352
 8700W        W10900  26.207   1.675  20.837  0.0173  0.1254 -0.0243
 8701W        W10901  23.924   1.356  23.588 -0.0780 -0.1046 -0.2214
 8702W        W10902  15.973   4.072  22.701 -0.1881 -0.1231 -0.2102
 8703W        W10903   0.321   4.313   7.222 -0.1655  0.1480  0.0824
 8704W        W10904   4.033   7.093   6.770 -0.1031  0.1211  0.1880
 8705W        W10905  11.401   1.552  19.935 -0.2939 -0.0580  0.0695
 8706W        W10906  20.953   6.079  24.563 -0.0620 -0.0936  0.1577
 8707W        W10907  20.468   0.357   5.326 -0.1015  0.0488  0.1020
 8708W        W10908  11.957   5.009  24.872  0.0385 -0.0556  0.0233
 8709W        W10909   3.215   7.350  18.481  0.0137  0.2086  0.3452
 8710W        W10910   1.528   1.175   8.118 -0.0371 -0.1283 -0.0481
 8711W        W10911   8.252   2.143   0.563 -0.1071  0.1698  0.0035
 8712W        W10912  10.590   2.222   6.852  0.2444  0.3016 -0.0971
 8713W        W10913  24.252   4.416  16.997  0.0965  0.0368 -0.2150
 8714W        W10914  15.472   3.504  16.846  0.2380  0.2663  0.1436
 8715W        W10915  24.136   2.192  10.295  0.0893 -0.2476  0.2336
 8716W        W10916  21.096   3.564  21.621 -0.1312 -0.4134 -0.1405
 8717W        W10917  14.542   3.285   8.388  0.2011  0.0411 -0.2110
 8718W        W10918   5.087   5.697   3.173 -0.2746 -0.0213  0.0930
 8719W        W10919  11.749   1.922  21.931 -0.0209 -0.0619  0.2524
 8720W        W10920   7.165   1.681  20.151 -0.2177  0.2469 -0.4101
 8721W        W10921  30.443   5.058  25.397 -0.1793 -0.2298 -0.0709
 8722W        W10922   4.369   3.721   1.460 -0.0961  0.3340 -0.1201
 8723W        W10923  22.407   7.149  23.369  0.1041 -0.1026 -0.1307
 8724W        W10924   0.397   7.725   4.731  0.0171  0.0388  0.0663
 8725W        W10925   1.176   3.318  16.436  0.0679 -0.1535 -0.0227
 8726W        W10926   6.899   6.890  21.494  0.1092 -0.0289  0.0242
 8727W        W10927  15.253   3.965  17.282 -0.1019 -0.0719 -0.0861
 8728W        W10928  13.063   7.572   3.541 -0.1791 -0.3474  0.4035
 8729W        W10929  12.922   1.516  25.486 -0.0328  0.1759  0.0694
 8730W        W10930   0.736   2.063  25.992 -0.2005  0.0809  0.2155
 8731W        W10931  14.931   5.913  16.083 -0.1061 -0.1093 -0.0521
 8732W        W10932  28.197   6.436   1.852 -0.0412 -0.1520 -0.0499
 8733W        W10933  16.067   2.099  19.795 -0.1014  0.0155  0.0813
 8734W        W10934  28.028   7.794  18.319 -0.0028 -0.1584 -0.0022
 8735W        W10935  19.910   6.930  22.706  0.2250 -0.2546  0.2767
 8736W        W10936  30.175   6.480   1.129  0.3178  0.2089  0.4069
 8737W        W10937  17.800   3.232  19.397  0.2349 -0.3353 -0.1613
 8738W        W10938   3.165   0.182   9.403 -0.0013  0.1476  0.2334
 8739W        W10939   9.361   6.738   2.197 -0.3739  0.2143  0.0752
 8740W        W10940   6.794   4.762  21.359  0.1119 -0.2386  0.1130
 8741W        W10941  10.446   0.156   9.632  0.2527 -0.3761  0.3000
 8742W        W10942   9.683   7.055   8.532  0.1416 -0.1546 -0.0663
 8743W        W10943  17.705   3.943  24.398 -0.0306  0.1096 -0.1721
 8744W        W10944   4.348   2.215  20.925 -0.2166  0.2535 -0.2962
 8745W        W10945   7.749   4.797  20.436  0.0723 -0.1877  0.1514
 8746W        W10946   0.030   6.513   5.823  0.1496  0.0020  0.1972
 8747W        W10947  22.756   1.605   1.807 -0.0898 -0.2898  0.1670
 8748W        W10948   6.401   0.570   8.511 -0.0036  0.1063  0.1083
 8749W        W10949  11.207   6.494   3.219  0.0663 -0.2660 -0.0513
 8750W        W10950   8.003   5.204  20.207 -0.2717 -0.3017 -0.2362
 8751W        W10951  28.399   4.409  22.937 -0.3385  0.2276 -0.0506
 8752W        W10952   6.122   3.746   7.414 -0.0352 -0.2029  0.2076
 8753W        W10953   5.003   1.638  15.847 -0.0265  0.3303 -0.3071
 8754W        W10954   8.308   6.771   4.538 -0.2875 -0.0016  0.0287
 8755W        W10955   3.231   4.520  19.084  0.0161  0.0926  0.0508
 8756W        W10956   2.658   1.397   2.427 -0.1066  0.0355 -0.1222
 8757W        W10957  19.005   6.534   3.894 -0.0921 -0.0437 -0.1315
 8758W        W10958   5.700   7.339  24.151 -0.3526  0.1715 -0.1741
 8759W        W10959   2.438   0.625   1.279 -0.0669  0.1355 -0.0127
 8760W        W10960   3.373   6.788  19.486  0.3097  0.0967  0.1046
 8761W        W10961  28.067   2.029  19.018 -0.0170  0.1260  0.2603
 8762W        W10962  17.669   0.540   9.522  0.0184 -0.0428  0.0454
 8763W        W10963  14.082   1.702  24.478  0.0511 -0.3240 -0.0706
 8764W        W10964   3.567   3.727  21.401  0.1369 -0.0292 -0.4639
 8765W        W10965  12.734   7.035  21.019 -0.0322 -0.2281 -0.0179
 8766W        W10966  10.239   4.854  23.491 -0.1584  0.0033 -0.0750
 8767W        W10967  19.467   3.435  16.407  0.0499  0.2074 -0.0106
 8768W        W10968   6.904   7.393  16.911 -0.0141 -0.0415  0.0400
 8769W        W10969  10.339   7.725   1.328  0.1039 -0.1583 -0.2733
 8770W        W10970   3.345   0.096  22.411  0.1897  0.0132  0.2814
 8771W        W10971  24.305   2.331   3.964 -0.3100  0.1335  0.0448
 8772W        W10972   2.698   4.376  21.555 -0.1890 -0.1376 -0.2015
 8773W        W10973  30.293   4.087  19.144 -0.1975 -0.0149  0.0001
 8774W        W10974   3.163   2.441  21.550  0.0358  0.1228 -0.0383
 8775W        W10975  22.565   5.385  23.985 -0.2213 -0.1025 -0.2759
 8776W        W10976   6.916   0.580  19.572 -0.1487  0.0695 -0.1568
 8777W        W10977  18.039   3.993   0.805  0.0002  0.0267 -0.3740
 8778W        W10978  20.482   4.356  10.446  0.2558  0.0725 -0.2430
 8779W        W10979   7.124   0.333   4.824 -0.4650  0.1063  0.0015
 8780W        W10980   0.273   7.788   6.031  0.1399 -0.0769 -0.2255
 8781W        W10981  14.302   5.689   5.813  0.0167 -0.0504  0.0517
 8782W        W10982   5.031   2.588  19.301  0.0901 -0.0620 -0.1893
 8783W        W10983  17.331   2.873  19.785 -0.0152  0.2284 -0.2264
 8784W        W10984  17.490   0.411   9.990 -0.0280  0.1331 -0.1033
 8785W        W10985   2.872   0.079   2.178 -0.0994 -0.1542 -0.0905
 8786W        W10986  30.997   1.026  10.850  0.1131 -0.1136  0.2046
 8787W        W10987  14.014   3.988   2.227  0.0143 -0.1525  0.1977
 8788W        W10988  20.545   2.801  16.678 -0.1853  0.1827  0.0527
 8789W        W10989   8.005   6.936  24.287 -0.2432 -0.0126 -0.3064
 8790W        W10990  18.647   5.745   6.517 -0.0366  0.3394 -0.3031
 8791W        W10991  27.216   0.154   0.889  0.0966  0.0918 -0.1983
 8792W        W10992  25.457   4.248   5.040 -0.1544  0.1542  0.1539
 8793W        W10993  12.392   6.331  15.489  0.0521  0.1884  0.3925
 8794W        W10994  21.323   4.028   4.372  0.2218 -0.1167  0.0278
 8795W        W10995  20.501   7.385  26.063 -0.2447  0.2447 -0.0515
 8796W        W10996  30.694   1.590  18.306  0.1351 -0.3691 -0.2613
 8797W        W10997   5.617   0.118  16.918  0.3653 -0.0939 -0.3795
 8798W        W10998  15.833   7.120  19.539  0.0412 -0.1053  0.0344
 8799W        W10999   0.422   4.277   4.045  0.2785  0.0277  0.1913
 8800W        W11000  22.435   0.327  22.917 -0.0442  0.0331  0.0775
 8801W        W11001  13.227   3.415  22.646 -0.0371  0.1843 -0.1260
 8802W        W11002  27.580   1.088   1.308 -0.1365  0.0547  0.2573
 8803W        W11003  31.011   7.147  11.920  0.2272 -0.0315  0.0754
 8804W        W11004  22.371   6.789   2.974 -0.1549  0.1214  0.1210
 8805W        W11005   5.349   1.945  21.620 -0.0784  0.1758  0.1980
 8806W        W11006  15.629   6.211  18.753  0.4603  0.1105  0.2741
 8807W        W11007  14.504   5.318   2.742  0.1737  0.1258 -0.0209
 8808W        W11008  19.296   6.993  15.034  0.0969  0.2033  0.1373
 8809W        W11009  16.154   1.914  19.283 -0.1396 -0.1641  0.3546
 8810W        W11010  22.518   5.134  22.593  0.0863  0.2505 -0.1251
 8811W        W11011  15.483   7.654   2.222 -0.0378  0.0228 -0.0953
 8812W        W11012  23.149   7.303   3.055  0.0617 -0.0613 -0.2562
 8813W        W11013  29.553   4.168  23.572  0.3673  0.4664  0.2724
 8814W        W11014   6.075   6.884   5.179 -0.0384  0.3108 -0.0943
 8815W        W11015  12.005   4.751   6.519  0.1235 -0.0754  0.0769
 8816W        W11016  23.971   7.129   9.900 -0.3153  0.0362  0.0684
 8817W        W11017   6.930   6.074  17.708 -0.0382 -0.0455  0.0719
 8818W        W11018  13.748   2.899   1.428 -0.1419  0.1110  0.1134
 8819W        W11019   5.805   2.022  25.081  0.0690 -0.2024  0.0128
 8820W        W11020  14.388   1.569  17.763 -0.0084  0.0967  0.0752
 8821W        W11021  18.627   4.580  15.536 -0.1481 -0.3477 -0.5092
 8822W        W11022   5.212   5.940   0.988 -0.1684  0.3929  0.3400
 8823W        W11023  25.999   6.595   2.354 -0.0886  0.0573  0.3180
 8824W        W11024  15.730   3.622  20.090  0.1162  0.2693 -0.2353
 8825W        W11025  20.783   6.242  25.119  0.1880 -0.1004 -0.3306
 8826W        W11026  15.428   7.423   5.195  0.0462  0.1419  0.2975
 8827W        W11027  23.710   2.669   9.676 -0.1275 -0.0001  0.3244
 8828W        W11028   4.107   1.640  19.719  0.1776 -0.1665  0.1619
 8829W        W11029  18.248   6.528  24.494  0.1113 -0.2683 -0.2455
 8830W        W11030  13.623   6.333  25.061 -0.3135  0.1111 -0.1503
 8831W        W11031  11.190   4.026  17.454  0.3070 -0.0045 -0.2680
 8832W        W11032  20.388   0.835   7.059 -0.0961 -0.1496 -0.0031
 8833W        W11033  24.026   4.379  10.790 -0.0343  0.3248  0.0478
 8834W        W11034  26.583   6.398   4.574  0.1254  0.4166  0.4158
 8835W        W11035  12.724   7.202   0.035  0.1298 -0.0042  0.0238
 8836W        W11036  29.600   5.379  21.394 -0.0076 -0.0552  0.1246
 8837W        W11037  13.302   0.422   2.897  0.1227  0.0678  0.0076
 8838W        W11038  12.200   3.319  10.384  0.0023 -0.1665 -0.3165
 8839W        W11039  24.774   5.031   3.501  0.0611 -0.1610  0.2560
 8840W        W11040   8.478   7.163  18.880  0.2256 -0.1473 -0.1184
 8841W        W11041  19.234   5.126   5.706  0.1310 -0.1229  0.1607
 8842W        W11042  26.322   0.146   5.532 -0.1509  0.1432 -0.2066
 8843W        W11043  23.662   0.560  21.224  0.0873 -0.0762  0.0484
 8844W        W11044   0.396   1.453   0.261  0.1202 -0.1015  0.3235
 8845W        W11045   5.907   0.799   1.695 -0.3305 -0.0713  0.1488
 8846W        W11046   2.340   1.378  16.603 -0.0739 -0.0022 -0.4081
 8847W        W11047   8.214   6.631  23.902  0.3155  0.1692  0.0024
 8848W        W11048   8.353   0.100  20.739 -0.1578  0.0691 -0.3362
 8849W        W11049  14.518   5.294  17.529 -0.0854  0.2225  0.0205
 8850W        W11050  25.995   1.084  11.232  0.0187 -0.1756  0.0773
 8851W        W11051   7.394   1.180   3.732  0.0897 -0.1444  0.2194
 8852W        W11052   3.847   1.963   6.916 -0.0572 -0.1649  0.3435
 8853W        W11053  12.590   0.114  23.587 -0.0043  0.1599  0.0706
 8854W        W11054  13.015   2.008  22.858 -0.0330 -0.1602  0.3843
 8855W        W11055   5.177   5.396   3.631  0.0738 -0.2585 -0.0565
 8856W        W11056  11.038   5.254   5.086 -0.2168 -0.0021 -0.1754
 8857W        W11057   0.418   1.758   8.470 -0.1460 -0.1827  0.0592
 8858W        W11058  21.437   0.459   7.992 -0.0022 -0.0865 -0.2949
 8859W        W11059  22.785   5.195   3.066  0.1192 -0.4483 -0.2883
 8860W        W11060  19.615   2.207   0.624  0.1065  0.4953 -0.1313
 8861W        W11061  30.329   3.669   0.852  0.1351  0.2610 -0.1876
 8862W        W11062  12.385   2.442   2.928 -0.5037  0.0114  0.1373
 8863W        W11063  30.643   5.878   1.375  0.3210  0.0337  0.0822
 8864W        W11064  14.261   0.825  18.797  0.0085  0.1375 -0.2350
 8865W        W11065  15.778   5.358   2.093 -0.0228 -0.0155 -0.3778
 8866W        W11066   4.069   6.943  18.478 -0.0726 -0.0028 -0.0210
 8867W        W11067  30.222   2.053   6.251  0.2559 -0.2229  0.3948
 8868W        W11068  10.446   5.618  16.397 -0.2421 -0.0825  0.1769
 8869W        W11069  12.137   6.837  26.119  0.2583 -0.1476  0.0934
 8870W        W11070  16.764   0.282   4.840 -0.0223 -0.0558  0.1083
 8871W        W11071  14.734   3.972  21.176 -0.0910  0.1052  0.0076
 8872W        W11072  21.785   0.769  17.757 -0.1739 -0.0200  0.0606
 8873W        W11073  20.441   5.133  22.184 -0.0877  0.0411 -0.0935
 8874W        W11074  25.067   6.463   1.700  0.0547 -0.4333 -0.0919
 8875W        W11075  12.429   6.873  24.115 -0.3421  0.1815 -0.0456
 8876W        W11076   2.837   2.894  11.127  0.4181 -0.2357 -0.3616
 8877W        W11077  27.054   0.954  15.040 -0.1286 -0.2497 -0.1550
 8878W        W11078  18.553   5.927  24.512  0.0432  0.0198  0.1198
 8879W        W11079  19.493   6.133  16.655 -0.1438  0.5098  0.0479
 8880W        W11080  18.095   4.103  19.621 -0.0236 -0.3546  0.1487
 8881W        W11081  21.232   6.847  24.354  0.0533  0.1312 -0.3364
 8882W        W11082  30.164   6.383  21.337  0.4345 -0.1462 -0.0161
 8883W        W11083  27.926   1.031  10.022 -0.2574 -0.2209  0.0446
 8884W        W11084  13.038   0.333  16.886 -0.3119 -0.0254 -0.3385
 8885W        W11085  18.229   6.658   8.776 -0.1992  0.1331  0.0220
 8886W        W11086   9.058   2.611   7.395  0.1230 -0.0489 -0.0793
 8887W        W11087  30.343   1.438  18.621  0.3810  0.2740 -0.1146
 8888W        W11088  28.940   4.837  24.920  0.0206 -0.1290  0.1925
 8889W        W11089  30.592   4.805  17.874  0.1280  0.1597 -0.3163
 8890W        W11090   5.939   7.681  19.905  0.1889  0.0198 -0.0048
 8891W        W11091  15.946   2.852  17.871 -0.0793 -0.0261 -0.0217
 8892W        W11092  29.236   0.496  15.234  0.1920  0.1068  0.0118
 8893W        W11093   5.634   0.009  11.518  0.1057 -0.0855 -0.0189
 8894W        W11094  12.085   3.879  19.601 -0.0200  0.0607  0.2283
 8895W        W11095  28.615   2.746  24.512  0.0874 -0.1258 -0.0030
 8896W        W11096  24.925   0.048  23.695  0.0775  0.2501  0.2640
 8897W        W11097   2.841   2.401   3.366  0.0062  0.1372 -0.0485
 8898W        W11098  14.545   6.464   3.058  0.1586  0.0198  0.0671
 8899W        W11099  29.676   6.659   9.787  0.4807  0.2345 -0.1706
 8900W        W11100   4.938   1.118  16.009  0.1094  0.0174  0.0440
 8901W        W11101  13.993   5.966   1.087 -0.2642 -0.0634  0.0961
 8902W        W11102  19.017   1.837  25.030 -0.2653  0.0900  0.0207
 8903W        W11103  11.773   1.306   4.992  0.0591 -0.2550  0.0269
 8904W        W11104  27.798   2.896  18.835 -0.0056 -0.0701  0.3037
 8905W        W11105   6.254   6.184  17.404  0.2732  0.2262 -0.0493
 8906W        W11106   6.448   4.438  10.249 -0.2799 -0.0823  0.5093
 8907W        W11107  12.411   3.782  10.079 -0.0416 -0.0077  0.0412
 8908W        W11108   3.885   6.857  10.757  0.3426 -0.0383 -0.0863
 8909W        W11109  22.704   0.199  17.976  0.0899 -0.3804 -0.0974
 8910W        W11110   6.037   0.905  21.918 -0.0041 -0.1970  0.1156
 8911W        W11111  11.926   2.396   5.724 -0.0865  0.0949 -0.1472
 8912W        W11112  26.045   4.207  25.512  0.1967  0.0305  0.0188
 8913W        W11113  13.711   3.600  18.773  0.0933  0.3302  0.1227
 8914W        W11114   9.224   1.455  17.973 -0.1053 -0.0622 -0.0102
 8915W        W11115   2.422   5.360  23.804  0.0182  0.1120  0.2020
 8916W        W11116  25.294   2.393  18.606 -0.2071  0.0401  0.0366
 8917W        W11117  30.650   0.154   4.932 -0.1428  0.1367  0.1820
 8918W        W11118  13.395   0.401  18.260  0.1517 -0.0969 -0.0207
 8919W        W11119  10.078   5.570   2.993 -0.2555  0.3916  0.2259
 8920W        W11120  20.498   5.300   7.980  0.2883  0.0095  0.2589
 8921W        W11121   6.645   4.014  16.947 -0.1384  0.1334 -0.1549
 8922W        W11122   0.433   6.891  17.841 -0.2958  0.1441 -0.1624
 8923W        W11123   4.157   0.920   9.425 -0.1137  0.4166 -0.0861
 8924W        W11124  15.939   4.310  17.042 -0.2619 -0.3257 -0.0422
 8925W        W11125  20.494   3.395  18.846  0.1075 -0.0856 -0.2468
 8926W        W11126  12.054   5.437  23.091  0.0059  0.0012  0.2110
 8927W        W11127  29.080   3.339  24.209  0.0233 -0.1652  0.1284
 8928W        W11128   0.443   3.874   8.410  0.2447  0.2371  0.1383
 8929W        W11129   6.693   2.112  19.331  0.2945  0.0740 -0.1426
 8930W        W11130  22.848   2.775   6.963 -0.2591 -0.2363  0.1388
 8931W        W11131  26.593   2.455  21.313 -0.1111 -0.3985  0.0288
 8932W        W11132  26.828   6.887  15.268 -0.0065  0.1058  0.3481
 8933W        W11133   2.474   7.136  20.736  0.1551 -0.2608 -0.1108
 8934W        W11134  24.177   4.147  25.505  0.1534 -0.0646 -0.3420
 8935W        W11135   4.786   6.176  17.698 -0.1290 -0.1390  0.5707
 8936W        W11136  29.671   7.239   1.465 -0.2795 -0.1865  0.0217
 8937W        W11137  15.453   7.057  20.477 -0.2237  0.2241  0.0941
 8938W        W11138  21.523   7.271  25.334 -0.3391  0.0614  0.1228
 8939W        W11139  29.869   7.255  22.639  0.0526  0.2524  0.2838
 8940W        W11140  29.221   5.347  14.834 -0.2303 -0.1091  0.0878
 8941W        W11141   1.551   1.462  20.376  0.1300 -0.2386 -0.1904
 8942W        W11142  13.722   2.536  25.473 -0.0067 -0.0305  0.0350
 8943W        W11143  22.055   3.431  19.235  0.2679 -0.2151  0.3159
 8944W        W11144  19.164   3.642  17.753  0.4187 -0.1862  0.1405
 8945W        W11145  17.491   6.604  20.880  0.0243 -0.3049  0.0684
 8946W        W11146   3.101   7.493  22.933 -0.2043 -0.0150  0.0300
 8947W        W11147  14.154   5.085  21.425 -0.1916  0.2082 -0.0469
 8948W        W11148  25.700   0.678  23.756  0.0952 -0.0690 -0.3040
 8949W        W11149  25.538   4.668  23.736 -0.0772 -0.1790  0.1802
 8950W        W11150  21.582   7.470  17.984  0.0912 -0.0544 -0.0424
 8951W        W11151  21.833   3.476   2.674 -0.3986 -0.0054 -0.1216
 8952W        W11152  29.906   0.045  17.139 -0.0480 -0.0170  0.1447
 8953W        W11153   8.051   5.096  22.607 -0.2995  0.2390 -0.1018
 8954W        W11154  20.201   3.745  21.977  0.3272 -0.1124 -0.3469
 8955W        W11155  30.294   2.048  22.751 -0.1954  0.0541 -0.2407
 8956W        W11156  27.442   4.533  16.574  0.0134 -0.1218  0.0667
 8957W        W11157  26.487   2.353  20.429 -0.1141 -0.0469 -0.1072
 8958W        W11158  14.703   5.732   2.851  0.0734 -0.2622  0.2530
 8959W        W11159  26.548   4.104  20.947 -0.2215 -0.1450 -0.2513
 8960W        W11160  26.308   7.410   9.697  0.1630 -0.2972  0.2104
 8961W        W11161  25.387   7.055  23.671  0.2415 -0.3375  0.1502
 8962W        W11162   5.355   0.852   3.409  0.0170  0.1689  0.0672
 8963W        W11163  23.079   0.896  25.082 -0.0311  0.2684  0.0920
 8964W        W11164  16.941   3.883  17.999 -0.2165 -0.2691 -0.1725
 8965W        W11165  22.655   0.366  21.872 -0.1001 -0.0286  0.0909
 8966W        W11166  30.097   4.935  15.714 -0.1310  0.1652  0.1350
 8967W        W11167  14.306   7.450  25.911 -0.0359  0.0538  0.2032
 8968W        W11168   3.540   1.326   1.481  0.2803  0.0351 -0.4578
 8969W        W11169  30.879   6.159  22.069  0.2177 -0.1318  0.0719
 8970W        W11170  26.487   4.943  24.041  0.3196 -0.2339 -0.2660
 8971W        W11171  22.550   6.060  21.272  0.0615  0.2947  0.0408
 8972W        W11172  24.621   7.070  22.097 -0.0038  0.0742 -0.1119
 8973W        W11173  16.301   6.415  15.977 -0.0171 -0.0727 -0.0697
 8974W        W11174   5.587   1.811  24.600  0.1839  0.0362 -0.1832
 8975W        W11175   6.800   0.179  15.827 -0.0558  0.0305 -0.0986
 8976W        W11176  25.849   5.378  23.758  0.0607 -0.0291  0.0974
 8977W        W11177  27.821   7.646   6.043 -0.1141  0.0324 -0.0191
 8978W        W11178  24.213   4.325  19.245  0.3528  0.1176  0.2332
 8979W        W11179   0.161   3.857  25.089  0.1962 -0.0401  0.0019
 8980W        W11180   7.530   6.734   0.452  0.1475  0.1416  0.3648
 8981W        W11181  28.764   1.572   8.226  0.1246 -0.0142 -0.0900
 8982W        W11182   7.623   5.901   0.150 -0.1165 -0.0922  0.3044
 8983W        W11183  26.574   5.162  16.660 -0.2123  0.0363 -0.2456
 8984W        W11184  28.591   6.277   4.873  0.2940 -0.0068  0.1197
 8985W        W11185  23.912   1.691  10.363 -0.0891 -0.2105  0.2912
 8986W        W11186  28.767   7.369   6.157  0.0424  0.1010  0.4682
 8987W        W11187  30.326   6.407   2.981 -0.0379 -0.1786  0.0401
 8988W        W11188   8.799   7.754  17.795  0.2563 -0.1017  0.0309
 8989W        W11189  14.765   5.510   8.307  0.0166 -0.2762  0.1751
 8990W        W11190   3.308   7.704  23.344 -0.0268 -0.1666 -0.2419
 8991W        W11191   4.849   3.893  15.862 -0.0531 -0.0861 -0.1479
 8992W        W11192  23.715   2.926   8.718  0.0208 -0.2582 -0.1278
 8993W        W11193  24.854   7.747   0.054  0.2328  0.2037 -0.3165
 8994W        W11194  22.711   0.333   3.999  0.1710  0.2492 -0.2230
 8995W        W11195  18.138   4.110  16.963  0.2575  0.2166  0.4031
 8996W        W11196   8.526   7.029   8.658  0.0576  0.3446 -0.0465
 8997W        W11197  24.878   2.257  16.624  0.2865 -0.2595  0.2208
 8998W        W11198   8.149   4.195  19.139 -0.0592  0.1601  0.1412
 8999W        W11199   3.111   5.575  21.365 -0.0935 -0.1173 -0.0079
 9000W        W11200  12.494   4.459  21.653 -0.0897  0.0940 -0.1536
 9001W        W11201  26.092   7.415  21.586 -0.1203 -0.1130  0.0569
 9002W        W11202  13.795   1.449  10.905  0.0558  0.3311  0.0549
 9003W        W11203  18.160   2.078  24.549 -0.1592 -0.2385 -0.1372
 9004W        W11204  23.575   2.508   9.219  0.1984 -0.0756 -0.0240
 9005W        W11205  28.099   2.342   1.211  0.2577 -0.0918  0.0757
 9006W        W11206   1.637   2.870  24.188 -0.0581  0.0620 -0.1919
 9007W        W11207   0.998   1.912   5.080  0.1119  0.0355 -0.2970
 9008W        W11208  27.393   3.590   3.094  0.0173  0.1745  0.1049
 9009W        W11209   6.598   2.133   8.571 -0.1042 -0.0125  0.0061
 9010W        W11210  26.448   6.630  24.467  0.1264  0.1044 -0.1396
 9011W        W11211  20.563   5.529  16.268 -0.0859  0.1307  0.0894
 9012W        W11212   6.862   7.629  21.791  0.2214 -0.0441 -0.0093
 9013W        W11213  12.665   5.110  24.284 -0.0386 -0.0238  0.0277
 9014W        W11214  24.034   3.824  25.098 -0.0852  0.1049 -0.1716
 9015W        W11215   6.766   4.341   3.968  0.0490 -0.1301  0.1350
 9016W        W11216  28.133   0.382   5.462 -0.2221 -0.0481 -0.0602
 9017W        W11217   6.196   3.691   1.993 -0.1666  0.3136  0.1107
 9018W        W11218  10.265   6.234  20.050  0.0255 -0.1102 -0.0385
 9019W        W11219   6.641   5.552  18.052 -0.3102 -0.0336 -0.0170
 9020W        W11220  21.776   2.161  17.858  0.1594  0.2102 -0.2645
 9021W        W11221  22.842   1.288  25.093  0.0184 -0.0553  0.0364
 9022W        W11222  10.134   0.761   9.317  0.3795  0.0791  0.2150
 9023W        W11223   2.965   1.048  19.119 -0.3267 -0.2849 -0.1137
 9024W        W11224  23.158   4.908  18.601  0.3581  0.0989  0.0807
 9025W        W11225   6.612   6.564  16.011 -0.1613  0.1061 -0.0181
 9026W        W11226  25.122   3.709  24.861 -0.4164 -0.0010 -0.2143
 9027W        W11227  14.808   6.474   3.465 -0.4132  0.0081  0.1564
 9028W        W11228  13.126   1.030   0.104  0.2195  0.1893 -0.1442
 9029W        W11229  12.608   5.615   6.414 -0.1094 -0.2787  0.2262
 9030W        W11230  11.136   6.302   5.373  0.2041 -0.0670 -0.1058
 9031W        W11231  25.425   5.785   6.698  0.0194 -0.1650 -0.0891
 9032W        W11232  29.265   2.850  14.971 -0.1966  0.0475  0.4009
 9033W        W11233   2.063   6.704  16.143 -0.1447 -0.0045 -0.1999
 9034W        W11234  27.741   4.600   7.233  0.1598 -0.0983  0.1053
 9035W        W11235  17.435   0.781   5.471 -0.2206  0.0861  0.1920
 9036W        W11236  24.599   6.269  20.525  0.1005  0.0682 -0.0205
 9037W        W11237   4.480   1.599   8.634  0.1346  0.1909  0.1957
 9038W        W11238  18.121   0.840  10.216 -0.1236 -0.0715 -0.0668
 9039W        W11239  22.627   2.940   0.073 -0.1641  0.1749 -0.1226
 9040W        W11240  26.800   2.935  10.218  0.3993  0.1693 -0.1176
 9041W        W11241  26.169   4.978  11.131 -0.1892 -0.1844  0.2020
 9042W        W11242  18.394   4.632  25.053  0.1562  0.0442  0.2100
 9043W        W11243   9.451   7.057  25.938  0.2292 -0.1771  0.0970
 9044W        W11244   6.864   2.267   3.345  0.0549  0.1824 -0.1952
 9045W        W11245  27.703   5.119  17.851  0.0487 -0.1664  0.0065
 9046W        W11246  12.539   6.218  18.896 -0.0657  0.2422 -0.1005
 9047W        W11247  25.490   0.214   4.963  0.1782 -0.1471 -0.0621
 9048W        W11248   7.010   5.044  21.707  0.0991 -0.0145  0.1362
 9049W        W11249  20.208   0.406   6.695 -0.1243 -0.3164  0.1258
 9050W        W11250   8.149   0.247   6.896 -0.1424  0.0697  0.1777
 9051W        W11251  11.177   6.560  21.592  0.0543 -0.0711 -0.0012
 9052W        W11252  27.924   5.399   0.188 -0.1548 -0.1176 -0.0627
 9053W        W11253  10.083   3.588   6.914 -0.1064 -0.1534  0.0156
 9054W        W11254  30.546   3.076  25.870  0.3123 -0.1431 -0.1679
 9055W        W11255  27.067   2.501  20.323  0.0269 -0.3394  0.1972
 9056W        W11256  16.704   1.577   4.560 -0.1538  0.0839  0.1232
 9057W        W11257  15.990   5.204   3.454  0.0778 -0.3274 -0.1640
 9058W        W11258   1.792   2.380  20.711 -0.1941 -0.0176  0.3743
 9059W        W11259  30.165   3.605   9.703  0.1589  0.0449 -0.3541
 9060W        W11260  28.545   2.359  19.141  0.2471 -0.0492  0.0111
 9061W        W11261   7.574   1.612  14.873  0.1751 -0.2065  0.0680
 9062W        W11262  21.111   5.880   2.672 -0.2943  0.5476  0.2725
 9063W        W11263  26.537   2.932   8.782  0.2665 -0.0001  0.0502
 9064W        W11264  18.152   5.912   5.715 -0.1483 -0.1062 -0.2876
 9065W        W11265  23.591   2.541  24.363  0.1799  0.4115  0.1570
 9066W        W11266  19.643   1.131   8.503  0.2077 -0.1847  0.6049
 9067W        W11267  23.390   4.449  25.299  0.1589 -0.0815 -0.0585
 9068W        W11268  16.217   4.679  16.772 -0.0606 -0.1599  0.0598
 9069W        W11269  20.602   6.137   0.606  0.1517 -0.4889  0.0823
 9070W        W11270  14.655   3.821   0.501 -0.0716 -0.4556  0.0152
 9071W        W11271  19.975   2.187   3.409 -0.3994 -0.4794  0.1889
 9072W        W11272   4.188   0.675   7.492  0.0548  0.1672 -0.2529
 9073W        W11273  10.868   7.416   4.894  0.1647 -0.0975  0.1220
 9074W        W11274  11.217   3.686   6.399 -0.1363  0.2205  0.1654
 9075W        W11275  14.374   2.601   9.639  0.0499  0.2004  0.0583
 9076W        W11276  20.626   1.390  17.230  0.0316  0.1152  0.1664
 9077W        W11277   0.842   0.550   0.222 -0.1101 -0.1533 -0.1988
 9078W        W11278  13.693   3.869  16.743 -0.1435  0.0527  0.0104
 9079W        W11279  14.064   3.196  10.425 -0.1238 -0.2262 -0.1170
 9080W        W11280  21.652   7.332  21.089  0.0837 -0.1273 -0.0155
 9081W        W11281  22.501   5.051   7.114  0.1851  0.0145  0.3147
 9082W        W11282   8.382   5.699   4.563  0.0157  0.2624  0.2351
 9083W        W11283  14.656   6.381   7.201 -0.0668 -0.4017 -0.3009
 9084W        W11284  26.400   4.261  15.699  0.3492 -0.0366 -0.0746
 9085W        W11285   3.314   6.460  15.638 -0.2571 -0.1240  0.1010
 9086W        W11286  24.164   7.331   3.546 -0.0705 -0.1215 -0.3709
 9087W        W11287  20.990   4.613  23.631  0.1215  0.2944 -0.1437
 9088W        W11288   9.533   2.723   2.646  0.1612 -0.0004 -0.0445
 9089W        W11289   7.048   4.815  15.297  0.0555 -0.0762  0.1061
 9090W        W11290  19.665   1.203  21.963 -0.0034 -0.0556  0.0791
 9091W        W11291  27.978   0.240  20.898 -0.3722  0.0093 -0.2588
 9092W        W11292   6.643   1.378  20.674 -0.2178 -0.0561  0.2203
 9093W        W11293  10.167   7.731   8.473  0.4382  0.0809  0.2461
 9094W        W11294   4.749   5.190  25.142  0.0420  0.1966 -0.1552
 9095W        W11295  18.369   0.868   8.352 -0.1066 -0.2207 -0.3453
 9096W        W11296  16.095   3.312  16.069  0.1198 -0.0354 -0.2882
 9097W        W11297  28.594   7.435   5.676  0.3709  0.1835 -0.1075
 9098W        W11298  16.916   7.663  18.010  0.1727  0.3468 -0.0195
 9099W        W11299   2.625   4.254  18.070 -0.0140 -0.2822 -0.1774
 9100W        W11300  21.475   4.914   4.766  0.4086  0.0156  0.1835
 9101W        W11301   2.294   3.815   1.353 -0.1026  0.1908  0.0825
 9102W        W11302  14.441   5.703  20.208 -0.1395 -0.1494  0.2004
 9103W        W11303  16.967   5.648  19.755  0.1199  0.0736  0.4867
 9104W        W11304  26.189   1.063   3.567 -0.0611 -0.2021  0.1389
 9105W        W11305  17.539   6.898  18.465  0.1224  0.1337  0.0397
 9106W        W11306   5.827   3.524  10.032  0.2581 -0.0437  0.5257
 9107W        W11307  16.766   1.855   6.147  0.0549 -0.1482  0.1263
 9108W        W11308   2.794   5.232  24.171 -0.1684  0.0584 -0.2536
 9109W        W11309   7.770   6.364   0.202  0.0271 -0.6025 -0.0229
 9110W        W11310  25.952   0.870  21.178  0.2153 -0.1857  0.3086
 9111W        W11311  14.802   1.972   8.982 -0.0710  0.0019  0.1480
 9112W        W11312   3.211   3.701   6.675  0.2880  0.1142  0.1998
 9113W        W11313   9.209   5.939  18.627 -0.1614  0.2483 -0.1093
 9114W        W11314  16.156   7.791  23.805  0.1286  0.1988  0.0840
 9115W        W11315  16.888   1.601  17.600  0.1262  0.3329 -0.3003
 9116W        W11316   9.977   1.833  22.170 -0.0336  0.1074 -0.0956
 9117W        W11317   2.497   4.402   6.225  0.1324 -0.3487 -0.2121
 9118W        W11318   2.000   2.089   4.999  0.2079  0.0990  0.1540
 9119W        W11319  25.670   0.695  21.655 -0.0199 -0.5239 -0.2112
 9120W        W11320  29.586   2.951  16.761 -0.0161  0.3464 -0.1106
 9121W        W11321  27.039   4.234  17.491 -0.0794  0.1913 -0.1329
 9122W        W11322  12.975   1.733   6.471 -0.1005  0.1976  0.1227
 9123W        W11323  16.424   3.877   5.274 -0.0024 -0.1360 -0.1125
 9124W        W11324  24.504   3.514   9.265  0.0138  0.3517 -0.2339
 9125W        W11325   0.261   2.763  24.383  0.1428 -0.1893  0.1681
 9126W        W11326  22.303   2.646  18.624  0.0157 -0.0280  0.0635
 9127W        W11327  16.803   1.841   9.270  0.0707  0.0545 -0.0321
 9128W        W11328  21.088   2.259   0.481 -0.2457 -0.0975  0.0677
 9129W        W11329  12.206   7.325  24.079  0.1306  0.2520  0.0674
 9130W        W11330  27.412   5.235  23.246 -0.2003 -0.2595  0.2689
 9131W        W11331  19.415   0.655  24.827 -0.0660  0.0285  0.0624
 9132W        W11332  13.333   3.351  24.965 -0.1955 -0.2440  0.1125
 9133W        W11333  24.055   6.216  18.176 -0.3610 -0.2110  0.0106
 9134W        W11334   0.969   4.329  21.029  0.0001  0.4213 -0.2443
 9135W        W11335  25.855   2.595   9.866 -0.1131  0.3828 -0.0365
 9136W        W11336   9.627   4.210   6.806  0.3431 -0.4915 -0.1366
 9137W        W11337  27.269   4.343   0.085  0.0031 -0.1524  0.0227
 9138W        W11338  28.590   6.580  11.394  0.1916  0.0610 -0.2864
 9139W        W11339  23.366   4.649  22.148 -0.1792  0.1437 -0.2407
 9140W        W11340   6.325   5.553   7.682  0.1889 -0.1733  0.0862
 9141W        W11341  23.936   5.914   3.296 -0.0637 -0.0191  0.0069
 9142W        W11342   4.885   6.406  25.177 -0.0879 -0.1039  0.1476
 9143W        W11343   2.514   1.516   4.731 -0.2666 -0.1059  0.0623
 9144W        W11344  19.868   2.413   6.509 -0.1296  0.2320 -0.0725
 9145W        W11345   3.044   2.244   5.474 -0.1439 -0.1805  0.2950
 9146W        W11346  24.322   0.079  10.255 -0.0392 -0.0510  0.0766
 9147W        W11347  19.332   1.015  23.972  0.1671  0.4800 -0.1007
 9148W        W11348  10.490   5.001   2.187 -0.0842 -0.1754 -0.2192
 9149W        W11349  14.474   5.953  19.520 -0.1537 -0.1113 -0.1438
 9150W        W11350   2.816   4.607  16.347  0.2380 -0.0625  0.0192
 9151W        W11351  18.133   3.191   3.183 -0.2830  0.2210  0.0006
 9152W        W11352  27.552   0.694   9.871 -0.0773 -0.1202 -0.1216
 9153W        W11353   7.842   0.908   6.981  0.1565  0.0225  0.1926
 9154W        W11354  24.719   4.929   5.734 -0.3352 -0.2865  0.0004
 9155W        W11355  27.862   4.088  23.940  0.1111  0.0409 -0.1248
 9156W        W11356  24.403   6.988   2.313 -0.2418 -0.2124  0.4130
 9157W        W11357   5.097   6.871  22.247 -0.1248  0.1031  0.1568
 9158W        W11358   4.193   5.523  19.747  0.0817 -0.1150 -0.0159
 9159W        W11359   1.436   4.162  16.577 -0.2558  0.1264  0.1112
 9160W        W11360  16.189   6.765  20.628 -0.0529 -0.0542  0.0115
 9161W        W11361   9.799   0.386  17.053 -0.1318 -0.1141  0.0052
 9162W        W11362   9.026   1.394   1.576 -0.0169 -0.1825  0.1464
 9163W        W11363   8.676   0.686   3.000  0.2233 -0.2602  0.2191
 9164W        W11364   9.790   6.732  21.979 -0.0875  0.4880  0.0225
 9165W        W11365  29.221   1.242   3.634 -0.2973 -0.0843 -0.2143
 9166W        W11366   8.783   1.914   8.798  0.0232  0.1284  0.0516
 9167W        W11367  16.538   5.366  24.858  0.0261 -0.1154 -0.1398
 9168W        W11368  10.036   4.500  19.813 -0.0193 -0.0312 -0.0797
 9169W        W11369   2.491   3.241  21.205 -0.1379 -0.0370 -0.1323
 9170W        W11370   8.988   3.704  10.458 -0.2799  0.2918  0.1573
 9171W        W11371  18.664   2.163  18.506 -0.0482 -0.1159  0.2207
 9172W        W11372  31.270   2.208  22.241 -0.0577 -0.0943 -0.1482
 9173W        W11373   5.561   1.409  16.746 -0.2674 -0.1015 -0.0629
 9174W        W11374   2.170   6.953   1.312 -0.4969  0.2920 -0.3946
 9175W        W11375  10.829   5.999  24.151 -0.0979 -0.0908  0.1150
 9176W        W11376   7.831   6.235  21.146  0.1833  0.1785 -0.2805
 9177W        W11377  29.018   0.161   7.199 -0.1563  0.0314  0.1829
 9178W        W11378  25.554   0.826  11.333 -0.0046  0.0522  0.1858
 9179W        W11379  21.687   2.022  18.364  0.1048  0.0761  0.1550
 9180W        W11380  14.181   2.748  25.617 -0.1717 -0.3152 -0.1299
 9181W        W11381   5.573   7.669   6.071 -0.1015  0.1586 -0.2124
 9182W        W11382   3.810   1.895   7.979 -0.0069  0.1799 -0.3371
 9183W        W11383   7.164   5.268  25.427  0.1956 -0.1295  0.0274
 9184W        W11384  18.715   7.398  20.571  0.0560 -0.2448 -0.0380
 9185W        W11385   7.782   5.472   4.580 -0.1891 -0.2095 -0.0621
 9186W        W11386   4.172   6.658  22.908 -0.1428 -0.3886 -0.3830
 9187W        W11387  10.068   7.734  15.360  0.1992  0.0623  0.2290
 9188W        W11388  22.357   5.361  24.635  0.1246  0.2801 -0.1369
 9189W        W11389  24.660   1.063  23.949  0.0749 -0.2336  0.0845
 9190W        W11390   5.370   5.189  18.419 -0.0091  0.2758 -0.1505
 9191W        W11391  18.085   6.161  24.207  0.1996  0.0694 -0.0742
 9192W        W11392  28.989   7.332   2.921 -0.1065  0.0462 -0.0715
 9193W        W11393  14.777   4.474  17.793  0.1396  0.0399  0.0594
 9194W        W11394   8.168   3.277   8.755 -0.2972  0.0519  0.2391
 9195W        W11395  22.513   2.232  23.621  0.0100  0.5164  0.0586
 9196W        W11396  10.608   0.203  18.223  0.0279 -0.2673 -0.2840
 9197W        W11397   8.925   0.988   8.215  0.0760  0.0557 -0.0252
 9198W        W11398  15.598   2.702   3.510 -0.1805 -0.2777 -0.0369
 9199W        W11399   5.864   4.228  22.279  0.1117 -0.0121 -0.1194
 9200W        W11400  14.426   6.245   8.749  0.0780 -0.1368 -0.1783
 9201W        W11401  29.613   7.652   6.442 -0.0144  0.0840 -0.1271
 9202W        W11402   6.858   5.318   8.797  0.0517  0.0709  0.0747
 9203W        W11403  23.173   0.793  16.500  0.0565  0.0967 -0.0527
 9204W        W11404   4.631   2.360   0.589  0.1658 -0.0281  0.1401
 9205W        W11405  25.053   2.236   6.105 -0.0207  0.2083 -0.0538
 9206W        W11406  20.629   4.066  18.089 -0.3960 -0.2116 -0.0154
 9207W        W11407  21.284   5.445  23.329 -0.0839 -0.0190 -0.2492
 9208W        W11408   5.559   3.961   9.413  0.1182 -0.0226 -0.0121
 9209W        W11409   6.572   1.778   2.557  0.0097  0.1940  0.0910
 9210W        W11410   5.138   7.008  19.588 -0.2118  0.1031 -0.0227
 9211W        W11411  19.440   7.148  17.731 -0.1300 -0.1783  0.2530
 9212W        W11412  21.732   5.890   7.202  0.0182 -0.2391  0.1141
 9213W        W11413  19.519   1.416   9.427  0.1753  0.2290 -0.3251
 9214W        W11414   9.112   1.765   4.145 -0.0274 -0.1919 -0.0256
 9215W        W11415  17.768   0.546   6.262 -0.0756  0.0198  0.0932
 9216W        W11416  29.466   3.817  25.830  0.0668  0.0472  0.0277
 9217W        W11417   3.754   0.121  10.712  0.0286  0.1445  0.1014
 9218W        W11418   9.286   5.024   2.609  0.0095 -0.2133  0.0597
 9219W        W11419  15.080   3.707   9.625  0.0768 -0.0111 -0.0283
 9220W        W11420  29.030   6.990  15.227 -0.2024  0.0056  0.0538
 9221W        W11421  14.489   3.109  19.047  0.4315 -0.0681 -0.0439
 9222W        W11422  15.897   6.676  25.816  0.0673 -0.2395  0.0360
 9223W        W11423  29.608   2.977  20.702 -0.1022 -0.1719  0.1830
 9224W        W11424  25.257   5.760  21.018 -0.1100  0.1817 -0.1091
 9225W        W11425   8.779   0.110  24.468  0.1901  0.0529  0.2971
 9226W        W11426  29.661   2.805   6.543 -0.1752 -0.1573  0.2153
 9227W        W11427  26.892   0.268  10.489  0.0100 -0.1146  0.1715
 9228W        W11428   2.736   1.381  20.439 -0.0047 -0.0906  0.1185
 9229W        W11429   8.427   0.760  21.657  0.0275  0.2394  0.2046
 9230W        W11430  30.875   2.669   4.690 -0.1602  0.1487 -0.1066
 9231W        W11431  18.737   7.172  16.541 -0.0442  0.1296  0.1558
 9232W        W11432  19.200   7.378  14.666  0.2300 -0.2747 -0.0379
 9233W        W11433  25.969   3.171  19.837 -0.0427  0.0536 -0.2201
 9234W        W11434  12.236   7.372  15.881 -0.0764  0.1331 -0.0662
 9235W        W11435   4.558   7.006   4.903 -0.2482  0.1547  0.1248
 9236W        W11436  18.988   4.932  21.155  0.0363 -0.0702 -0.0122
 9237W        W11437   7.818   1.236   4.490  0.2527  0.0671  0.2458
 9238W        W11438  24.683   0.716   6.717  0.0646 -0.0797 -0.1042
 9239W        W11439   4.899   1.270  20.877 -0.0552 -0.2052  0.0811
 9240W        W11440   4.244   4.896  23.664 -0.0012  0.0576 -0.2274
 9241W        W11441  22.086   3.012  18.094 -0.0459 -0.2101 -0.0772
 9242W        W11442  11.590   3.794  17.218  0.1892 -0.1397  0.1369
 9243W        W11443  23.538   5.047   4.353  0.0943 -0.1112  0.1126
 9244W        W11444  28.167   4.746  25.368  0.0627 -0.0706  0.1309
 9245W        W11445   2.884   2.600   7.256 -0.1209  0.2014  0.1790
 9246W        W11446  22.503   3.438   8.357 -0.1189  0.1525  0.0688
 9247W        W11447  12.371   3.078  25.133  0.1373  0.1030  0.0902
 9248W        W11448  22.593   1.807  24.305  0.1930 -0.1618 -0.0595
 9249W        W11449  22.277   0.456   8.251 -0.1519 -0.1236  0.0533
 9250W        W11450  26.129   1.016   4.463 -0.1812 -0.0569 -0.0451
 9251W        W11451  20.342   4.852  22.602 -0.1474 -0.1097  0.0801
 9252W        W11452  16.314   7.372   9.983 -0.4197 -0.1738 -0.0102
 9253W        W11453  20.563   2.374   4.555  0.2526  0.1259  0.1945
 9254W        W11454  30.104   0.929   8.898 -0.0559 -0.0152  0.2465
 9255W        W11455  30.506   1.394   5.223  0.0571  0.0942 -0.1321
 9256W        W11456  14.081   6.159  23.255  0.1639 -0.1587  0.0604
 9257W        W11457   2.011   0.428  22.872  0.0853 -0.0237 -0.0988
 9258W        W11458   4.514   4.993   9.166 -0.1446  0.1659 -0.2618
 9259W        W11459   1.465   7.688  19.591  0.0189  0.0722 -0.0795
 9260W        W11460  17.141   0.562  21.528 -0.2709 -0.0498  0.4080
 9261W        W11461  29.284   3.966  25.367 -0.0915  0.0472  0.0268
 9262W        W11462  30.319   3.731  17.734 -0.1101  0.0397  0.2429
 9263W        W11463   9.516   2.823   7.239  0.1388 -0.3203  0.0361
 9264W        W11464  28.681   2.454   8.538 -0.1916 -0.0726  0.0052
 9265W        W11465  19.417   3.624   2.104 -0.1367 -0.0165  0.1636
 9266W        W11466  20.352   1.577  23.348 -0.1674  0.0333  0.0837
 9267W        W11467   1.732   3.748  18.380 -0.0157  0.0619 -0.1068
 9268W        W11468  10.079   5.290   7.462 -0.0459 -0.2094  0.2449
 9269W        W11469   3.686   5.671  25.182  0.0159 -0.0497  0.3179
 9270W        W11470  21.984   3.386   0.131  0.0165 -0.0762  0.0152
 9271W        W11471   5.162   1.305   0.366 -0.2099 -0.0911  0.2352
 9272W        W11472  27.141   7.143  14.411 -0.2756  0.1136 -0.1239
 9273W        W11473   7.105   3.854  21.099 -0.2187  0.0034  0.2208
 9274W        W11474   9.225   2.762  22.377 -0.2253 -0.1291 -0.1365
 9275W        W11475  21.884   0.384  10.545  0.1384  0.2883  0.1974
 9276W        W11476  22.861   3.080   6.341 -0.2901 -0.1219 -0.0788
 9277W        W11477  20.700   4.983  18.078  0.0954  0.0521 -0.3008
 9278W        W11478  28.408   7.084  16.726 -0.0163  0.2110 -0.0333
 9279W        W11479   8.712   4.792  17.453  0.1261  0.1965  0.1408
 9280W        W11480  30.745   0.821   8.156 -0.0664  0.1025  0.2564
 9281W        W11481  27.294   3.458  15.640 -0.5314  0.0671 -0.0024
 9282W        W11482  18.390   3.906  17.405  0.0160 -0.1568  0.1955
 9283W        W11483  27.600   5.689  26.036 -0.0913  0.1060 -0.1612
 9284W        W11484  29.336   6.895   4.334  0.2901 -0.2291  0.0855
 9285W        W11485   0.795   3.171  18.620 -0.2489  0.1297  0.4033
 9286W        W11486  27.847   6.495   7.433  0.1832  0.0270 -0.2581
 9287W        W11487  11.906   6.038   5.644  0.0916 -0.2445 -0.1862
 9288W        W11488  22.673   7.707  24.212  0.1481  0.1334 -0.0803
 9289W        W11489  12.324   1.188  20.521  0.1812  0.1328 -0.0210
 9290W        W11490  19.522   4.195  10.046 -0.2921  0.0726  0.1009
 9291W        W11491   7.886   0.580   0.799 -0.0207  0.0782  0.0529
 9292W        W11492   6.766   5.667  19.637  0.0317  0.0387 -0.0838
 9293W        W11493   6.641   0.227   7.675 -0.2108 -0.0663  0.0977
 9294W        W11494  24.481   4.546   1.374  0.1383 -0.1730  0.1055
 9295W        W11495  25.738   0.373  22.000 -0.1585 -0.0876 -0.0793
 9296W        W11496  16.962   1.762  10.528 -0.2422  0.3052 -0.2980
 9297W        W11497  11.851   3.782  10.154  0.0346 -0.2017  0.1719
 9298W        W11498  30.606   0.358  24.446  0.0840  0.2006 -0.1023
 9299W        W11499  27.514   2.669  19.169  0.1401  0.2480  0.0810
 9300W        W11500  29.877   0.437  22.983  0.0123 -0.0723 -0.0400
 9301W        W11501   9.790   2.348   5.222  0.2432  0.0965  0.2814
 9302W        W11502  28.254   5.014  21.092 -0.0802  0.1728  0.2665
 9303W        W11503   0.389   1.659   4.099 -0.0120  0.2015  0.0893
 9304W        W11504  21.192   6.041  20.793  0.0524  0.0168 -0.0095
 9305W        W11505  19.063   0.114  19.023  0.0332 -0.1325  0.0546
 9306W        W11506  14.098   5.467  25.984 -0.1574 -0.1889 -0.4178
 9307W        W11507  20.958   6.801   1.980 -0.3527  0.0206  0.0794
 9308W        W11508   0.662   0.130   2.875 -0.0650  0.0266  0.0658
 9309W        W11509   0.445   4.976  20.315  0.2451 -0.0899 -0.3932
 9310W        W11510  30.331   6.742   1.767  0.4879 -0.1397 -0.0427
 9311W        W11511  27.220   3.064  21.449  0.1275 -0.1182  0.1613
 9312W        W11512  24.028   2.547  17.053 -0.1134  0.0820 -0.0729
 9313W        W11513  14.709   2.414   2.162 -0.3431  0.1602  0.0853
 9314W        W11514  28.229   3.219  19.009 -0.2815  0.0660 -0.0888
 9315W        W11515  10.192   2.098  16.474  0.1937 -0.1263  0.2297
 9316W        W11516  24.690   1.571   6.550  0.0300  0.2993 -0.0368
 9317W        W11517  24.126   0.079  22.973 -0.1295  0.1326  0.0185
 9318W        W11518  25.421   0.032   5.830 -0.1456  0.0502  0.0091
 9319W        W11519  31.059   6.589   8.243  0.0341  0.0848 -0.1817
 9320W        W11520   9.191   1.643   9.385 -0.1321 -0.0926  0.0891
 9321W        W11521  24.247   4.780   8.573 -0.3167  0.0982 -0.1192
 9322W        W11522  13.071   6.805  10.234 -0.2568 -0.1021  0.0748
 9323W        W11523  12.026   3.084   4.143 -0.1890 -0.1307  0.1314
 9324W        W11524   9.110   1.258   0.782  0.0092 -0.0360  0.4124
 9325W        W11525  20.286   6.227  19.704  0.4403 -0.1688 -0.1160
 9326W        W11526   2.005   3.268  20.138  0.1348  0.2664 -0.0315
 9327W        W11527  13.132   3.373  17.532  0.0674 -0.1306 -0.1027
 9328W        W11528  29.425   6.755  15.974 -0.2451  0.0272 -0.0233
 9329W        W11529  18.342   1.654   1.826  0.1486  0.1859  0.1082
 9330W        W11530   4.078   4.257   2.653  0.2695 -0.3798 -0.1326
 9331W        W11531   3.655   3.277  24.092 -0.0136 -0.0962 -0.0875
 9332W        W11532  31.026   5.098   6.405  0.0351  0.3394 -0.1491
 9333W        W11533  15.757   1.921  18.831 -0.1288  0.1927 -0.0361
 9334W        W11534   8.716   4.795   7.027  0.2771  0.2586 -0.3258
 9335W        W11535  20.798   0.827  17.070 -0.0540 -0.0729  0.1208
 9336W        W11536  26.599   5.823  25.893  0.3584 -0.0300 -0.1299
 9337W        W11537  21.464   0.556   7.101 -0.2157  0.0763 -0.1563
 9338W        W11538   0.060   1.795  21.483 -0.2250 -0.1030 -0.0435
 9339W        W11539   9.249   1.968  25.315  0.1107 -0.0747  0.0552
 9340W        W11540   2.209   7.800  17.855  0.0855  0.2858  0.1683
 9341W        W11541   0.977   4.788   4.799 -0.0085  0.1204  0.1678
 9342W        W11542  31.204   0.989   5.217 -0.1906  0.0400 -0.1395
 9343W        W11543   4.645   0.916   0.022 -0.1067  0.1099 -0.0789
 9344W        W11544  19.267   2.618   4.607  0.0525  0.2452  0.0290
 9345W        W11545  18.409   0.903   6.551 -0.0993  0.1618  0.4119
 9346W        W11546   4.597   4.833   9.750  0.0509 -0.0313  0.0000
 9347W        W11547  17.581   3.898   2.103 -0.0788 -0.0148 -0.0475
 9348W        W11548  11.756   6.931  24.744  0.2206  0.2993 -0.2419
 9349W        W11549  28.008   6.082  22.604 -0.0612  0.0055 -0.2386
 9350W        W11550  17.316   2.855  24.054  0.1937 -0.0194  0.1758
 9351W        W11551   3.942   2.182  20.590 -0.1324  0.2176  0.2563
 9352W        W11552  29.874   1.570   3.666  0.0928  0.2228  0.1601
 9353W        W11553   6.495   3.098  16.854 -0.0156 -0.1397  0.0847
 9354W        W11554  25.418   3.503  23.623 -0.1796  0.1156  0.1141
 9355W        W11555  26.622   7.264   4.237 -0.1154 -0.2127  0.1898
 9356W        W11556  22.987   1.039   1.384 -0.5408  0.0244 -0.0507
 9357W        W11557  21.424   2.340   1.973  0.1251  0.3496 -0.1306
 9358W        W11558   1.227   7.043  24.518  0.1742  0.0469  0.0921
 9359W        W11559  28.648   2.569   2.332  0.0904 -0.3380  0.2250
 9360W        W11560  14.791   2.815  24.927  0.0256  0.1156  0.0644
 9361W        W11561   2.852   0.310   6.345  0.0761 -0.3691 -0.0591
 9362W        W11562   3.703   0.246  17.726  0.1271  0.2681  0.1385
 9363W        W11563   6.698   1.807   9.156  0.0763  0.0344 -0.1364
 9364W        W11564  29.252   5.815  21.292  0.2067 -0.0324  0.1622
 9365W        W11565  27.828   0.934  23.095  0.1511  0.1071  0.0512
 9366W        W11566   0.013   1.274   4.254  0.0434  0.0435 -0.0131
 9367W        W11567  21.668   2.185  24.054 -0.1145  0.1318  0.1294
 9368W        W11568  22.591   7.727   5.832 -0.0915 -0.1171  0.0420
 9369W        W11569   4.666   4.955   7.218  0.0058 -0.2578  0.1654
 9370W        W11570  29.904   7.672  15.395  0.3446  0.0442 -0.3481
 9371W        W11571  15.170   3.296   4.708  0.0346  0.0584 -0.0178
 9372W        W11572  15.120   2.139  16.409 -0.3513  0.0483 -0.2201
 9373W        W11573  26.470   3.985  19.708 -0.2504 -0.2499 -0.2899
 9374W        W11574  29.876   7.824  19.097 -0.1743 -0.3177  0.1373
 9375W        W11575  26.132   1.777   8.464 -0.1286  0.1048 -0.1294
 9376W        W11576  12.364   2.813  17.097 -0.0001 -0.0196  0.0924
 9377W        W11577  18.489   5.462   2.424 -0.1788  0.0284  0.1579
 9378W        W11578  15.099   7.690   9.728  0.2356  0.0988 -0.0869
 9379W        W11579  26.762   0.627  22.241 -0.1304 -0.0166  0.3517
 9380W        W11580  19.627   3.067  25.811 -0.0795  0.0710 -0.0407
 9381W        W11581  22.236   6.372  24.008 -0.0467 -0.0509 -0.0034
 9382W        W11582   7.362   5.569   3.688  0.2326  0.0215 -0.2581
 9383W        W11583   2.021   2.627  18.161 -0.0862 -0.0471  0.0195
 9384W        W11584  18.894   4.312   9.621 -0.0956  0.2749 -0.3655
 9385W        W11585  22.190   3.619  18.745  0.0558  0.0269  0.2594
 9386W        W11586  24.171   1.679   3.937 -0.2053 -0.0519  0.0281
 9387W        W11587  13.068   2.314  21.338 -0.1579 -0.0795  0.0155
 9388W        W11588  12.276   3.409   0.877 -0.1113 -0.1279 -0.0741
 9389W        W11589  17.926   5.631   5.340 -0.0475  0.2503 -0.0815
 9390W        W11590  17.559   6.550  15.725 -0.0962 -0.3689  0.1706
 9391W        W11591  27.049   0.551   3.816  0.0435  0.2555  0.3964
 9392W        W11592   7.717   2.767   2.297 -0.1084 -0.0782 -0.3135
 9393W        W11593  17.562   0.228  22.396  0.0198 -0.3157 -0.0210
 9394W        W11594  21.557   0.597   3.278  0.1955  0.0412  0.3191
 9395W        W11595  11.340   5.521  19.344  0.0732 -0.2776 -0.0178
 9396W        W11596  28.544   7.443  20.748  0.2945 -0.3134 -0.2350
 9397W        W11597  21.072   3.263   7.210 -0.0687  0.0260 -0.2370
 9398W        W11598   5.700   3.350   7.232 -0.3047 -0.2497 -0.2239
 9399W        W11599   3.625   1.390  16.161 -0.0266 -0.0461  0.0352
 9400W        W11600   0.758   1.926  17.983 -0.0060  0.3938 -0.2589
 9401W        W11601  21.759   1.050  18.498  0.0980  0.0682 -0.1993
 9402W        W11602  20.108   7.537   0.220 -0.0442  0.3378  0.0897
 9403W        W11603  20.822   0.919   1.079  0.0004  0.1013  0.0903
 9404W        W11604   8.290   5.260   3.875 -0.0076  0.0701 -0.1552
 9405W        W11605  19.566   0.577   4.384 -0.0248 -0.1393 -0.1780
 9406W        W11606  11.313   1.778   4.384  0.3844 -0.1896 -0.0421
 9407W        W11607  11.420   7.319   7.525 -0.0349 -0.2461 -0.1126
 9408W        W11608  24.467   5.438  16.542  0.0852  0.0371  0.1984
 9409W        W11609   9.399   2.313   3.988  0.0986 -0.0055 -0.1149
 9410W        W11610  14.313   6.569   5.720 -0.1396  0.0029 -0.0824
 9411W        W11611   8.734   3.322  15.971 -0.1113  0.0528  0.2069
 9412W        W11612   6.712   2.019  22.695 -0.0015  0.1864  0.0753
 9413W        W11613   3.885   4.828  23.249  0.4712 -0.0524  0.2050
 9414W        W11614   9.586   5.017  22.145  0.1458  0.0650  0.1593
 9415W        W11615  25.706   1.983  16.181 -0.1799 -0.3600 -0.1449
 9416W        W11616  24.085   2.516   9.276 -0.4461  0.1349 -0.2924
 9417W        W11617  20.997   1.433   6.485  0.0632 -0.1112 -0.0281
 9418W        W11618  11.679   2.180  24.942 -0.1984 -0.0059 -0.1293
 9419W        W11619  21.397   2.764   4.020 -0.2004 -0.2686 -0.2557
 9420W        W11620  15.063   0.284  17.191 -0.1001 -0.4083 -0.1651
 9421W        W11621  11.574   7.810   1.244  0.0997  0.0169 -0.0728
 9422W        W11622  17.602   2.730  23.669  0.0275  0.0069  0.2615
 9423W        W11623  18.404   5.678   9.652 -0.0693 -0.1791 -0.1249
 9424W        W11624  18.994   2.205   4.365 -0.3121 -0.1004 -0.1366
 9425W        W11625  10.438   6.113  22.422  0.1121  0.0251  0.1510
 9426W        W11626  24.794   5.146  18.986  0.0781  0.2624  0.0126
 9427W        W11627  12.961   0.995  15.648  0.2636  0.3071  0.1299
 9428W        W11628  10.236   3.312  23.944  0.1631 -0.1639  0.1720
 9429W        W11629  27.832   5.370   6.173  0.0078  0.0354 -0.1272
 9430W        W11630  18.325   2.523  24.663  0.1430 -0.3877  0.2279
 9431W        W11631  21.866   3.082   1.758 -0.0942  0.3182  0.2033
 9432W        W11632  28.429   4.611  10.202 -0.1263 -0.1441  0.0139
 9433W        W11633   8.854   7.452   4.647  0.0305 -0.0624 -0.1725
 9434W        W11634   7.019   0.713   6.589  0.0998  0.1001  0.0183
 9435W        W11635   6.509   0.047   9.729  0.0064 -0.2234  0.0787
 9436W        W11636  15.192   4.916   8.865 -0.1625 -0.0842  0.1619
 9437W        W11637  30.044   0.315  11.239 -0.0138 -0.0155 -0.0236
 9438W        W11638   6.380   7.602  23.780  0.0463  0.1514 -0.2725
 9439W        W11639  12.526   4.249   0.485  0.0717  0.0348 -0.0728
 9440W        W11640   4.681   7.666   1.655 -0.2434 -0.5183  0.2007
 9441W        W11641  12.579   7.254   8.185  0.0801  0.3984 -0.0045
 9442W        W11642  19.733   3.267   0.144  0.1783 -0.0932  0.0823
 9443W        W11643   7.607   4.332   5.034  0.2095 -0.1401  0.1894
 9444W        W11644  17.778   4.842  18.887 -0.1760  0.0140 -0.1025
 9445W        W11645  11.878   7.403  17.665  0.1236  0.0718  0.2819
 9446W        W11646  24.920   7.361  10.599  0.1731 -0.0342 -0.1020
 9447W        W11647   3.558   6.876   6.454 -0.0350  0.2807 -0.0130
 9448W        W11648  30.462   3.961   2.304 -0.0579  0.0558 -0.0177
 9449W        W11649  21.396   7.825  23.058 -0.2656 -0.0800 -0.0641
 9450W        W11650  21.200   6.017   4.584  0.0098  0.1832  0.1437
 9451W        W11651   4.279   4.527  11.057 -0.2334 -0.0769 -0.0906
 9452W        W11652  27.705   0.815  10.945  0.0250  0.0106 -0.0038
 9453W        W11653   7.327   6.538   7.409 -0.1280  0.3295  0.0912
 9454W        W11654   3.665   3.450  26.109 -0.1927 -0.1003  0.0263
 9455W        W11655   1.897   7.579  16.633  0.1066  0.0690  0.1177
 9456W        W11656   9.584   0.944   6.575 -0.1221 -0.2017 -0.4573
 9457W        W11657   2.507   2.093  23.163 -0.1023  0.2872  0.0829
 9458W        W11658  16.351   0.293  18.986 -0.0372  0.3998  0.1447
 9459W        W11659   7.232   5.388  16.931  0.1479  0.0109  0.0498
 9460W        W11660   1.225   5.204   8.473 -0.2748  0.1810  0.1721
 9461W        W11661  30.324   7.569   0.524 -0.4403  0.2002 -0.1912
 9462W        W11662  26.040   2.254  21.349  0.2132  0.0815  0.1999
 9463W        W11663  17.042   7.262  15.395  0.0202 -0.4555 -0.1515
 9464W        W11664  12.346   2.118  23.723  0.0238 -0.1310  0.0802
 9465W        W11665   5.149   3.436   4.533  0.2028  0.3247  0.3759
 9466W        W11666  29.683   4.466   0.362  0.1513  0.4745 -0.2955
 9467W        W11667  15.165   5.359  19.541 -0.0387 -0.3797  0.0683
 9468W        W11668   6.048   2.473  24.792  0.0360 -0.0849 -0.2594
 9469W        W11669  30.718   3.752  23.097 -0.2846  0.0913  0.4025
 9470W        W11670  28.367   2.945   0.648  0.0458  0.1970  0.0226
 9471W        W11671  10.675   7.326  21.990 -0.0956 -0.0189 -0.0604
 9472W        W11672   5.093   1.169   6.553  0.1123 -0.1968 -0.3363
 9473W        W11673   4.592   4.218  20.141 -0.1187 -0.3679  0.0448
 9474W        W11674   1.017   5.290   8.936 -0.1285 -0.2309 -0.3255
 9475W        W11675  14.712   1.017   4.454  0.1513 -0.0710 -0.0530
 9476W        W11676  23.283   2.943  25.622  0.3080  0.0872 -0.1040
 9477W        W11677   3.052   0.377   0.054  0.1189 -0.1997 -0.0650
 9478W        W11678  10.164   5.343   6.448  0.1124 -0.0147 -0.2046
 9479W        W11679  14.511   2.620   1.662 -0.0079  0.0818  0.2760
 9480W        W11680   4.935   6.651  18.134  0.3314 -0.2282  0.0044
 9481W        W11681  13.668   6.517   4.303  0.0143  0.2788  0.2368
 9482W        W11682   1.035   0.975   6.714  0.0529 -0.1537  0.2303
 9483W        W11683  12.002   4.423  17.564  0.2087 -0.0342 -0.2531
 9484W        W11684  18.405   4.095  23.784 -0.1652 -0.1143 -0.2866
 9485W        W11685  28.524   3.853  16.567  0.1349  0.1682  0.0609
 9486W        W11686  25.427   2.538  19.544 -0.0748 -0.2776 -0.1055
 9487W        W11687   1.007   3.654  20.112 -0.1417 -0.1907 -0.0443
 9488W        W11688  27.798   6.269  24.483 -0.0410 -0.0543 -0.0669
 9489W        W11689  23.688   7.237   4.423 -0.1974 -0.3307  0.2888
 9490W        W11690   5.610   3.747  22.188  0.0069  0.1752 -0.1364
 9491W        W11691  31.098   0.058  11.029 -0.0358 -0.0350  0.1613
 9492W        W11692   3.602   3.046   8.928  0.1360 -0.0185  0.1879
 9493W        W11693   3.398   4.726  22.421 -0.1705  0.2431  0.4189
 9494W        W11694   6.447   7.428  21.090  0.3456 -0.0674  0.3461
 9495W        W11695  28.418   5.604   8.703  0.0014  0.1132 -0.0117
 9496W        W11696  25.768   7.126   6.520 -0.2810 -0.1027 -0.0236
 9497W        W11697  30.623   0.838  15.090 -0.5931  0.0283 -0.0350
 9498W        W11698   1.433   0.162  24.158 -0.0852  0.2564  0.1134
 9499W        W11699  23.739   1.691   6.973 -0.1410 -0.1498 -0.2762
 9500W        W11700  10.387   0.706  20.213 -0.0543 -0.2116  0.0453
 9501W        W11701  15.286   5.579  25.548  0.1501  0.2381 -0.1682
 9502W        W11702   9.416   3.579  23.982 -0.0524 -0.1316 -0.0694
 9503W        W11703  26.060   7.788  21.189 -0.1465  0.2408 -0.2868
 9504W        W11704  28.537   7.218   4.754  0.3349 -0.0329  0.0061
 9505W        W11705  11.877   7.155   7.707  0.1177 -0.0189  0.1009
 9506W        W11706   9.521   7.511  17.506  0.3734  0.0657  0.5019
 9507W        W11707  10.048   2.488   8.425 -0.0026  0.0994  0.0792
 9508W        W11708   9.457   1.862  10.776 -0.0975 -0.0739  0.0118
 9509W        W11709   3.607   1.072  20.980  0.3163 -0.1230 -0.2585
 9510W        W11710  28.497   3.549  19.506  0.3654  0.0329 -0.1398
 9511W        W11711   7.910   7.615  24.150  0.0696  0.0839  0.0937
 9512W        W11712  30.632   6.966  16.222  0.0571 -0.2220  0.3040
 9513W        W11713  30.701   3.399  23.415  0.2558 -0.0780  0.1466
 9514W        W11714   8.203   2.218  19.897  0.0312  0.0108  0.1401
 9515W        W11715   1.456   3.930  24.545 -0.0576  0.2059 -0.0939
 9516W        W11716   4.808   5.506  11.118 -0.2292 -0.0744 -0.2210
 9517W        W11717   6.235   1.389   8.301 -0.0508 -0.1498  0.1572
 9518W        W11718  22.757   2.254  25.838 -0.1199  0.0655  0.2859
 9519W        W11719  17.762   0.561   3.302  0.2315  0.2038 -0.1361
 9520W        W11720  21.441   0.101  19.376 -0.0054 -0.3052 -0.0641
 9521W        W11721   3.009   1.269   2.930  0.2207 -0.0160  0.2412
 9522W        W11722  25.205   1.710   3.771 -0.3977 -0.0799  0.0628
 9523W        W11723  13.911   4.395  17.589 -0.4163 -0.0627 -0.0683
 9524W        W11724  18.738   6.342  15.095 -0.1555  0.0222  0.0362
 9525W        W11725  13.076   4.246  24.608  0.0050 -0.1398  0.0993
 9526W        W11726  25.581   3.265  23.224 -0.0664  0.2774 -0.1861
 9527W        W11727  13.210   6.229   6.237 -0.0831  0.2449  0.1193
 9528W        W11728  27.733   4.704  22.462  0.0036 -0.0378 -0.1282
 9529W        W11729  18.230   0.256  25.653 -0.0897  0.3301  0.5089
 9530W        W11730  13.253   3.113   8.286 -0.1117 -0.4349 -0.2710
 9531W        W11731   5.186   3.902   6.195 -0.2507  0.3648  0.1406
 9532W        W11732  18.457   5.340  22.481  0.0875  0.1098  0.2671
 9533W        W11733  11.807   0.056  17.748  0.4250  0.2714 -0.1207
 9534W        W11734   4.844   4.709   0.443  0.0196 -0.1368 -0.1415
 9535W        W11735  21.714   4.366  19.438 -0.1333 -0.2730 -0.1499
 9536W        W11736   6.609   1.228   7.538  0.0452  0.1233  0.0534
 9537W        W11737   6.235   7.462  17.559 -0.2111  0.3254  0.0318
 9538W        W11738   0.353   4.001   1.286 -0.2091  0.1208 -0.0198
 9539W        W11739   1.418   6.342  24.237  0.0213 -0.0321  0.0054
 9540W        W11740  16.744   0.349  22.638 -0.0837  0.1875  0.1898
 9541W        W11741  17.866   5.079   1.895 -0.0646  0.0091 -0.0292
 9542W        W11742  11.636   5.506  20.430 -0.2328 -0.0491 -0.0887
 9543W        W11743  22.203   2.911   0.504 -0.0728  0.1004 -0.1948
 9544W        W11744  11.931   2.269  19.683  0.0284 -0.1544  0.0493
 9545W        W11745   8.605   5.206  24.336  0.0298  0.0591  0.0190
 9546W        W11746  25.760   3.287  24.102  0.2579 -0.2899 -0.0488
 9547W        W11747   7.091   3.403   0.318  0.0035 -0.0592 -0.1372
 9548W        W11748   1.362   5.670  24.769 -0.0528 -0.0246 -0.0021
 9549W        W11749  11.453   4.650   3.540  0.0921 -0.1141  0.0484
 9550W        W11750  28.023   5.742   7.166 -0.1362 -0.0661 -0.0540
 9551W        W11751  27.642   4.675  20.448 -0.0189  0.0365 -0.0553
 9552W        W11752   3.741   4.150   2.998  0.0533 -0.1589 -0.2214
 9553W        W11753   9.521   6.813  16.902  0.1320  0.2441 -0.1103
 9554W        W11754  26.331   6.880  24.911  0.1362 -0.1932  0.1522
 9555W        W11755  22.472   4.964  18.848  0.0068  0.0895 -0.1268
 9556W        W11756   7.282   2.005   1.792  0.0690 -0.0928 -0.1896
 9557W        W11757  11.987   0.504  18.747  0.1264 -0.0006  0.0179
 9558W        W11758  14.993   3.426   5.538  0.1978  0.1729 -0.0356
 9559W        W11759  24.694   2.183  17.110 -0.1311 -0.1349 -0.1013
 9560W        W11760  15.927   0.193  19.300  0.1037  0.0559  0.3826
 9561W        W11761  20.377   5.997   3.594  0.2389  0.2561  0.1927
 9562W        W11762   0.523   3.470   8.772  0.2490  0.2877 -0.1153
 9563W        W11763   9.689   0.817   9.114  0.3275  0.1983 -0.0100
 9564W        W11764   7.589   0.735   3.643  0.0310 -0.0832 -0.0002
 9565W        W11765  17.503   4.888  26.039  0.1142  0.2004  0.1289
 9566W        W11766   7.222   3.003  25.991 -0.1808 -0.5311  0.1984
 9567W        W11767   3.630   4.508   1.801 -0.0942 -0.2019 -0.0108
 9568W        W11768  30.907   4.465  18.726  0.0394 -0.1601  0.0557
 9569W        W11769   8.032   6.517   0.590 -0.0588  0.0634  0.3439
 9570W        W11770  30.224   3.945  18.681  0.0851 -0.3045 -0.3957
 9571W        W11771  25.987   7.398  15.298  0.2104 -0.1588  0.0391
 9572W        W11772  18.923   6.937   0.399  0.2208  0.0722  0.1453
 9573W        W11773  21.435   4.958  26.028 -0.3940 -0.0911 -0.0131
 9574W        W11774  18.991   1.099   3.231 -0.1552  0.2972  0.1063
 9575W        W11775   3.791   6.615  15.981  0.2540 -0.1194 -0.1804
 9576W        W11776   3.506   3.434   2.659  0.0931  0.1570 -0.1870
 9577W        W11777   2.403   4.814  23.108  0.1011 -0.0623 -0.1298
 9578W        W11778  28.238   1.883  18.295  0.0062 -0.1989 -0.0490
 9579W        W11779  23.135   0.192  21.728 -0.3021 -0.1433  0.2345
 9580W        W11780   1.341   2.525  17.449 -0.2874 -0.0662  0.3312
 9581W        W11781   0.736   3.967  22.323 -0.0395 -0.0389 -0.0317
 9582W        W11782   9.573   7.473  15.405 -0.2952  0.0685 -0.0328
 9583W        W11783  10.941   6.580  23.452 -0.0133 -0.1388  0.0219
 9584W        W11784   1.211   4.947  16.351 -0.0289  0.1312  0.0222
 9585W        W11785   4.977   3.516  24.989  0.0604  0.1557 -0.1365
 9586W        W11786   5.441   2.510   1.539 -0.2691  0.2312  0.1771
 9587W        W11787  10.204   0.951   3.300  0.1375  0.2257  0.0430
 9588W        W11788   5.923   7.055  22.703  0.2868 -0.2914  0.1526
 9589W        W11789  30.103   7.017  20.734 -0.0891 -0.2744 -0.5425
 9590W        W11790   7.745   5.965   9.772  0.1446  0.0430 -0.2988
 9591W        W11791  28.356   5.603  25.238  0.2913 -0.3586 -0.2663
 9592W        W11792   0.299   2.723  26.165 -0.0513 -0.3232 -0.0532
 9593W        W11793   0.682   7.076  20.149 -0.0982 -0.2255 -0.0888
 9594W        W11794  18.231   3.362   1.459  0.0343 -0.0424 -0.1257
 9595W        W11795  19.171   6.351  24.287  0.1134  0.1206  0.0494
 9596W        W11796   6.203   4.521   0.264  0.1347  0.0023 -0.2452
 9597W        W11797   0.095   7.114  10.203  0.0031  0.1301  0.2844
 9598W        W11798  15.191   4.656  16.077  0.2661 -0.1150 -0.2924
 9599W        W11799  23.556   0.053   6.272 -0.1000 -0.1109 -0.2585
 9600W        W11800  27.331   0.797  23.334 -0.0896  0.0620  0.1209
 9601W        W11801  27.681   3.504   8.291 -0.3920 -0.0874 -0.1120
 9602W        W11802   8.444   1.809   4.768 -0.1949  0.1749 -0.0860
 9603W        W11803  26.146   7.395   4.462  0.2129  0.1311 -0.1664
 9604W        W11804  21.629   5.252   6.415  0.1377  0.1387  0.0080
 9605W        W11805  29.438   5.622   7.516  0.4117 -0.0299  0.1028
 9606W        W11806   5.991   2.031   3.825 -0.2291 -0.3670  0.0604
 9607W        W11807  18.203   2.384  24.151  0.0623 -0.0787  0.1987
 9608W        W11808  10.662   5.139   3.734  0.2538  0.1033 -0.1561
 9609W        W11809   8.387   0.473  21.226 -0.2467 -0.1263 -0.2383
 9610W        W11810   9.281   4.178   8.504  0.2500 -0.2206 -0.1204
 9611W        W11811   4.571   2.407   2.022 -0.2288 -0.0506 -0.2874
 9612W        W11812  15.591   2.387  18.791  0.1014  0.1937  0.1741
 9613W        W11813  13.054   5.334  21.652 -0.0633 -0.0224 -0.2229
 9614W        W11814   3.789   7.730  22.373 -0.2393  0.2035 -0.1454
 9615W        W11815  15.281   7.145   2.659 -0.1204 -0.1324 -0.4491
 9616W        W11816   0.000   5.367  17.866  0.0041  0.1252  0.0617
 9617W        W11817  28.820   0.650  20.048  0.0868 -0.1885  0.0604
 9618W        W11818   4.360   3.785   9.998  0.0202  0.0282 -0.1253
 9619W        W11819  18.286   6.202  16.740  0.3552 -0.0165 -0.0797
 9620W        W11820  16.622   1.673  16.334 -0.1455 -0.2864 -0.0440
 9621W        W11821  28.537   1.003  21.302 -0.0798 -0.0352 -0.0686
 9622W        W11822  14.795   3.406   2.747  0.0179 -0.0658 -0.3716
 9623W        W11823  25.297   6.382   9.252 -0.2292  0.0533  0.2604
 9624W        W11824   1.693   2.861  10.363 -0.1679  0.0603  0.1368
 9625W        W11825  28.196   1.291  19.088 -0.1716  0.1894 -0.0592
 9626W        W11826  17.776   5.979  19.247 -0.0497 -0.2937  0.0322
 9627W        W11827  16.076   5.945   9.938  0.0751  0.0615  0.0488
 9628W        W11828   6.453   0.331   5.578 -0.0990 -0.2418 -0.2940
 9629W        W11829  29.914   6.096   3.423  0.0392  0.1867  0.0271
 9630W        W11830  27.522   6.855   5.421 -0.1380  0.3357 -0.0660
 9631W        W11831  18.718   5.760  18.092  0.1333 -0.1030 -0.2587
 9632W        W11832  22.602   5.107   4.204 -0.2267 -0.0811 -0.1559
 9633W        W11833  11.672   2.179   4.772 -0.1469 -0.2653  0.0047
 9634W        W11834  12.566   7.058  25.302  0.0323 -0.3716 -0.0699
 9635W        W11835  27.225   0.845  15.673 -0.0423 -0.1209  0.4011
 9636W        W11836  26.957   0.888   8.504 -0.5697  0.1962 -0.3310
 9637W        W11837  15.876   1.030  25.213  0.1734 -0.0405 -0.0507
 9638W        W11838  14.113   2.777  24.166 -0.1832  0.0062  0.1372
 9639W        W11839  30.703   0.073  22.301 -0.0076 -0.0032  0.0476
 9640W        W11840  29.856   0.438  17.424  0.1009 -0.0852 -0.1765
 9641W        W11841   2.090   6.637  10.599  0.1662  0.2093  0.2348
 9642W        W11842  26.271   4.694  17.344  0.2819  0.2131 -0.0968
 9643W        W11843   9.502   2.078   3.523  0.1050  0.2144  0.1114
 9644W        W11844  16.797   6.411  24.921  0.0498  0.1372 -0.0264
 9645W        W11845  13.653   6.041  22.037 -0.1642 -0.2256 -0.0544
 9646W        W11846   0.078   6.933   1.899 -0.0837  0.0433  0.0278
 9647W        W11847  26.834   7.333   3.289  0.2321  0.2488 -0.1553
 9648W        W11848  21.421   1.984   5.770  0.0317  0.0083  0.0862
 9649W        W11849  15.761   2.845  18.586  0.0251 -0.0115 -0.2613
 9650W        W11850   7.980   0.189  18.442 -0.1673  0.1415 -0.1899
 9651W        W11851  24.217   0.815  10.354 -0.0423 -0.4759 -0.1662
 9652W        W11852  20.333   3.630   9.772 -0.1373  0.2377 -0.1573
 9653W        W11853  20.173   3.554   7.191 -0.0844 -0.1527  0.0982
 9654W        W11854   2.192   2.546   2.094  0.0557  0.3251 -0.2480
 9655W        W11855   7.308   6.157  24.120  0.1457  0.2068  0.2022
 9656W        W11856   1.267   3.831   3.698 -0.3344 -0.2673  0.0953
 9657W        W11857   1.021   6.334   6.283  0.0337 -0.1740  0.1106
 9658W        W11858  16.621   7.045  20.819  0.1012  0.1269 -0.1497
 9659W        W11859  19.691   2.276   7.692  0.1099 -0.0502 -0.0576
 9660W        W11860  28.751   3.873   6.386 -0.2150 -0.3515 -0.1512
 9661W        W11861   4.167   4.902   9.504 -0.0176  0.3400  0.2946
 9662W        W11862   8.769   7.500  10.046 -0.4362 -0.0717 -0.4244
 9663W        W11863  19.419   5.022  22.382  0.0503  0.2237 -0.1964
 9664W        W11864   8.802   7.319   3.273  0.1334 -0.4325  0.0156
 9665W        W11865  28.008   5.304   5.643 -0.2168 -0.1952  0.1748
 9666W        W11866  26.001   0.634   9.924  0.1085 -0.0543 -0.3081
 9667W        W11867   5.707   5.786  25.402  0.0157 -0.2432 -0.0043
 9668W        W11868  17.128   2.543   3.636  0.0889 -0.0512 -0.0235
 9669W        W11869  27.914   2.696  22.920  0.0033 -0.2752  0.0443
 9670W        W11870   4.097   5.345   1.697 -0.3844 -0.1507  0.2379
 9671W        W11871   3.523   7.185  19.922 -0.0430  0.0338 -0.2007
 9672W        W11872  18.437   2.388  19.226 -0.0131  0.0035  0.1462
 9673W        W11873  30.799   6.805  24.734  0.3382  0.0784 -0.1239
 9674W        W11874  22.072   7.448  17.254  0.1260  0.0170  0.2758
 9675W        W11875  26.511   4.604   3.746 -0.0467  0.0941 -0.1334
 9676W        W11876  29.323   0.476   6.839  0.0144  0.0435  0.1254
 9677W        W11877  11.748   1.340   9.602 -0.2498 -0.1644 -0.2810
 9678W        W11878  21.900   0.216   2.551 -0.2416  0.1740  0.2109
 9679W        W11879  17.580   6.864  17.041  0.2349  0.1186 -0.2557
 9680W        W11880  13.183   7.698  20.660 -0.0665 -0.1485  0.0514
 9681W        W11881  30.357   3.645   3.188 -0.0161  0.1583  0.0332
 9682W        W11882  21.037   3.186   9.594 -0.0436 -0.0960 -0.1271
 9683W        W11883  16.146   0.596   4.049  0.1747 -0.0047 -0.2214
 9684W        W11884  19.796   0.272  25.786 -0.3088 -0.0440  0.2703
 9685W        W11885  13.097   5.865   8.317 -0.1915  0.2338 -0.1861
 9686W        W11886   4.866   6.588   0.628 -0.1284  0.0424 -0.0825
 9687W        W11887   6.042   4.952   8.578 -0.0836 -0.0319 -0.0139
 9688W        W11888   3.113   5.936   7.066  0.0217 -0.0858  0.2261
 9689W        W11889  28.051   0.463   2.506  0.0257 -0.0170  0.2444
 9690W        W11890   8.662   1.340  16.869  0.1662  0.0150 -0.3226
 9691W        W11891  21.606   6.623  17.275  0.1177  0.0261 -0.1484
 9692W        W11892  16.395   4.417  16.351 -0.1428  0.0296  0.0724
 9693W        W11893  23.747   6.303   6.009  0.4146 -0.0454  0.0872
 9694W        W11894  27.825   0.996   9.492 -0.1718 -0.0508 -0.0939
 9695W        W11895  22.545   5.021  17.882 -0.1861  0.0792 -0.1434
 9696W        W11896   2.258   1.595  21.781 -0.0342 -0.0489  0.3510
 9697W        W11897   4.259   4.459  24.680  0.1413 -0.1101  0.2944
 9698W        W11898  12.474   5.734  21.318  0.0766  0.1112  0.0024
 9699W        W11899   4.507   6.945   7.873  0.1989  0.0567 -0.1255
 9700W        W11900   2.276   7.631   7.525 -0.3386 -0.0464  0.0143
 9701W        W11901   2.010   7.336   0.278 -0.1444 -0.0894  0.1627
 9702W        W11902   9.338   6.368  22.727 -0.0683 -0.0025  0.0445
 9703W        W11903  18.563   7.659   5.622 -0.1058  0.1532 -0.0272
 9704W        W11904  27.699   0.187   1.224 -0.0650  0.0042  0.0547
 9705W        W11905   2.098   5.707  18.934 -0.2386 -0.2362  0.0349
 9706W        W11906  18.742   6.377   2.495 -0.1464 -0.0015  0.1931
 9707W        W11907  29.011   6.308  25.329 -0.1917  0.2000  0.0944
 9708W        W11908  10.303   1.722   3.319  0.1416 -0.1204 -0.2729
 9709W        W11909  24.672   7.133  11.067  0.0780  0.2140 -0.1975
 9710W        W11910  19.413   3.767   6.714  0.0336  0.0220  0.0876
 9711W        W11911  26.533   1.603  16.222  0.2487  0.1545 -0.2308
 9712W        W11912  16.849   3.081   7.057 -0.2179  0.2693  0.1243
 9713W        W11913  19.548   7.754  21.757 -0.2282  0.1207  0.5108
 9714W        W11914   9.077   7.359  24.221 -0.1614  0.0990 -0.2133
 9715W        W11915   4.368   6.491   8.481  0.0804  0.0445 -0.1580
 9716W        W11916  18.309   3.304   4.244 -0.0085 -0.1530  0.1142
 9717W        W11917  23.238   0.965   6.072 -0.0492  0.3192  0.0536
 9718W        W11918  24.762   5.824  20.247  0.0246  0.1694 -0.0113
 9719W        W11919  11.750   7.416   4.475  0.1041 -0.3867  0.1957
 9720W        W11920  14.748   1.093  16.964 -0.3543  0.2879  0.1583
 9721W        W11921  17.338   5.000   3.470  0.1152 -0.1199 -0.0823
 9722W        W11922  29.906   6.770  16.395  0.2946 -0.1534 -0.2055
 9723W        W11923  10.935   6.363   1.233  0.0259 -0.0748 -0.0327
 9724W        W11924  13.948   7.341   5.999  0.1454  0.1236 -0.1451
 9725W        W11925   2.049   1.781  24.745  0.2442  0.1461 -0.0791
 9726W        W11926  15.925   6.800  23.428 -0.1476 -0.1243  0.0179
 9727W        W11927  15.918   0.415   1.852  0.1546  0.1698 -0.1295
 9728W        W11928  25.450   1.525  23.608 -0.0874  0.2107  0.0619
 9729W        W11929   2.363   1.414  24.368  0.0240  0.2027  0.3059
 9730W        W11930  14.775   2.075  22.776 -0.0018 -0.0193 -0.0367
 9731W        W11931  17.519   0.146   7.295 -0.1640  0.0706 -0.0100
 9732W        W11932  14.337   1.551  23.479  0.0056 -0.0647 -0.1257
 9733W        W11933   1.499   4.044   5.837  0.1340  0.0200 -0.1766
 9734W        W11934  29.226   7.651  23.888 -0.0255 -0.2956  0.1023
 9735W        W11935  19.628   2.860   6.593 -0.1066 -0.0355  0.0628
 9736W        W11936  23.836   5.182   0.614 -0.2532  0.0147  0.1108
 9737W        W11937   7.057   6.923   9.594 -0.0637  0.1056  0.2034
 9738W        W11938  25.175   0.078   6.294  0.2124 -0.0014 -0.2445
 9739W        W11939   6.019   2.155  22.372 -0.0429 -0.4109 -0.0891
 9740W        W11940  16.050   7.542  18.345  0.0005  0.1158  0.2184
 9741W        W11941  14.630   6.942   4.901 -0.1517 -0.0040 -0.0841
 9742W        W11942  23.947   7.775   9.897 -0.2388 -0.1054  0.1264
 9743W        W11943   4.421   7.237  15.979  0.0075 -0.1562 -0.2019
 9744W        W11944   2.285   4.841   1.988  0.0395  0.1350 -0.0962
 9745W        W11945  10.194   3.710  22.314  0.1419  0.0336  0.0011
 9746W        W11946   6.649   1.061   5.826 -0.3031 -0.1176 -0.2158
 9747W        W11947  21.063   6.050   3.152 -0.0354  0.1224 -0.1728
 9748W        W11948  24.832   3.292   6.623  0.1919 -0.2679  0.1956
 9749W        W11949   0.104   0.980  23.824  0.0704 -0.0785  0.1558
 9750W        W11950   0.480   1.606   5.489 -0.0949 -0.0572  0.1051
 9751W        W11951   2.585   6.758   3.760  0.0778 -0.0165 -0.2239
 9752W        W11952   0.712   4.333  21.599  0.1261 -0.0490  0.1111
 9753W        W11953  10.703   2.489  22.197  0.0730 -0.0402 -0.0697
 9754W        W11954  28.767   7.092  20.269  0.0433 -0.1138  0.0008
 9755W        W11955  28.598   2.645   6.834 -0.1387 -0.1180  0.3380
 9756W        W11956  13.307   0.287  25.564 -0.0059 -0.2374 -0.0130
 9757W        W11957  30.758   2.006  20.946 -0.0088  0.1545 -0.0662
 9758W        W11958   4.742   7.546  23.881 -0.1225  0.3151  0.1851
 9759W        W11959  20.521   1.562  25.706 -0.1046 -0.3192  0.2500
 9760W        W11960   6.214   1.010  18.426 -0.1615  0.2096  0.0327
 9761W        W11961  23.419   3.452   0.570 -0.2364  0.0435  0.0801
 9762W        W11962  15.281   2.699   5.937  0.0769 -0.1705 -0.2754
 9763W        W11963   0.176   1.748   7.107 -0.1256 -0.3614  0.3980
 9764W        W11964   5.537   2.232   7.349 -0.0471 -0.0466 -0.2276
 9765W        W11965  14.877   6.611  20.003  0.0529  0.1771 -0.1391
 9766W        W11966  31.059   0.187  24.269  0.2069 -0.0032 -0.1926
 9767W        W11967  18.165   5.089  18.228  0.0008 -0.0924  0.0425
 9768W        W11968  29.543   0.026   0.965 -0.0169 -0.1580 -0.1569
 9769W        W11969   8.245   6.954  20.863  0.0191  0.0442 -0.0352
 9770W        W11970  11.987   1.430  18.793 -0.3011  0.1969 -0.1956
 9771W        W11971  26.692   6.082   1.147 -0.0007  0.1387 -0.2139
 9772W        W11972   1.541   1.882   3.237 -0.4034 -0.0092  0.0587
 9773W        W11973   8.397   1.047  24.593  0.0445  0.0206 -0.1203
 9774W        W11974  27.645   2.531  23.366 -0.1170  0.0088 -0.0113
 9775W        W11975   3.589   0.384  23.207  0.1719  0.1802  0.0284
 9776W        W11976  18.918   2.531   7.605  0.1877 -0.3678  0.3488
 9777W        W11977   3.556   7.416   8.041  0.2967  0.0292 -0.0880
 9778W        W11978  28.043   1.312   1.988 -0.0931  0.1376 -0.0782
 9779W        W11979  16.249   5.459  24.063 -0.4417 -0.2830  0.4451
 9780W        W11980  31.075   5.056  20.426 -0.2632 -0.0046  0.3288
 9781W        W11981  10.774   6.511  22.489 -0.0117 -0.1199  0.0963
 9782W        W11982   1.581   6.916  23.507  0.0400  0.2748 -0.0005
 9783W        W11983  11.358   7.329   5.113 -0.4358 -0.0623  0.3132
 9784W        W11984   0.580   0.215  17.809 -0.1247 -0.1366  0.1914
 9785W        W11985   4.909   2.867  19.751  0.0578 -0.0008 -0.1940
 9786W        W11986  23.929   5.362  10.964  0.1205 -0.2288  0.0747
 9787W        W11987   7.979   4.975   2.430  0.2403 -0.1746 -0.3225
 9788W        W11988  26.340   1.814   3.047  0.0623  0.0513 -0.1094
 9789W        W11989  28.295   4.217   5.410  0.1588  0.2531  0.0419
 9790W        W11990  23.078   2.281  21.378 -0.0696  0.1380 -0.0646
 9791W        W11991   1.805   5.607   0.388  0.2052  0.2472 -0.0694
 9792W        W11992  25.318   2.540   4.908  0.1517 -0.0219 -0.1979
 9793W        W11993  15.761   0.974  17.920  0.0230  0.2743 -0.0921
 9794W        W11994  10.589   5.004  18.528  0.0484  0.0362 -0.1678
 9795W        W11995  22.469   0.321   2.591  0.1876 -0.1271 -0.0591
 9796W        W11996  10.174   2.398   6.665  0.1237 -0.1155 -0.0795
 9797W        W11997  16.077   2.124   4.381  0.1611  0.0970 -0.2044
 9798W        W11998   1.260   4.734   0.162 -0.1657 -0.2324 -0.0560
 9799W        W11999  14.342   0.731  20.609 -0.0617 -0.1467 -0.2031
 9800W        W12000  21.816   1.918   6.892 -0.1234 -0.0779  0.2554
 9801W        W12001   2.028   0.376   4.510 -0.5462 -0.0968 -0.2497
 9802W        W12002  17.678   1.620   7.159  0.2553 -0.0074 -0.0290
 9803W        W12003   9.273   1.065  25.305  0.0484 -0.2770  0.0628
 9804W        W12004   6.043   4.186  16.036  0.1528  0.2675 -0.2767
 9805W        W12005   9.199   7.242   4.944 -0.2752  0.3497 -0.1032
 9806W        W12006  27.305   1.961   2.663 -0.2034  0.0164  0.0051
 9807W        W12007  20.460   5.416   5.392 -0.0180 -0.1071 -0.3249
 9808W        W12008  19.338   7.123  16.655 -0.0698  0.0187  0.0780
 9809W        W12009  10.448   3.701  17.803  0.0145 -0.0947  0.1377
 9810W        W12010   4.026   4.849  19.528  0.2217 -0.0211 -0.1054
 9811W        W12011  26.790   6.233  16.284  0.2861 -0.1518  0.1077
 9812W        W12012  12.795   6.367   6.869  0.0054  0.3835  0.1703
 9813W        W12013  16.359   5.932   8.982  0.3686 -0.0627  0.0102
 9814W        W12014  14.630   0.863   2.988  0.2385 -0.3027  0.0525
 9815W        W12015   8.022   4.238  24.950 -0.1316 -0.1192  0.0237
 9816W        W12016  23.901   7.230  14.558 -0.1072 -0.0021  0.1346
 9817W        W12017  24.808   0.280   0.408 -0.0385 -0.1588  0.0290
 9818W        W12018  16.815   7.646   2.574  0.1908  0.0472  0.0874
 9819W        W12019  23.494   2.032  22.200 -0.3328  0.1013  0.0235
 9820W        W12020  12.957   3.938   0.516  0.1548  0.0633 -0.0131
 9821W        W12021  20.870   2.476   3.239  0.4128 -0.1130 -0.2364
 9822W        W12022  15.737   5.442   8.414 -0.0583  0.0316  0.0862
 9823W        W12023   1.903   5.373  10.802  0.1387 -0.2657  0.2513
 9824W        W12024   6.586   5.635  23.599 -0.0861  0.0697 -0.0654
 9825W        W12025  20.519   5.048   8.630  0.1934  0.3622 -0.0445
 9826W        W12026  29.211   4.140   3.920 -0.5128  0.1697 -0.2814
 9827W        W12027  16.494   0.586   4.410 -0.0050  0.1854 -0.1844
 9828W        W12028   4.953   4.446  17.923 -0.0330 -0.2830 -0.1002
 9829W        W12029  24.790   1.685   3.440  0.1440  0.1333 -0.1297
 9830W        W12030   8.929   0.507   6.313  0.0250 -0.0034  0.1284
 9831W        W12031  17.234   1.973   5.924  0.0618 -0.1133  0.2168
 9832W        W12032  12.830   6.695   2.306 -0.3126  0.1856  0.0714
 9833W        W12033  22.666   6.727  18.754 -0.0712  0.0737 -0.0204
 9834W        W12034   9.657   5.880  10.520 -0.0751 -0.0105 -0.1092
 9835W        W12035  16.581   2.554  23.523 -0.0889  0.4696 -0.0961
 9836W        W12036  28.317   0.529   0.797 -0.2576 -0.1803  0.1746
 9837W        W12037   4.316   7.315  24.125  0.0062 -0.1927 -0.0546
 9838W        W12038  19.329   1.415   8.911 -0.1162 -0.2687 -0.1397
 9839W        W12039  17.064   4.602   2.997  0.0557  0.0822  0.0230
 9840W        W12040  11.574   5.650   5.945 -0.0584  0.2295  0.0150
 9841W        W12041  12.251   5.992  22.325  0.0239  0.1585 -0.1106
 9842W        W12042  30.001   3.870   6.128  0.0710 -0.1703  0.0683
 9843W        W12043  22.022   3.238  20.998 -0.1070  0.4585  0.0763
 9844W        W12044   8.730   0.402   0.778 -0.0315  0.2193 -0.1858
 9845W        W12045   6.194   0.609   5.179  0.0324 -0.0315  0.2972
 9846W        W12046  19.850   4.311  17.898  0.0433 -0.0225  0.0657
 9847W        W12047   0.936   7.120   6.160 -0.1519  0.5046  0.0035
 9848W        W12048   2.836   2.700   0.832  0.2054  0.1153  0.2289
 9849W        W12049  23.671   1.369  15.159 -0.1269 -0.0344 -0.2154
 9850W        W12050  22.329   2.184  15.262  0.0769 -0.2257  0.1869
 9851W        W12051  23.974   2.782   0.584  0.3071  0.0563 -0.2240
 9852W        W12052  17.328   1.082   7.713 -0.0785  0.0264  0.0361
 9853W        W12053  25.853   4.663  25.383  0.2486  0.4216 -0.0374
 9854W        W12054  12.783   5.008   2.912  0.1517 -0.0064 -0.1105
 9855W        W12055  17.601   1.580  18.907 -0.0053  0.1081  0.3617
 9856W        W12056  14.619   6.790   6.894  0.2101 -0.0441 -0.3201
 9857W        W12057  13.028   3.238  25.392  0.1182  0.2449 -0.0978
 9858W        W12058  25.074   5.539  15.125  0.1350 -0.0741  0.2005
 9859W        W12059   5.829   7.708   4.651  0.3098 -0.1582  0.1416
 9860W        W12060  25.349   1.417   8.080  0.1576  0.2920  0.1731
 9861W        W12061  26.584   6.578   5.411  0.2258 -0.1933  0.0702
 9862W        W12062  25.632   4.324   9.927 -0.1161  0.1120 -0.2042
 9863W        W12063  16.317   0.723  22.763  0.0555 -0.0941  0.1521
 9864W        W12064   6.859   5.758  21.247 -0.0044 -0.3084 -0.0497
 9865W        W12065   6.254   2.701   2.533 -0.0393  0.0189 -0.0458
 9866W        W12066  20.558   1.326   3.069  0.0272 -0.0549 -0.4541
 9867W        W12067  28.423   1.350  21.704 -0.0647 -0.0621 -0.1269
 9868W        W12068  14.808   7.450   2.087  0.1228  0.4154  0.2111
 9869W        W12069  19.255   1.113  16.343  0.2786 -0.1892  0.2056
 9870W        W12070   4.871   2.477   2.886 -0.0409  0.1542  0.1093
 9871W        W12071   1.680   3.376  19.249 -0.0384  0.1922  0.2879
 9872W        W12072  24.172   5.160  23.479  0.0984 -0.0920 -0.2543
 9873W        W12073   3.610   6.704   7.451 -0.1129 -0.2120  0.0164
 9874W        W12074  10.059   2.447   9.719  0.0448  0.0432  0.1763
 9875W        W12075  29.898   6.282   3.963  0.0986  0.0953  0.1624
 9876W        W12076   5.149   3.082  25.126 -0.3080 -0.0657  0.0007
 9877W        W12077   3.559   1.827  25.582 -0.1530  0.1160 -0.3449
 9878W        W12078  16.737   0.624  16.407 -0.1174  0.2417  0.1525
 9879W        W12079  20.733   1.303   8.776 -0.0111 -0.0368 -0.0831
 9880W        W12080  16.893   2.781   8.261 -0.0702  0.0823 -0.1699
 9881W        W12081   9.152   2.396  19.515 -0.0424  0.1108 -0.0932
 9882W        W12082   1.279   7.444   2.396 -0.2292 -0.0946 -0.0787
 9883W        W12083  29.167   1.824   7.997 -0.0036 -0.1298 -0.0479
 9884W        W12084  29.184   0.067  18.735 -0.0492 -0.4053 -0.1766
 9885W        W12085   6.100   5.901   6.688 -0.1798  0.1727 -0.0905
 9886W        W12086   9.818   6.674   2.088  0.0036  0.3811 -0.2116
 9887W        W12087   1.723   1.680  23.096 -0.0934 -0.1033 -0.1156
 9888W        W12088   9.809   0.743   1.979  0.1549  0.1134 -0.0051
 9889W        W12089  23.399   7.530   7.175 -0.1470 -0.0687 -0.0322
 9890W        W12090  24.199   2.360   3.469  0.1662 -0.2008  0.0846
 9891W        W12091   5.151   2.132   9.903  0.0113  0.1652 -0.1200
 9892W        W12092   0.899   4.098  24.533 -0.1943  0.0444 -0.1798
 9893W        W12093  15.808   4.531   8.684 -0.1047  0.1198  0.0622
 9894W        W12094  27.065   5.338   0.422  0.1871  0.1662 -0.2172
 9895W        W12095   8.216   6.088   1.429 -0.3464 -0.1855  0.1261
 9896W        W12096   0.334   7.026   7.794  0.0881  0.0631  0.0889
 9897W        W12097  26.869   6.278  21.984 -0.0600 -0.1556  0.1566
 9898W        W12098  25.285   4.251   6.810  0.1592  0.0737  0.0232
 9899W        W12099  12.406   2.703   6.608 -0.0092  0.0725  0.2320
 9900W        W12100  31.213   0.563   7.385 -0.0913 -0.0498 -0.2014
 9901W        W12101  18.097   5.778   2.895 -0.2255 -0.2363 -0.1156
 9902W        W12102  25.051   5.971  22.504  0.3617  0.0294 -0.1424
 9903W        W12103  22.955   6.447  22.335  0.0101  0.0175  0.2672
 9904W        W12104  25.513   3.017   4.974  0.1094 -0.1177 -0.0644
 9905W        W12105   4.299   7.279   5.816  0.1867 -0.1255  0.0839
 9906W        W12106  31.099   7.086   1.077  0.1510  0.0093 -0.0202
 9907W        W12107  18.840   4.559  21.728  0.4055  0.2169  0.2024
 9908W        W12108  25.693   5.672  23.247  0.0590 -0.1575 -0.0591
 9909W        W12109  29.635   4.603  18.175 -0.0733 -0.2732  0.0190
 9910W        W12110  21.432   2.369   8.198  0.0532 -0.1051 -0.1028
 9911W        W12111  17.385   7.626  25.842  0.4029  0.0069 -0.1205
 9912W        W12112  27.499   3.218   4.376 -0.1733  0.0201 -0.0186
 9913W        W12113  14.522   3.977  18.483 -0.0644  0.0928  0.0402
 9914W        W12114   4.028   5.872  17.072  0.1259  0.0662  0.1744
 9915W        W12115   7.364   4.362  21.250 -0.0433 -0.1658  0.1141
 9916W        W12116  14.152   1.832  10.821 -0.1641  0.0803 -0.0469
 9917W        W12117  13.322   2.031   2.719 -0.2776 -0.0951  0.0241
 9918W        W12118  20.154   5.831  17.181 -0.2237  0.0992  0.0291
 9919W        W12119  24.096   0.619  17.308  0.0902  0.0034  0.2128
 9920W        W12120  11.813   6.637   7.665  0.0016 -0.0225  0.0251
 9921W        W12121  29.506   1.164   8.711 -0.2131 -0.1371  0.0140
 9922W        W12122   4.890   6.985   5.758 -0.0974 -0.0286 -0.1457
 9923W        W12123  27.020   7.776  24.761 -0.0227 -0.2223  0.2867
 9924W        W12124  23.205   5.772  11.399  0.0306 -0.2582 -0.0368
 9925W        W12125  19.738   0.887  21.451  0.1077  0.0871 -0.0980
 9926W        W12126  17.756   7.503   5.144 -0.1201 -0.0721  0.0220
 9927W        W12127   9.664   2.702  15.985 -0.2388 -0.0585 -0.0689
 9928W        W12128   5.838   7.523  15.703  0.2661  0.1158  0.0743
 9929W        W12129   3.737   3.416  19.535  0.0326 -0.3455  0.0616
 9930W        W12130  30.079   5.629  17.391 -0.0183 -0.1047  0.0014
 9931W        W12131  10.946   0.893  20.570 -0.3724 -0.0661  0.2691
 9932W        W12132   2.909   2.681  18.862 -0.1187  0.1005 -0.1293
 9933W        W12133  27.603   6.685  23.709  0.0194 -0.2710 -0.1108
 9934W        W12134   5.381   7.275  24.659 -0.1226  0.1023 -0.3282
 9935W        W12135  26.454   1.998  21.087 -0.1269 -0.4290 -0.2865
 9936W        W12136  17.777   6.318  26.160 -0.2153  0.0849 -0.0526
 9937W        W12137  15.145   2.182  23.194 -0.2242 -0.1542 -0.0311
 9938W        W12138  16.462   2.678  10.924 -0.0263 -0.1472  0.2640
 9939W        W12139  21.683   5.334  19.286  0.0948 -0.1726 -0.0992
 9940W        W12140   5.919   7.209  16.864  0.1396 -0.2002 -0.2862
 9941W        W12141  12.444   3.331   7.411 -0.0292 -0.1366 -0.1118
 9942W        W12142  11.052   0.447   0.684 -0.2169 -0.2098  0.3227
 9943W        W12143  16.403   7.428   3.631 -0.2110  0.0514 -0.0747
 9944W        W12144  28.417   7.669  19.767 -0.0741  0.1321 -0.1875
 9945W        W12145  24.696   3.231   4.012 -0.1484  0.2380 -0.2662
 9946W        W12146   7.455   7.221   0.357 -0.4346  0.2011 -0.2970
 9947W        W12147   1.813   2.861   8.860 -0.0033 -0.1506 -0.1288
 9948W        W12148  18.955   1.087  19.369  0.2086  0.2844 -0.3092
 9949W        W12149   3.113   6.315  23.931  0.3909 -0.4697  0.1074
 9950W        W12150  27.224   3.723   3.587  0.0212  0.2594  0.0060
 9951W        W12151  29.141   4.085  11.472  0.2059  0.0975  0.0075
 9952W        W12152  20.272   1.561  17.622 -0.0710  0.0734  0.1748
 9953W        W12153  18.813   6.650   9.683  0.1531  0.0151 -0.0584
 9954W        W12154   4.548   4.182  24.334  0.0757  0.0449 -0.1803
 9955W        W12155   3.278   7.420   9.974  0.1129  0.2166 -0.1132
 9956W        W12156  16.867   4.031   1.639 -0.0870 -0.1944  0.0690
 9957W        W12157  26.881   2.062   5.383 -0.0580 -0.1099 -0.2292
 9958W        W12158   6.327   4.194   2.246 -0.2451 -0.0807  0.1404
 9959W        W12159   0.906   5.292  25.458  0.2056  0.0880  0.1944
 9960W        W12160  19.490   0.216  18.744  0.1093 -0.0280  0.1044
 9961W        W12161  20.548   2.920  10.420  0.1510  0.0185 -0.3545
 9962W        W12162  12.094   5.390  15.683 -0.2074 -0.0494  0.1094
 9963W        W12163  17.474   1.217  18.528 -0.1055  0.2730 -0.2460
 9964W        W12164   5.216   6.209  17.449 -0.0579  0.0573  0.0688
 9965W        W12165  15.092   6.202  16.941 -0.2706 -0.2006 -0.2950
 9966W        W12166  12.424   2.027  10.021 -0.0104 -0.2187 -0.1190
 9967W        W12167   3.748   2.426   7.114  0.0453 -0.1119 -0.0191
 9968W        W12168  26.191   5.088  16.954 -0.0156  0.1654  0.3182
 9969W        W12169  27.849   0.285  24.511  0.0763  0.0410  0.1850
 9970W        W12170  27.301   7.704  15.908 -0.0721  0.0461 -0.0960
 9971W        W12171  24.434   1.965  16.711  0.1174 -0.0085  0.3252
 9972W        W12172   2.131   4.151   8.624 -0.3057 -0.0381 -0.0553
 9973W        W12173  27.637   6.039  17.484  0.0371 -0.0627 -0.0444
 9974W        W12174  11.222   6.072  21.769  0.0467  0.1146  0.0368
 9975W        W12175  30.989   2.828  23.922 -0.0943 -0.2550  0.0056
 9976W        W12176   1.541   7.621  20.687 -0.2358  0.1455 -0.1922
 9977W        W12177   0.682   3.564  18.917  0.3023  0.2924  0.1797
 9978W        W12178  25.774   7.676   6.696  0.1984  0.1293  0.0624
 9979W        W12179  22.885   0.320   4.511 -0.0127 -0.1688  0.0669
 9980W        W12180  23.612   0.985   1.583 -0.0718 -0.2954  0.0578
 9981W        W12181  27.259   5.194  17.151  0.1645  0.0739 -0.3336
 9982W        W12182  28.608   4.736   3.744  0.1051 -0.0053 -0.1803
 9983W        W12183  17.345   2.881  20.269  0.0911 -0.1362 -0.2323
 9984W        W12184  14.910   0.467  17.714 -0.0500  0.2931  0.2342
 9985W        W12185  29.841   3.138  25.557  0.1137  0.2126 -0.2319
 9986W        W12186   5.843   4.266  24.348 -0.1350  0.2708 -0.1999
 9987W        W12187  22.203   7.756   1.883  0.0498 -0.2202 -0.1977
 9988W        W12188   5.745   6.756   3.322 -0.1233  0.0426  0.1243
 9989W        W12189   3.498   5.014   2.782  0.0326  0.2169 -0.0661
 9990W        W12190  28.773   0.793   3.168 -0.1369  0.2005 -0.1935
 9991W        W12191  15.654   2.104   8.284  0.0941  0.3034 -0.2811
 9992W        W12192  13.335   3.050   6.813  0.1183  0.4861  0.0617
 9993W        W12193  26.867   6.177  25.581 -0.1149  0.0348 -0.1452
 9994W        W12194  29.309   3.767  24.933 -0.1126 -0.2775 -0.2428
 9995W        W12195   3.184   4.978  25.151 -0.0770 -0.1783 -0.1495
 9996W        W12196  14.922   1.246   4.023 -0.0266  0.1324  0.0388
 9997W        W12197  11.997   6.572  21.269 -0.0689 -0.0041 -0.2801
 9998W        W12198   8.216   2.948   3.477 -0.0053  0.0938  0.2902
 9999W        W12199  18.909   2.470  24.182  0.0110  0.0355  0.2848
10000W        W12200  10.544   4.028  10.538 -0.3886  0.3151  0.0589
10001W        W12201  20.972   5.146   5.598  0.1371  0.0325  0.1500
10002W        W12202   3.121   3.810  11.159 -0.0311  0.1912 -0.0143
10003W        W12203  12.032   3.300  25.676 -0.2596  0.1091  0.2585
10004W        W12204   1.474   3.500  18.722 -0.1342 -0.2276 -0.5194
10005W        W12205  31.072   7.073  10.597  0.2492 -0.0791  0.2526
10006W        W12206  18.333   6.364   2.092  0.0279 -0.0013  0.0594
10007W        W12207   6.367   5.632   3.760 -0.0527 -0.0127 -0.0571
10008W        W12208  17.745   3.249   3.882 -0.1717 -0.1127  0.0680
10009W        W12209  28.457   0.718   4.579  0.1506  0.1299  0.1726
10010W        W12210   2.238   0.485   9.285  0.0942 -0.0908 -0.1127
10011W        W12211  11.975   6.854  22.112 -0.1274 -0.2475 -0.2688
10012W        W12212   8.863   7.492   2.456 -0.1421 -0.0856 -0.2345
10013W        W12213  27.401   1.250   5.425 -0.0674 -0.2310 -0.0945
10014W        W12214   6.764   2.733   2.410 -0.0710  0.1047 -0.0673
10015W        W12215   8.610   3.124   6.227 -0.0162  0.2171  0.1639
10016W        W12216  17.194   2.117  18.077 -0.0265  0.0088  0.1236
10017W        W12217  22.998   1.999  18.287  0.0195 -0.2893 -0.3906
10018W        W12218  14.243   5.345   4.288 -0.1437  0.0364 -0.0284
10019W        W12219  29.214   4.233  23.082 -0.1299  0.1665  0.0187
10020W        W12220  17.921   0.835  25.511 -0.1418 -0.0895  0.0141
10021W        W12221  24.171   3.659  21.610 -0.1515 -0.0838  0.1837
10022W        W12222  12.698   2.184   0.070 -0.0780  0.0633 -0.1685
10023W        W12223   0.684   4.936  25.229  0.0253  0.1650 -0.1706
10024W        W12224  13.620   2.306   4.286 -0.2398 -0.1906 -0.2715
10025W        W12225  19.018   6.480  22.842  0.1120  0.0826  0.1621
10026W        W12226  13.217   6.715  17.752 -0.1116 -0.3026 -0.2135
10027W        W12227  29.512   7.085  17.158  0.2704  0.0374  0.2964
10028W        W12228  10.543   4.702   5.677 -0.3611 -0.0299 -0.2744
10029W        W12229  20.322   1.512  21.477 -0.1368 -0.0432  0.0139
10030W        W12230   6.307   0.933   7.116 -0.3014  0.0509  0.0558
10031W        W12231  31.285   4.522   5.972  0.0511  0.0352 -0.1358
10032W        W12232  17.512   7.022  17.988 -0.0380  0.0583  0.1283
10033W        W12233  13.625   0.087  20.633  0.1593 -0.1719 -0.2480
10034W        W12234  20.999   0.048   2.525  0.0164  0.2139 -0.0449
10035W        W12235  19.622   4.505  19.427  0.0067 -0.2646  0.2768
10036W        W12236   5.927   4.791   4.018  0.1847 -0.0017 -0.0273
10037W        W12237  28.629   6.122   6.092 -0.0308 -0.0059  0.0173
10038W        W12238  16.936   6.290   2.680 -0.0438  0.4807 -0.0298
10039W        W12239  25.884   6.894   4.417 -0.0962  0.1547  0.3491
10040W        W12240   8.991   3.631  26.106  0.0646 -0.1676  0.3187
10041W        W12241   1.509   2.552   6.246  0.0622 -0.0935 -0.2294
10042W        W12242  19.037   2.181  18.888  0.0443 -0.2576  0.0237
10043W        W12243  21.704   3.727   8.017 -0.0828 -0.2783  0.1346
10044W        W12244  13.697   5.229   9.062  0.1341  0.0190  0.1204
10045W        W12245   2.144   7.315  21.745 -0.1310 -0.0120 -0.3043
10046W        W12246  13.428   3.887  15.364 -0.0446  0.1495 -0.0937
10047W        W12247  23.796   4.994   4.794  0.2243 -0.1458 -0.0213
10048W        W12248  10.685   6.854   1.215 -0.2354 -0.3737  0.3260
10049W        W12249  26.697   2.585  24.214 -0.0165  0.1200  0.3107
10050W        W12250   0.227   5.047  19.718  0.2657 -0.0202  0.1962
10051W        W12251  16.476   0.883  20.722 -0.0258 -0.1341 -0.0482
10052W        W12252   5.841   3.818  18.955  0.0740  0.0705 -0.0145
10053W        W12253  30.938   4.038   2.130  0.1358  0.1943  0.1443
10054W        W12254  18.188   2.812   8.312  0.2073 -0.1512  0.1992
10055W        W12255  23.362   4.327   6.082  0.0365 -0.1091 -0.2522
10056W        W12256  12.336   7.462  19.189  0.2600  0.0607  0.0805
10057W        W12257   5.563   1.813  15.937  0.4620  0.0535  0.3448
10058W        W12258  13.550   1.145   3.233  0.0836 -0.0119  0.2471
10059W        W12259  22.642   5.559  16.722  0.1498 -0.1858  0.2592
10060W        W12260   1.031   3.439   8.342  0.0086  0.2291  0.0785
10061W        W12261   2.561   0.836  15.792 -0.0967  0.2061  0.0636
10062W        W12262  20.953   1.744   2.574 -0.0581 -0.2690 -0.0537
10063W        W12263  23.288   3.402   0.040  0.0347  0.0228 -0.0179
10064W        W12264  27.221   7.680   1.375  0.2279  0.0516  0.2303
10065W        W12265  26.760   6.426   3.270  0.0769 -0.0416 -0.2116
10066W        W12266  27.590   5.605  10.674 -0.6257  0.1700  0.3015
10067W        W12267  16.064   5.950  19.699 -0.2705  0.0768  0.5051
10068W        W12268  30.853   5.306   7.126 -0.1449 -0.1847 -0.2304
10069W        W12269   1.536   1.147   9.449  0.2539  0.0883  0.1615
10070W        W12270  20.284   5.855  10.209 -0.3961 -0.1526 -0.0400
10071W        W12271  23.508   2.005  18.523 -0.2011  0.0594  0.1293
10072W        W12272   8.658   1.488  21.835 -0.0907 -0.0079  0.1118
10073W        W12273   0.707   0.176  11.359  0.0450  0.0441  0.2645
10074W        W12274  21.468   7.498  21.835 -0.3791  0.0890  0.1168
10075W        W12275  19.505   5.047  20.216  0.3130  0.1255 -0.0387
10076W        W12276  26.044   1.153   0.694 -0.0118  0.0498  0.0602
10077W        W12277  28.033   4.106  15.855 -0.3241  0.0278  0.1254
10078W        W12278  24.581   4.074  20.052 -0.0821  0.0033  0.0246
10079W        W12279  20.981   2.135  21.879  0.1659 -0.0304  0.2782
10080W        W12280  10.963   3.141  22.973 -0.2156  0.0445  0.1204
10081W        W12281  18.458   5.794  25.019  0.0172 -0.3166 -0.0131
10082W        W12282  11.055   1.099  26.038 -0.0932 -0.0599  0.0542
10083W        W12283  27.818   7.337   5.175 -0.4954  0.1751 -0.0611
10084W        W12284  23.617   6.545  18.679  0.1180  0.0803 -0.0837
10085W        W12285   4.348   6.683  16.783 -0.1252  0.0977  0.1650
10086W        W12286  24.377   6.135   3.164  0.0118 -0.0763  0.1345
10087W        W12287  30.529   7.018   2.169  0.0152 -0.0114 -0.0565
10088W        W12288   2.278   2.186  25.622 -0.1363 -0.1608  0.0127
10089W        W12289  28.976   2.602   4.133 -0.0236 -0.0403  0.1405
10090W        W12290  11.731   1.356  24.484  0.2791 -0.0636 -0.1065
10091W        W12291  26.907   0.024  25.717 -0.1090  0.0802  0.2862
10092W        W12292  30.736   0.004  20.271 -0.0471 -0.0685 -0.3357
10093W        W12293   3.571   1.287  23.643 -0.2510 -0.0228 -0.0033
10094W        W12294  20.449   1.770  22.927  0.1370  0.0027  0.2555
10095W        W12295  29.105   6.663   0.081  0.1085  0.2693 -0.2249
10096W        W12296  19.221   5.242  25.693  0.0665  0.0782  0.1239
10097W        W12297  21.096   7.104   8.119 -0.3359  0.0351 -0.0132
10098W        W12298  21.522   4.955   5.998  0.2014  0.1645  0.1829
10099W        W12299   5.662   1.586  20.559  0.0185  0.2960 -0.1172
10100W        W12300  22.020   7.235   1.611  0.2362 -0.1510 -0.1724
10101W        W12301   3.581   4.926   1.107  0.0753 -0.0443  0.0584
10102W        W12302  24.736   6.209  10.172 -0.2618 -0.0690 -0.1186
10103W        W12303  14.932   3.166   1.566 -0.0413  0.0742 -0.3155
10104W        W12304   1.060   2.188  21.641 -0.0609  0.2108 -0.2762
10105W        W12305  21.699   4.672   9.375  0.1841  0.0215 -0.0596
10106W        W12306   4.180   3.245  10.176 -0.0074  0.1448 -0.0100
10107W        W12307  21.776   0.204  20.384 -0.3814 -0.3541  0.0601
10108W        W12308  29.406   5.687  21.810 -0.2756 -0.1950 -0.1037
10109W        W12309  15.423   0.812  24.394  0.0258 -0.3678  0.3389
10110W        W12310   9.678   6.441   7.284 -0.1488  0.0275  0.0150
10111W        W12311  14.462   2.266  21.235  0.0478 -0.4745  0.0375
10112W        W12312  23.935   3.285   3.124  0.3490 -0.1626  0.0692
10113W        W12313   9.382   6.195   3.828 -0.2168 -0.1478  0.0103
10114W        W12314  12.776   7.633  21.122  0.0864 -0.0233  0.1543
10115W        W12315  30.467   1.630  17.151 -0.1351 -0.0288  0.0197
10116W        W12316  18.496   6.916  24.845 -0.2138 -0.0004 -0.1710
10117W        W12317   5.508   4.787   6.816 -0.2553 -0.1710 -0.2707
10118W        W12318  12.583   5.149  18.512 -0.0907  0.2594 -0.0047
10119W        W12319  14.383   4.457   3.213 -0.0335  0.1171 -0.1332
10120W        W12320   7.440   4.883   9.526 -0.0682  0.0168  0.1311
10121W        W12321   6.809   0.846   1.117  0.1450  0.0745  0.0409
10122W        W12322  13.044   4.040   3.872  0.1469 -0.0253 -0.1412
10123W        W12323   9.154   0.240  16.213  0.0451 -0.0517 -0.1847
10124W        W12324  10.605   2.157   6.332  0.0561 -0.1846  0.0124
10125W        W12325  10.469   5.297   5.522 -0.0347 -0.2915  0.0559
10126W        W12326  12.957   5.805  20.668  0.1395 -0.1622  0.2519
10127W        W12327   8.245   0.623   9.193 -0.2143 -0.0127  0.2940
10128W        W12328  13.980   1.956  22.251 -0.1303 -0.0914  0.0318
10129W        W12329  10.706   0.027   7.151  0.1086 -0.0372  0.0625
10130W        W12330  31.279   7.727   4.412  0.0593 -0.0158  0.0067
10131W        W12331  23.950   5.860  17.455  0.0716  0.0430  0.2087
10132W        W12332  14.529   4.505  18.234  0.0585 -0.4579 -0.1202
10133W        W12333  10.448   4.356  10.056  0.0741  0.3042 -0.0083
10134W        W12334  13.259   4.586  22.791 -0.0970 -0.0847 -0.3587
10135W        W12335  28.411   5.618  16.498  0.1170 -0.0191  0.2180
10136W        W12336  21.246   2.813   4.583 -0.2246 -0.0913 -0.1623
10137W        W12337  21.538   2.115  15.655  0.0391  0.2913 -0.0024
10138W        W12338  11.364   3.944   5.136 -0.1723 -0.1148  0.1080
10139W        W12339  13.798   7.354  16.809  0.2464  0.1003 -0.0247
10140W        W12340  15.975   6.392   9.328 -0.0987 -0.4056 -0.0784
10141W        W12341  23.091   4.377  22.487 -0.0963 -0.1335 -0.2117
10142W        W12342   6.270   6.842  24.938  0.0335  0.2468 -0.0376
10143W        W12343  23.694   7.078  21.491  0.0484 -0.2061  0.0098
10144W        W12344  23.353   4.125   9.690 -0.0906 -0.1868  0.1642
10145W        W12345  25.159   4.242  16.758 -0.0859  0.1264  0.1732
10146W        W12346   5.029   5.016   5.898 -0.1208 -0.2664  0.0486
10147W        W12347   3.812   5.688   5.706  0.2303  0.2510 -0.1194
10148W        W12348   0.217   3.462  24.165  0.1119  0.0487  0.0143
10149W        W12349  23.332   1.947   4.039 -0.0319 -0.0019 -0.0129
10150W        W12350  27.753   6.629  15.570  0.0805  0.1809 -0.1334
10151W        W12351   4.820   7.750   9.276  0.1725 -0.1712 -0.0734
10152W        W12352  20.232   1.362   1.313  0.0985  0.0441 -0.1981
10153W        W12353   6.495   6.308   4.664  0.1272 -0.1960  0.0028
10154W        W12354  12.500   7.482  23.400 -0.2844  0.0438 -0.0424
10155W        W12355   6.132   2.562  23.402  0.0645  0.1160 -0.0520
10156W        W12356  17.251   0.264   5.668 -0.1101 -0.0448  0.0665
10157W        W12357   7.353   6.762   1.350 -0.0511  0.3883 -0.3493
10158W        W12358  24.301   6.222   5.055 -0.0419  0.3364 -0.1608
10159W        W12359   0.509   3.019   9.477 -0.0029 -0.1618  0.0308
10160W        W12360  16.766   5.000   0.595  0.1809 -0.1993 -0.4682
10161W        W12361  21.815   0.413   8.899  0.0567 -0.3549 -0.0434
10162W        W12362  19.001   4.606  17.486  0.0114  0.1236  0.0297
10163W        W12363  14.635   3.361  22.583  0.3968 -0.0537  0.0551
10164W        W12364  30.193   7.658  20.565 -0.3789  0.3315  0.0301
10165W        W12365  14.436   6.960  26.060 -0.1414  0.0596 -0.1471
10166W        W12366  13.550   2.345  19.702  0.2545  0.2796  0.1004
10167W        W12367  15.974   6.033  21.120 -0.2344  0.1132  0.2552
10168W        W12368  28.940   0.826   5.866 -0.2281  0.0589 -0.0295
10169W        W12369  30.160   2.856  15.258  0.2010  0.0691  0.0603
10170W        W12370  23.161   6.186   8.914  0.0180 -0.1281  0.1850
10171W        W12371  11.664   4.364  22.509 -0.1143 -0.1922 -0.1983
10172W        W12372  22.657   5.666  18.319  0.0240 -0.0677 -0.0952
10173W        W12373   5.641   1.659   1.292  0.3118 -0.2190  0.0429
10174W        W12374   2.012   5.767   3.741  0.4282 -0.0863  0.2162
10175W        W12375   8.933   1.322  20.514 -0.2139  0.3272  0.0743
10176W        W12376   0.789   0.349  21.008 -0.1236 -0.0666  0.0843
10177W        W12377  15.230   3.750   2.527  0.1762  0.1161 -0.1865
10178W        W12378   7.361   2.050  23.062  0.1545  0.2348  0.1623
10179W        W12379   9.001   6.695  25.861 -0.1515 -0.1955  0.3058
10180W        W12380  29.770   1.172   5.127 -0.0529 -0.1252 -0.0370
10181W        W12381  25.476   1.511   4.706 -0.0146 -0.1481  0.0508
10182W        W12382   1.693   3.126   4.573  0.1032  0.1918 -0.4155
10183W        W12383  21.873   5.853  10.170  0.1056 -0.1957 -0.0103
10184W        W12384  15.804   3.407   1.741 -0.1904 -0.0261 -0.2713
10185W        W12385  25.131   4.718   5.926  0.0998 -0.0592 -0.0619
10186W        W12386  11.250   4.923  10.757 -0.0104 -0.0080  0.0173
10187W        W12387   1.629   2.053  11.015 -0.2447  0.2763  0.0901
10188W        W12388  24.426   0.856  26.098 -0.1794 -0.0289 -0.3719
10189W        W12389  10.227   1.170  23.793 -0.2046 -0.1546 -0.0021
10190W        W12390   5.459   7.276   8.065 -0.1768  0.0252 -0.0809
10191W        W12391   3.759   2.467  24.055 -0.4489 -0.2007  0.0160
10192W        W12392  16.504   4.896   4.220 -0.1955  0.0553 -0.1047
10193W        W12393   0.785   2.410   1.511 -0.0102  0.2173 -0.0353
10194W        W12394   3.069   5.869  20.308  0.4212  0.0002 -0.2270
10195W        W12395  14.223   4.896  10.662  0.2124 -0.1018  0.0484
10196W        W12396   5.363   6.678   2.292  0.3228  0.0602  0.1673
10197W        W12397  10.915   5.156   9.844 -0.0288  0.0285 -0.1058
10198W        W12398   9.940   6.907   0.413  0.1111  0.1605 -0.1368
10199W        W12399  17.207   3.245  17.298 -0.1252  0.0901 -0.0658
10200W        W12400  11.231   1.606   5.803  0.1766 -0.1838  0.2273
10201W        W12401  27.078   5.424   6.330  0.3108  0.1767  0.2294
10202W        W12402  23.651   4.285  18.304 -0.1091 -0.4394 -0.0210
10203W        W12403   5.768   7.631   7.875  0.0202 -0.2415  0.0197
10204W        W12404  13.853   6.188  10.423  0.1101  0.3711  0.0703
10205W        W12405  29.788   6.345  16.146 -0.0137  0.1875  0.0816
10206W        W12406  15.539   7.042  23.610 -0.0707 -0.0243  0.0808
10207W        W12407  17.168   0.308   7.797 -0.0685  0.1811  0.1489
10208W        W12408   4.500   1.240   8.283 -0.0639 -0.0558  0.1693
10209W        W12409   4.995   7.723  23.121  0.0313 -0.2563  0.0993
10210W        W12410   9.762   1.319  22.878 -0.2314 -0.1799 -0.2712
10211W        W12411  14.635   6.150  16.716 -0.0912  0.2987 -0.2388
10212W        W12412  24.911   0.117  17.813  0.1267 -0.1250  0.0257
10213W        W12413  21.215   4.841   8.209  0.1897 -0.0326  0.2826
10214W        W12414  20.177   4.287   6.559 -0.1983 -0.1463 -0.4981
10215W        W12415  13.488   4.567  18.162 -0.2804  0.2150  0.1988
10216W        W12416  10.515   6.914   9.425 -0.2376 -0.0700 -0.1475
10217W        W12417  10.806   4.847   1.194  0.1036 -0.0984 -0.0978
10218W        W12418  13.579   1.733  18.087  0.2377  0.0527  0.2100
10219W        W12419  24.522   5.999   9.315  0.0316  0.0570 -0.3411
10220W        W12420  23.137   6.895  25.091 -0.0079  0.0794  0.0197
10221W        W12421  13.831   1.502  20.519 -0.2165 -0.0144 -0.0664
10222W        W12422  26.207   2.332  17.998 -0.1734 -0.0880 -0.1266
10223W        W12423  10.545   4.401   7.793  0.1766  0.2276 -0.2789
10224W        W12424  17.587   4.739  18.418  0.0149  0.1045 -0.0711
10225W        W12425  15.563   4.669  25.256  0.1271  0.2096 -0.0173
10226W        W12426  21.894   2.344   8.215  0.2671  0.1353  0.1303
10227W        W12427  11.809   4.231  25.615  0.2213  0.1458 -0.1224
10228W        W12428  25.216   3.247  22.894  0.2230  0.1279  0.3085
10229W        W12429  10.357   4.019  19.750  0.1155 -0.1536 -0.1675
10230W        W12430   8.809   0.632   4.985  0.0052 -0.0275  0.0497
10231W        W12431  31.021   6.722  11.594  0.1733 -0.3370  0.1506
10232W        W12432  16.043   0.798  20.879 -0.0631  0.3257 -0.1320
10233W        W12433  22.507   5.159  20.668  0.0111  0.1424 -0.0376
10234W        W12434  15.103   2.900  21.532 -0.0662 -0.0116 -0.2057
10235W        W12435  23.211   4.144   1.039 -0.1699 -0.0440  0.4269
10236W        W12436  22.711   6.133  14.693 -0.2312 -0.0168  0.0747
10237W        W12437  20.940   0.873  23.210  0.0925 -0.1526 -0.0981
10238W        W12438  16.139   4.632   5.020 -0.0730 -0.1145  0.1681
10239W        W12439   6.285   5.629   8.171  0.2322 -0.0954  0.2636
10240W        W12440  27.760   5.867   5.604  0.1685 -0.0903 -0.0570
10241W        W12441   7.035   4.542   5.477 -0.1799  0.0748  0.1113
10242W        W12442   0.194   1.113  10.705 -0.0073  0.3077  0.0083
10243W        W12443   3.231   3.760   2.327  0.0326  0.0600  0.0349
10244W        W12444  28.540   6.042   2.576 -0.0424 -0.3732  0.1061
10245W        W12445  19.070   4.443  21.213 -0.1907 -0.1756 -0.0717
10246W        W12446   4.783   3.349   4.116 -0.2485  0.4446  0.2845
10247W        W12447   4.728   6.937   8.668  0.0560  0.1475 -0.0588
10248W        W12448  21.666   4.549   4.211  0.2773 -0.1338  0.4146
10249W        W12449  17.638   3.235   1.045 -0.0129  0.0100  0.2238
10250W        W12450  23.495   0.963  20.249 -0.0442  0.1383 -0.0219
10251W        W12451  24.136   2.029  10.838 -0.0550  0.1312 -0.2706
10252W        W12452  13.778   0.546  25.670  0.0572  0.3199  0.1373
10253W        W12453   9.261   0.702  21.639 -0.2242  0.0607 -0.1760
10254W        W12454  17.453   7.680  25.326 -0.1345  0.2693 -0.0424
10255W        W12455  23.675   4.552  21.406 -0.1967 -0.0767  0.2053
10256W        W12456  20.624   5.172   9.720 -0.1223  0.1279 -0.0373
10257W        W12457  13.331   0.600  22.618  0.0681  0.0511  0.0373
10258W        W12458   0.346   0.548   6.350  0.2432  0.1505  0.1099
10259W        W12459   7.552   6.737   3.974 -0.3286 -0.0102 -0.1127
10260W        W12460  17.017   0.011   3.006  0.0513 -0.0804 -0.2863
10261W        W12461  13.744   3.643   8.356  0.3029 -0.1370  0.2006
10262W        W12462  23.732   3.522   4.350 -0.2552  0.1747  0.2694
10263W        W12463  10.035   3.443   2.066 -0.1391 -0.1676  0.0580
10264W        W12464  30.630   0.702  18.150  0.1031  0.0120 -0.3960
10265W        W12465  18.941   3.538  22.602 -0.2054  0.0237 -0.2568
10266W        W12466  20.857   4.879   6.640 -0.2389  0.1746  0.0050
10267W        W12467  29.764   0.947  20.865  0.1812 -0.0721  0.3213
10268W        W12468  24.601   1.253  23.097 -0.0383  0.0499 -0.1932
10269W        W12469  22.261   3.735   4.459 -0.3122 -0.0523 -0.1729
10270W        W12470  22.171   2.081  10.265 -0.3364 -0.0173  0.2937
10271W        W12471  12.453   0.492   1.515  0.0344  0.2517 -0.0998
10272W        W12472  30.361   7.413   9.301 -0.2143  0.1890  0.0480
10273W        W12473  30.364   5.290  16.708  0.0169 -0.0210  0.0225
10274W        W12474  14.768   5.840   9.334 -0.1631 -0.0459  0.0639
10275W        W12475  24.425   2.068   0.583 -0.1932 -0.1831 -0.0365
10276W        W12476  23.080   1.757  25.066 -0.1170  0.0678 -0.0161
10277W        W12477   4.522   1.999  16.134  0.1488  0.0704 -0.1626
10278W        W12478   4.354   4.609   1.954 -0.0721 -0.4515 -0.1646
10279W        W12479  16.513   5.377  20.674  0.0132  0.0090  0.1419
10280W        W12480  20.998   5.719  17.541  0.0875 -0.3609  0.0894
10281W        W12481  24.077   4.221   6.063  0.0609 -0.1658  0.0636
10282W        W12482   4.737   7.076  24.086 -0.0309  0.2270 -0.1315
10283W        W12483  15.768   0.321   1.352 -0.1108 -0.0308 -0.1408
10284W        W12484   5.771   7.614  17.636 -0.3355  0.0781  0.0512
10285W        W12485  16.485   2.598  22.398 -0.0246 -0.1149 -0.0458
10286W        W12486  14.567   0.730   2.519  0.3024  0.0583 -0.0961
10287W        W12487  26.862   6.546   5.826 -0.0346 -0.1850  0.1393
10288W        W12488   4.820   3.260  23.127 -0.0128  0.1229  0.1436
10289W        W12489  18.398   6.414  17.181  0.2632 -0.1978  0.0617
10290W        W12490  13.318   3.690  19.493 -0.0803 -0.0585  0.0548
10291W        W12491  21.354   3.092  24.295  0.3276 -0.2178  0.0410
10292W        W12492  11.797   6.995   9.350  0.2049  0.2955  0.0751
10293W        W12493  30.432   5.649   9.206 -0.3062 -0.0840  0.4164
10294W        W12494   5.181   5.664  19.674  0.0709 -0.0708  0.1225
10295W        W12495  28.661   3.694  22.507 -0.2280 -0.1411  0.0825
10296W        W12496  17.179   7.143   3.308  0.1700  0.1746 -0.0325
10297W        W12497  31.272   4.189  24.800  0.0802  0.0474 -0.1400
10298W        W12498   2.320   0.498  19.133 -0.1016 -0.1944 -0.0199
10299W        W12499  10.242   1.588  10.017 -0.1975  0.3607  0.1524
10300W        W12500  20.299   2.261   1.563  0.2061  0.0925 -0.1552
10301W        W12501   0.398   5.600   3.613  0.0545 -0.3656  0.0973
10302W        W12502  10.880   1.505   7.112 -0.0660  0.3409 -0.0496
10303W        W12503  25.008   5.470   4.989  0.0611  0.1377 -0.2519
10304W        W12504  15.494   3.325   2.516 -0.2261  0.1745  0.2388
10305W        W12505   7.264   7.635  10.213 -0.0391  0.0702 -0.0776
10306W        W12506  16.105   4.381   0.966  0.1547 -0.0845 -0.1676
10307W        W12507  23.766   4.085  10.260 -0.0502  0.0005  0.1124
10308W        W12508   3.260   5.498  24.892  0.3797  0.1270  0.2206
10309W        W12509  27.577   1.669   3.513 -0.0356 -0.2021 -0.0473
10310W        W12510  29.108   7.692  11.031  0.1094 -0.0164  0.0206
10311W        W12511  16.934   0.745  25.837 -0.1433  0.6035  0.2360
10312W        W12512  15.979   1.312   0.666 -0.0448  0.1820 -0.0939
10313W        W12513   0.230   1.532  24.776  0.1502 -0.0285 -0.1640
10314W        W12514  15.524   4.193  25.958 -0.0376  0.3187  0.3845
10315W        W12515   8.282   0.256  21.674 -0.0944 -0.0930  0.2805
10316W        W12516  25.832   4.006   5.935 -0.0446 -0.0811 -0.1983
10317W        W12517  19.055   3.615  14.471  0.0887 -0.0120  0.3997
10318W        W12518  21.667   5.354   0.139  0.2138  0.2892  0.3168
10319W        W12519   5.675   5.674  15.505 -0.2573  0.0616  0.0848
10320W        W12520  16.875   3.787  18.467 -0.2619 -0.0521 -0.4267
10321W        W12521  26.876   2.113  10.562 -0.0978  0.0264 -0.1382
10322W        W12522  19.814   2.894  19.187  0.1422 -0.0463 -0.1922
10323W        W12523  16.189   0.051  21.077 -0.0948 -0.0372  0.0236
10324W        W12524   5.389   1.894  16.883 -0.0198  0.1077 -0.1168
10325W        W12525  28.943   2.825  24.222 -0.0635  0.1740  0.0317
10326W        W12526  14.959   4.899  18.842  0.1296 -0.1338  0.0198
10327W        W12527  28.922   2.235   3.762  0.2076 -0.0779  0.2294
10328W        W12528   7.465   5.031  18.401 -0.0578  0.0235  0.0062
10329W        W12529  18.468   1.253  21.771 -0.0396  0.1776  0.1986
10330W        W12530  18.293   1.224  25.246 -0.1288 -0.3761 -0.0725
10331W        W12531  22.604   0.786   2.661  0.2531  0.2165 -0.0113
10332W        W12532   0.890   6.825  20.903  0.1987 -0.1557 -0.1868
10333W        W12533  29.518   1.927   9.724 -0.1351  0.1856  0.1301
10334W        W12534  28.877   2.977   0.414 -0.1624  0.2295  0.0812
10335W        W12535  15.234   2.789  20.302 -0.1341  0.1431 -0.2202
10336W        W12536  25.383   0.372  25.743  0.0045  0.1007  0.1787
10337W        W12537  14.782   4.409  18.705  0.0144  0.2334 -0.4433
10338W        W12538   3.503   0.098   8.092 -0.0768  0.1508 -0.0515
10339W        W12539   5.129   2.039   2.789 -0.0269 -0.0680  0.0017
10340W        W12540   4.409   1.523   0.492  0.1501 -0.1978 -0.0118
10341W        W12541   8.851   5.428   3.818  0.0590 -0.3645 -0.0066
10342W        W12542  22.236   5.885  25.213 -0.1640  0.1035 -0.0967
10343W        W12543  22.317   0.512  20.511  0.0449  0.1092 -0.2875
10344W        W12544  18.679   1.240   6.787 -0.0871 -0.0456 -0.1203
10345W        W12545  15.449   5.078  25.647 -0.0922 -0.3123  0.0502
10346W        W12546  18.158   6.826   2.008  0.0902 -0.1290 -0.0544
10347W        W12547   6.718   0.950  19.145  0.0209  0.0659 -0.1813
10348W        W12548  18.333   1.944   8.715 -0.1977 -0.1876 -0.1606
10349W        W12549  18.989   1.117  20.475  0.2295 -0.0084  0.1601
10350W        W12550  27.656   6.291  19.717 -0.1469  0.1845  0.2608
10351W        W12551   8.568   2.097  20.254  0.1295 -0.0320  0.4715
10352W        W12552  15.274   0.609  23.417  0.0252 -0.0979  0.0047
10353W        W12553   8.394   2.985   2.485  0.2062  0.2395  0.2411
10354W        W12554  11.993   5.337  25.926 -0.1420  0.1389 -0.1046
10355W        W12555  25.385   2.197   2.375  0.2775 -0.0128 -0.0352
10356W        W12556  27.035   1.109   8.916  0.0164 -0.1616  0.0980
10357W        W12557  18.121   0.289   2.130  0.0303 -0.1719  0.1719
10358W        W12558  24.800   2.018  24.420  0.2424 -0.3260  0.3145
10359W        W12559  13.194   6.143  21.298 -0.0371 -0.2773  0.0879
10360W        W12560  25.764   5.783   4.952  0.0240  0.0932 -0.3154
10361W        W12561  14.286   5.370   5.334  0.1279  0.0643  0.0392
10362W        W12562  10.868   0.982   3.233 -0.1681  0.1311 -0.2493
10363W        W12563  20.889   7.808  22.962 -0.0134  0.0172  0.2339
10364W        W12564  28.211   7.270  16.292 -0.1262  0.1090  0.2607
10365W        W12565  18.365   0.325  23.964 -0.0950 -0.0235 -0.1329
10366W        W12566   9.593   3.436  24.446 -0.2154 -0.3432  0.0682
10367W        W12567  15.693   6.118   8.043 -0.1759  0.3759  0.1356
10368W        W12568  27.771   1.950   6.980 -0.0693  0.0433 -0.3247
10369W        W12569  22.901   2.759  22.772 -0.0312  0.2575 -0.2273
10370W        W12570  23.957   6.393   3.058  0.0898 -0.2757 -0.2350
10371W        W12571   2.967   3.116  15.974 -0.0206  0.0699 -0.2770
10372W        W12572  26.152   5.877   5.314 -0.0128  0.1975  0.0064
10373W        W12573   9.205   5.785  10.765 -0.2664  0.0424  0.2354
10374W        W12574  23.318   3.832  22.623 -0.4167 -0.2209 -0.1200
10375W        W12575   4.448   6.966  19.824 -0.0191 -0.2113  0.0920
10376W        W12576   1.275   5.098  19.215 -0.0749  0.2314  0.2140
10377W        W12577  12.102   1.812  19.541  0.0380  0.0010 -0.2055
10378W        W12578  29.076   5.757   0.950 -0.1355  0.1462  0.0435
10379W        W12579   1.031   1.190  25.049 -0.1775  0.3048 -0.3200
10380W        W12580  12.535   0.863  22.041  0.2164  0.1013  0.1272
10381W        W12581   2.677   4.017  16.018  0.1038  0.0106  0.1942
10382W        W12582   4.123   1.548   0.990 -0.0328 -0.0553 -0.0194
10383W        W12583  11.992   5.910   3.430 -0.0530  0.1851  0.3490
10384W        W12584  11.062   6.010   3.277  0.0601 -0.4495 -0.1065
10385W        W12585   1.273   1.509  18.985 -0.0010 -0.1789 -0.2257
10386W        W12586   9.561   5.996   2.491 -0.0767  0.2550 -0.1900
10387W        W12587  19.821   6.038  19.965 -0.0064 -0.1981  0.2089
10388W        W12588  10.686   2.778  16.245  0.2334 -0.1588 -0.0592
10389W        W12589  25.935   3.264  16.479 -0.1275  0.1837 -0.2308
10390W        W12590  27.654   1.735  19.567  0.2230  0.1990 -0.1303
10391W        W12591   4.878   0.229  17.902 -0.0749  0.0349  0.0181
10392W        W12592  24.726   1.130   9.196  0.3302  0.2640  0.3617
10393W        W12593   1.892   1.027   4.965  0.4367 -0.2148 -0.3369
10394W        W12594  23.544   1.785  23.622 -0.0508  0.3129  0.1388
10395W        W12595  29.272   5.340  23.102  0.2253  0.3902  0.1098
10396W        W12596  13.990   7.290  17.722  0.0854  0.0666 -0.1736
10397W        W12597  14.656   5.786  22.044  0.0012 -0.2350 -0.0056
10398W        W12598  17.679   5.783  24.069  0.0422  0.0077  0.1901
10399W        W12599   6.997   6.641  21.966 -0.1033  0.0421  0.0777
10400W        W12600  30.366   4.792   5.898 -0.4001 -0.0645  0.2105
10401W        W12601  15.293   0.801  21.623  0.1285 -0.0796  0.5337
10402W        W12602  18.100   4.993   0.108  0.1215 -0.2005  0.0215
10403W        W12603  20.632   5.719  17.200  0.1053 -0.3547  0.1479
10404W        W12604  18.067   5.081  23.811 -0.0729  0.2367  0.2878
10405W        W12605  13.085   2.616  25.596  0.1862 -0.1437  0.0436
10406W        W12606  22.479   7.241  17.468  0.0292 -0.1097  0.0571
10407W        W12607  28.879   4.081   9.681 -0.2277  0.1300 -0.0909
10408W        W12608  12.553   3.002  15.164 -0.3447  0.0338  0.1134
10409W        W12609   9.792   6.893  18.205 -0.3373  0.1436 -0.0843
10410W        W12610  30.127   0.490  18.248 -0.3114 -0.3039  0.0030
10411W        W12611  20.040   1.872  15.947 -0.1708 -0.0867 -0.0499
10412W        W12612  15.439   5.005  20.739 -0.0012  0.0243  0.0577
10413W        W12613  30.689   2.976   6.091  0.0008  0.2511 -0.2562
10414W        W12614  14.612   1.445  24.277 -0.0172  0.1616 -0.2635
10415W        W12615   2.014   7.176   4.036 -0.0941  0.1510 -0.3968
10416W        W12616  30.980   6.085  24.289  0.1351 -0.1369 -0.2103
10417W        W12617  12.057   0.057   1.004 -0.1602 -0.1225  0.0562
10418W        W12618  20.806   5.056  24.230 -0.0060  0.3230 -0.3594
10419W        W12619  10.712   4.390  19.367 -0.0789  0.3645  0.0256
10420W        W12620  14.146   6.089  20.346 -0.1133  0.0224  0.3337
10421W        W12621  22.617   0.659   4.828 -0.0833  0.0319 -0.0399
10422W        W12622   7.085   1.301   0.024  0.0244 -0.0781 -0.2666
10423W        W12623   9.260   1.211   4.281 -0.1755 -0.0533  0.2340
10424W        W12624   2.684   1.207   5.182 -0.0557 -0.0795 -0.0273
10425W        W12625  23.339   4.668  15.774 -0.2561  0.3338  0.0522
10426W        W12626  23.478   1.426  19.576 -0.1227 -0.0067  0.2209
10427W        W12627  12.247   2.736   9.086 -0.1591 -0.1589 -0.0077
10428W        W12628   9.986   0.154  18.394 -0.0086  0.0917  0.1371
10429W        W12629  27.743   3.439  19.247  0.1386 -0.0439  0.2143
10430W        W12630  20.822   0.778  15.133  0.2525  0.1839 -0.0170
10431W        W12631   9.064   6.940  19.770  0.1801  0.1671  0.1359
10432W        W12632   2.745   0.076  17.821  0.0541  0.3103 -0.1293
10433W        W12633   2.505   0.118  11.123 -0.0904 -0.1232 -0.0612
10434W        W12634  30.020   5.057  21.732 -0.0672  0.0901 -0.0130
10435W        W12635  11.471   5.821   6.429  0.0094 -0.4755  0.2354
10436W        W12636  12.072   5.359  22.584  0.0884 -0.0479 -0.1651
10437W        W12637  10.349   3.768  24.371 -0.0853  0.0377 -0.0360
10438W        W12638  26.541   3.787  10.488  0.1091  0.1691  0.1203
10439W        W12639   3.658   0.638  20.066 -0.2289 -0.0320 -0.2999
10440W        W12640  13.121   7.415  15.832  0.0733  0.0538 -0.2754
10441W        W12641  28.445   3.314   4.186  0.1817 -0.0658  0.1962
10442W        W12642  10.547   3.410   2.194  0.0156 -0.3103 -0.1276
10443W        W12643  15.900   7.175   9.813 -0.1288  0.0420  0.1437
10444W        W12644   2.744   2.384  23.475 -0.0878  0.0701 -0.1315
10445W        W12645   0.384   1.350  18.652 -0.0208 -0.1090 -0.1006
10446W        W12646   4.917   4.788  24.276 -0.0825 -0.1521 -0.0071
10447W        W12647   5.808   4.590   4.718 -0.1237  0.2198 -0.0204
10448W        W12648  27.770   0.342  16.469  0.2182 -0.1117  0.1643
10449W        W12649   7.738   4.348  22.131 -0.0012 -0.0385 -0.1056
10450W        W12650  17.095   1.010  19.470 -0.1055 -0.0575 -0.2575
10451W        W12651  13.132   4.553  19.897  0.2007 -0.1917 -0.0364
10452W        W12652  22.291   4.330  20.696  0.0892  0.2656  0.1316
10453W        W12653   0.852   2.290  19.874  0.0463 -0.1729 -0.1854
10454W        W12654  17.315   0.228   8.292 -0.0821  0.0982 -0.0978
10455W        W12655   2.860   3.514  16.820  0.1011  0.0725  0.1609
10456W        W12656  30.751   2.926  14.911 -0.0390 -0.0811  0.0041
10457W        W12657   7.134   5.601   7.005 -0.2913  0.3367  0.0714
10458W        W12658   1.089   0.737   5.567 -0.0058  0.1866  0.1256
10459W        W12659  26.566   4.175   4.804  0.2955 -0.1791 -0.1588
10460W        W12660   8.561   1.417  15.542  0.0113 -0.1739  0.3603
10461W        W12661  21.363   4.459   3.443  0.0871  0.3590 -0.1984
10462W        W12662  21.307   5.594  24.615 -0.1755 -0.2653 -0.0598
10463W        W12663  30.195   0.879   5.298 -0.0303  0.0212 -0.1421
10464W        W12664  17.170   1.076  14.769  0.1316 -0.2304  0.1073
10465W        W12665  30.210   6.459   5.356 -0.2502 -0.0129  0.0192
10466W        W12666  26.449   6.101   8.488 -0.2244 -0.0873  0.0612
10467W        W12667  30.263   3.111   8.727  0.0331  0.0478  0.2439
10468W        W12668   6.595   3.356   2.103 -0.0280  0.1512 -0.0818
10469W        W12669   7.360   3.847  19.269  0.0616  0.0503 -0.1942
10470W        W12670  29.242   2.386   2.005 -0.3458  0.1588 -0.1083
10471W        W12671  23.867   6.232  18.970  0.1320  0.1218  0.0186
10472W        W12672  11.352   5.494   8.312  0.1484 -0.5057  0.1580
10473W        W12673  24.324   3.866  19.422  0.3822  0.1178  0.1067
10474W        W12674   9.549   3.896  24.810  0.3195  0.0370 -0.0982
10475W        W12675  20.049   4.774  26.027  0.0970 -0.0227 -0.1927
10476W        W12676  27.487   2.113   1.603 -0.0233 -0.3223 -0.2810
10477W        W12677  19.172   5.287   3.605 -0.1194 -0.1540 -0.2201
10478W        W12678   4.344   1.350  17.324 -0.1210  0.1868  0.0700
10479W        W12679   5.609   2.317  24.612 -0.0520 -0.1552 -0.0147
10480W        W12680   0.046   6.447   3.138 -0.1410  0.0887  0.2915
10481W        W12681  25.897   7.023  26.138  0.3280  0.0002  0.0569
10482W        W12682  18.054   1.022   6.197  0.0815  0.1246 -0.0226
10483W        W12683  29.093   7.720  25.379  0.0643  0.1005 -0.3311
10484W        W12684  26.540   5.815  10.312  0.0130 -0.2017  0.0662
10485W        W12685  10.975   0.611   0.183 -0.2034 -0.0814  0.2092
10486W        W12686  19.878   3.502  23.493  0.0669 -0.1807  0.1425
10487W        W12687   1.320   6.182   9.570  0.1651 -0.3397  0.0978
10488W        W12688  11.027   2.414  14.926 -0.0700 -0.2428 -0.0465
10489W        W12689  30.583   6.287  10.067  0.0239  0.0384 -0.3141
10490W        W12690  18.700   0.706   7.888 -0.1560  0.0531  0.3084
10491W        W12691  20.560   3.749  24.768 -0.2539  0.0014 -0.0368
10492W        W12692  28.487   7.164   0.218  0.2436  0.0681 -0.5394
10493W        W12693   1.182   5.246   0.249 -0.0049  0.0618 -0.1682
10494W        W12694  24.898   6.911   0.739  0.0537 -0.1980  0.1160
10495W        W12695  10.141   5.803  19.718 -0.1016  0.0101  0.0711
10496W        W12696  30.192   4.429  24.371  0.1417  0.1109 -0.0182
10497W        W12697  10.776   2.948   1.569 -0.1253  0.0217  0.1657
10498W        W12698   0.757   5.668  22.991 -0.2124  0.1775  0.0830
10499W        W12699  15.075   1.668  24.393 -0.0283 -0.1857  0.1470
10500W        W12700   9.468   6.039  23.936 -0.0183 -0.3344 -0.0988
10501W        W12701  25.507   4.330  19.424  0.3085 -0.2517  0.2214
10502W        W12702   7.083   6.454   5.892 -0.0806 -0.1540 -0.0507
10503W        W12703   7.186   7.733  15.994 -0.0633 -0.3586 -0.1376
10504W        W12704   2.931   2.883   2.495 -0.0773  0.2751 -0.0359
10505W        W12705  14.543   3.355   4.083 -0.0789  0.0133  0.1945
10506W        W12706  21.583   3.920  15.594  0.0639 -0.0702  0.1039
10507W        W12707  13.809   7.221  25.327  0.0790  0.0223  0.2760
10508W        W12708   3.856   3.456  23.124 -0.0943  0.0793 -0.2529
10509W        W12709  24.121   3.249   0.564  0.3332 -0.1334  0.1112
10510W        W12710  15.481   4.086   6.499 -0.0913 -0.1920 -0.0055
10511W        W12711  12.040   4.154   1.607  0.1953  0.1559  0.1086
10512W        W12712  28.217   3.642   0.063  0.0765  0.0843 -0.0297
10513W        W12713   0.525   0.514  23.692 -0.0013 -0.1218 -0.2363
10514W        W12714   2.435   1.312   9.671  0.0668 -0.1092 -0.2072
10515W        W12715  10.869   1.535   4.794  0.2266  0.0021 -0.4224
10516W        W12716  22.254   5.310   5.385 -0.0548 -0.1681 -0.0166
10517W        W12717   5.846   0.971  16.516  0.2579 -0.0178 -0.1040
10518W        W12718  24.883   3.670   7.941  0.1561 -0.0670  0.2697
10519W        W12719  12.288   6.697  18.305 -0.0517  0.0963  0.2258
10520W        W12720  11.393   0.703   6.116  0.1798 -0.1754 -0.1040
10521W        W12721   5.869   7.235  19.007  0.0454  0.2483  0.2315
10522W        W12722  18.713   1.012   5.091  0.1111  0.1805  0.1593
10523W        W12723  27.678   4.581  19.205 -0.0551 -0.1130 -0.1287
10524W        W12724  17.287   7.391  17.152  0.3443 -0.0157 -0.0193
10525W        W12725  17.962   4.435   2.753 -0.3106  0.3299  0.0852
10526W        W12726  30.575   1.472   8.189 -0.1862  0.3258  0.0805
10527W        W12727  30.649   5.838   0.887 -0.0383 -0.0683 -0.0600
10528W        W12728  15.080   2.691   2.345  0.2154  0.0690  0.2806
10529W        W12729  18.468   2.111  23.098  0.0922 -0.3912  0.2834
10530W        W12730  26.015   4.055  16.566  0.1002  0.3051 -0.1723
10531W        W12731   4.586   4.812  17.283  0.0731 -0.2367 -0.0860
10532W        W12732   7.827   5.332  15.782  0.2309 -0.0794 -0.0733
10533W        W12733   1.869   5.845  20.905  0.2888  0.1332  0.1509
10534W        W12734  11.438   4.584   9.786  0.0017  0.0800 -0.0726
10535W        W12735  12.120   0.859   8.935 -0.0860  0.0547 -0.2069
10536W        W12736  27.772   0.429  25.024  0.0187 -0.0652 -0.1174
10537W        W12737  17.091   7.143  21.070 -0.1608  0.1487 -0.2120
10538W        W12738   2.094   2.651  16.069 -0.1348 -0.1219 -0.0950
10539W        W12739  27.865   1.225   9.004 -0.0516 -0.1170 -0.0944
10540W        W12740   6.281   3.230   1.672  0.2473  0.2063  0.0121
10541W        W12741  17.025   0.686   3.600  0.0751  0.0358  0.2332
10542W        W12742  26.109   2.941   3.337  0.3620  0.6115 -0.1393
10543W        W12743   4.008   3.385  16.098  0.0046 -0.0488  0.0566
10544W        W12744  20.422   4.055  17.306 -0.1613  0.0854  0.2570
10545W        W12745  10.090   4.898  15.656  0.0660  0.1095 -0.1019
10546W        W12746  15.232   5.830   6.037  0.2208  0.1470  0.1209
10547W        W12747  20.708   3.228  21.673 -0.0096 -0.1388  0.0871
10548W        W12748  24.684   0.719  21.387 -0.1578  0.3190  0.2821
10549W        W12749   2.615   6.171  17.261 -0.0577 -0.0755 -0.2527
10550W        W12750  21.520   5.877   0.234  0.1133  0.3546  0.2329
10551W        W12751  21.767   4.789   0.189 -0.0236  0.1396 -0.2683
10552W        W12752   0.201   6.698   6.823  0.1183 -0.0653 -0.0555
10553W        W12753  28.258   4.937  17.915  0.0906 -0.0152 -0.1823
10554W        W12754  23.166   7.436  10.296  0.3500  0.1097  0.0639
10555W        W12755  22.556   6.027   5.760 -0.1424 -0.1481  0.0337
10556W        W12756  26.718   6.305   2.489 -0.2078 -0.0776  0.2133
10557W        W12757  21.893   6.861   8.043 -0.5092 -0.1897 -0.2671
10558W        W12758   1.873   4.329  20.907 -0.3571  0.0468  0.0374
10559W        W12759  25.534   3.871  16.662 -0.1014 -0.1371  0.1705
10560W        W12760   3.338   3.794  20.676 -0.0848  0.1758  0.2053
10561W        W12761  11.981   0.252   5.685  0.3861 -0.2236  0.1913
10562W        W12762   3.370   7.097   2.242 -0.2603  0.1324  0.1615
10563W        W12763  23.971   4.900   2.024  0.3299 -0.2865  0.0209
10564W        W12764  26.906   6.797  10.335  0.0968 -0.0149  0.3322
10565W        W12765   7.549   4.958   8.734 -0.1759  0.0618 -0.2592
10566W        W12766  21.173   2.138  22.309 -0.0235  0.0920 -0.3178
10567W        W12767  30.563   6.392   8.178 -0.1162  0.0681 -0.2965
10568W        W12768  18.161   7.342  14.906 -0.2771 -0.0506 -0.3719
10569W        W12769   6.662   6.012   1.398 -0.0998 -0.0592  0.0665
10570W        W12770  29.007   4.094   5.991 -0.0226  0.1771  0.1412
10571W        W12771   9.317   0.287   8.566 -0.3723 -0.2852  0.0482
10572W        W12772   5.665   2.502  25.095 -0.0050  0.0703  0.0074
10573W        W12773  20.987   5.866  19.329 -0.0665 -0.0767  0.1706
10574W        W12774  14.273   2.443   2.388 -0.3258 -0.3475  0.1199
10575W        W12775  12.110   2.558  14.941  0.0704 -0.6473  0.0908
10576W        W12776   6.662   0.972  24.469  0.0607  0.0684  0.3638
10577W        W12777   2.231   3.988  25.652 -0.0895  0.2894  0.1744
10578W        W12778  27.218   6.392  20.544 -0.0853  0.1014  0.0544
10579W        W12779   2.037   2.058   8.026  0.3465 -0.0658 -0.3157
10580W        W12780  27.222   5.871  16.412  0.0048 -0.1993  0.3008
10581W        W12781  27.373   2.093   0.125 -0.1883  0.0294  0.2685
10582W        W12782  11.785   1.558   3.663  0.2611 -0.3290  0.0642
10583W        W12783  28.457   6.143  15.563 -0.2614  0.0785 -0.1185
10584W        W12784   6.872   3.593   9.947  0.0337  0.1322  0.0202
10585W        W12785  26.344   6.187  24.787 -0.0256 -0.3612  0.0204
10586W        W12786  27.049   5.518  24.498 -0.2182  0.1714  0.0927
10587W        W12787  27.905   1.849  21.250  0.0849 -0.0708  0.4316
10588W        W12788  19.069   4.905   0.433  0.0398 -0.2622 -0.5099
10589W        W12789   0.519   6.391   2.003 -0.1774  0.1289  0.1521
10590W        W12790   7.730   3.205  21.355 -0.1994  0.0121 -0.0481
10591W        W12791  23.992   3.466  18.587 -0.1037 -0.3056 -0.1624
10592W        W12792  17.754   7.571   8.710 -0.0442 -0.2643  0.1776
10593W        W12793  23.328   5.661  26.138 -0.0504 -0.0573 -0.1790
10594W        W12794  16.062   2.409   3.438  0.0437 -0.2179  0.1658
10595W        W12795  13.610   0.381   0.097 -0.1345  0.0071  0.0656
10596W        W12796  13.747   3.935   9.378  0.0368 -0.1285 -0.2912
10597W        W12797  24.505   6.205  11.610 -0.0439 -0.0249 -0.1393
10598W        W12798  14.943   5.432   3.708 -0.1970  0.0827  0.0327
10599W        W12799  26.969   3.730   9.381  0.1649  0.2315 -0.0681
10600W        W12800   6.748   6.549  21.168  0.1095  0.1910 -0.3030
10601W        W12801   7.771   3.105   3.753 -0.0871 -0.0409  0.1047
10602W        W12802  31.038   6.099  17.520  0.2713 -0.0771  0.1564
10603W        W12803   0.843   2.832   5.961  0.2928  0.0108 -0.1129
10604W        W12804  15.327   6.303  17.627  0.2370  0.0705  0.1474
10605W        W12805  22.559   4.572  24.383 -0.0241  0.2313  0.0154
10606W        W12806  17.438   5.938   1.981 -0.2006 -0.1031 -0.0900
10607W        W12807  27.111   1.425   1.284  0.0254 -0.0277  0.0340
10608W        W12808   6.821   5.955  22.546 -0.0961 -0.0519  0.3076
10609W        W12809  20.858   2.743   7.599  0.0498 -0.1908  0.1411
10610W        W12810  20.930   4.994   4.551 -0.0521 -0.0818  0.0163
10611W        W12811  31.255   3.368  18.056  0.0319  0.1106 -0.1734
10612W        W12812  20.532   1.789   5.198 -0.0848  0.0252  0.1709
10613W        W12813  26.361   2.334  25.674 -0.0296 -0.3802  0.0858
10614W        W12814  29.731   5.915   2.151 -0.0774  0.1806  0.0071
10615W        W12815  26.890   4.513  14.563  0.2903  0.0684  0.1797
10616W        W12816   0.494   0.390  22.240  0.2931  0.1795  0.0371
10617W        W12817   6.431   5.174   9.505 -0.3084  0.1402 -0.0221
10618W        W12818  17.056   5.907  18.650 -0.1060 -0.0714  0.1561
10619W        W12819   0.881   0.819   4.484  0.1470 -0.2770 -0.2816
10620W        W12820  22.723   7.311  25.283  0.0531 -0.0964  0.0249
10621W        W12821   0.239   5.129   8.227 -0.0859  0.1006 -0.0507
10622W        W12822  28.418   7.698  23.809 -0.0373  0.2793  0.1587
10623W        W12823  24.147   6.585  21.043 -0.2912 -0.0085 -0.2511
10624W        W12824  26.542   2.218   4.552  0.0921 -0.0530 -0.1119
10625W        W12825  15.476   7.423   8.068 -0.1536  0.0661  0.6129
10626W        W12826  23.513   0.222   7.505 -0.1073  0.0831 -0.1669
10627W        W12827  24.023   7.741   8.796  0.1282 -0.1629 -0.1816
10628W        W12828  20.925   4.086   0.641 -0.2808 -0.1121 -0.1609
10629W        W12829  15.579   5.322  23.239 -0.1349  0.2100 -0.0236
10630W        W12830   0.159   6.401  20.472  0.1209  0.1695 -0.2321
10631W        W12831   1.881   6.161  18.713 -0.1774  0.0120  0.2238
10632W        W12832  25.956   5.252   2.937 -0.1554  0.3316  0.1985
10633W        W12833  30.899   6.540   7.624 -0.1008  0.0317 -0.0377
10634W        W12834  22.963   2.543   5.111 -0.2916 -0.0967 -0.0230
10635W        W12835  29.389   2.517  23.496  0.0301  0.2338  0.1589
10636W        W12836   8.955   5.711  10.336  0.0474 -0.1363  0.2055
10637W        W12837   7.219   2.610   3.764  0.2650  0.1073  0.1668
10638W        W12838  28.504   7.307  22.774 -0.0166  0.1021 -0.0404
10639W        W12839  31.071   5.513  10.794 -0.4291 -0.2179  0.0244
10640W        W12840  20.893   1.457  23.533  0.4529 -0.2345  0.0320
10641W        W12841  19.883   3.438   2.033 -0.3039  0.1384 -0.1835
10642W        W12842  23.005   2.189  23.505 -0.0106  0.2492 -0.0593
10643W        W12843  25.128   5.284  18.050  0.2929  0.1198 -0.0059
10644W        W12844   2.195   0.025  25.711  0.0562  0.1334 -0.1353
10645W        W12845  14.754   2.481  20.412 -0.2459 -0.4567  0.1512
10646W        W12846  26.183   6.259  22.819 -0.1863 -0.0098 -0.0387
10647W        W12847  27.691   0.932   2.022  0.1327  0.1064 -0.0636
10648W        W12848   0.181   3.929  19.780 -0.2038  0.1385  0.1917
10649W        W12849   4.662   2.877   3.829 -0.1709  0.0284 -0.0266
10650W        W12850  29.127   0.197   8.832  0.0257 -0.1977  0.0935
10651W        W12851  10.156   2.563  25.864 -0.0721 -0.1178 -0.1958
10652W        W12852  24.658   5.918  15.899  0.2226 -0.0511 -0.1052
10653W        W12853  15.731   0.811   9.693 -0.0200  0.0586  0.0515
10654W        W12854  27.300   1.395  19.408  0.0532  0.2233  0.0339
10655W        W12855  13.856   1.538  23.737  0.3782  0.0490 -0.0041
10656W        W12856  27.276   3.071   0.419 -0.3063  0.0726 -0.2413
10657W        W12857  16.906   2.331   5.959  0.1799  0.0272  0.2082
10658W        W12858   2.199   7.652   2.357  0.2530 -0.1643  0.0136
10659W        W12859  28.886   4.094   0.246 -0.2632 -0.2204  0.2144
10660W        W12860  20.782   2.550  25.805 -0.2690  0.1063 -0.1829
10661W        W12861   4.367   1.930  18.560 -0.0556  0.3494 -0.0497
10662W        W12862  27.564   4.834   1.910 -0.0998  0.2322 -0.0815
10663W        W12863  19.132   1.638   9.294  0.1068 -0.1215  0.2244
10664W        W12864  16.940   5.725  20.882 -0.0377 -0.0122  0.1143
10665W        W12865  16.896   1.382  21.980  0.2963 -0.1849  0.0119
10666W        W12866  31.205   7.522  23.039 -0.0859 -0.0480  0.0497
10667W        W12867  25.357   4.760   1.309  0.2169 -0.0218  0.1375
10668W        W12868  20.009   5.805   1.324  0.1921  0.1419 -0.1624
10669W        W12869   9.910   6.587  25.642  0.1141 -0.1317  0.1245
10670W        W12870   3.024   5.395   2.225 -0.2018  0.1856  0.0094
10671W        W12871  18.830   7.435  22.786 -0.1192  0.1508  0.1241
10672W        W12872  13.775   4.015  25.365  0.1093  0.1165  0.0825
10673W        W12873   6.181   4.788  19.380  0.2789 -0.1018 -0.3035
10674W        W12874   1.253   1.923  24.239 -0.1159 -0.0190  0.2454
10675W        W12875   2.132   2.507  19.249  0.2923  0.0775  0.1328
10676W        W12876  27.794   2.469   5.818 -0.2238  0.0166  0.0819
10677W        W12877  21.436   3.295   0.836  0.0006  0.1218  0.1056
10678W        W12878   6.733   1.624   5.916 -0.0165  0.1264  0.1609
10679W        W12879  19.206   5.929  20.569  0.0441  0.0118 -0.0652
10680W        W12880   6.533   2.307   4.870  0.0712  0.1010 -0.0165
10681W        W12881   1.634   5.025  16.675 -0.0605 -0.0329  0.3444
10682W        W12882  26.741   1.507  18.080  0.1456  0.3586 -0.0026
10683W        W12883   4.074   7.097  21.043  0.0168  0.1732 -0.4699
10684W        W12884  16.590   6.749   4.426 -0.0805  0.1242  0.1364
10685W        W12885   9.863   2.900   9.670 -0.0848  0.1442 -0.1776
10686W        W12886   5.259   3.861   8.012  0.0951  0.1692 -0.0342
10687W        W12887  28.159   7.328   7.363 -0.0148 -0.0549 -0.2619
10688W        W12888  14.579   3.312  24.575 -0.1329  0.2261 -0.1638
10689W        W12889  16.512   3.083   2.316 -0.1313  0.2632  0.0182
10690W        W12890  28.038   1.253   1.423 -0.1473  0.0558 -0.1649
10691W        W12891  30.697   6.343   6.669 -0.2864 -0.1054  0.1724
10692W        W12892   3.083   2.391  20.186  0.0414  0.1691 -0.1242
10693W        W12893  25.020   0.828   6.406  0.0370  0.0500  0.0526
10694W        W12894   1.040   1.020  17.673  0.0724  0.0608  0.3747
10695W        W12895  19.111   3.684  23.519  0.0073 -0.4808 -0.0768
10696W        W12896  16.597   5.767   0.131 -0.1465 -0.0386  0.2776
10697W        W12897  30.231   5.100   7.803 -0.2791 -0.0260 -0.0480
10698W        W12898   6.647   6.123  23.060  0.1699 -0.0223 -0.0382
10699W        W12899   4.412   0.680   9.081  0.2160 -0.1275 -0.1393
10700W        W12900  14.578   5.433  21.448 -0.3021 -0.0930  0.2648
10701W        W12901   7.674   2.202  21.551  0.2652  0.0170  0.0653
10702W        W12902   7.083   2.356  15.665 -0.3548 -0.1052 -0.1502
10703W        W12903  12.897   6.218  10.388  0.1957  0.1813  0.2499
10704W        W12904  21.469   0.503  20.072  0.0155  0.0767  0.3259
10705W        W12905   4.295   0.669   2.994 -0.2847  0.0938  0.2320
10706W        W12906  11.679   4.982   9.458  0.1156  0.0282  0.1595
10707W        W12907  13.902   2.406   9.789  0.2434  0.0707 -0.1170
10708W        W12908  21.196   4.560   4.536  0.0881 -0.1963 -0.1075
10709W        W12909  22.726   6.553  17.231 -0.2416  0.1807  0.3923
10710W        W12910   4.437   4.824  19.220 -0.1152  0.0421 -0.2054
10711W        W12911  31.185   4.870  21.860 -0.1054  0.0521 -0.0643
10712W        W12912   6.151   0.748  10.311 -0.1253 -0.1571  0.2887
10713W        W12913  28.161   2.659  16.528  0.0722  0.1341  0.1353
10714W        W12914  19.024   4.880   6.858  0.3188  0.1068 -0.4255
10715W        W12915  20.990   5.952  20.363  0.0285 -0.3582  0.3253
10716W        W12916  19.017   6.601  15.913 -0.2979  0.4045 -0.1563
10717W        W12917  14.608   5.323  10.042 -0.1736  0.0858  0.0238
10718W        W12918  21.745   2.756   2.480 -0.4464 -0.0469  0.0702
10719W        W12919   1.579   7.592  21.610 -0.0462  0.1626  0.0742
10720W        W12920   7.900   0.019   0.393 -0.1117  0.1501  0.3042
10721W        W12921  30.509   5.509  25.715  0.0790 -0.2575  0.2293
10722W        W12922  30.291   5.274   4.798  0.1116  0.1319  0.4225
10723W        W12923  22.988   3.405  17.072  0.0145  0.0776  0.1593
10724W        W12924  18.586   4.316   6.514  0.1609  0.0938  0.0928
10725W        W12925  29.433   0.429  25.631 -0.2818  0.0519  0.0853
10726W        W12926   7.611   6.738  10.218  0.1171 -0.1804 -0.1857
10727W        W12927   8.265   5.375  19.791  0.0850  0.0283 -0.0166
10728W        W12928  28.627   0.199  22.630 -0.3732 -0.0294 -0.0944
10729W        W12929   3.944   6.266   3.494 -0.1006 -0.0738 -0.0482
10730W        W12930  11.523   4.585   6.672 -0.0474 -0.1940 -0.0977
10731W        W12931   8.148   6.160  21.547 -0.0308  0.1378  0.1515
10732W        W12932  30.217   3.625  23.553  0.2234  0.2299 -0.1023
10733W        W12933  15.460   7.626  22.213  0.2003 -0.0088  0.0603
10734W        W12934   0.009   5.200  17.400  0.0223  0.1490 -0.2226
10735W        W12935  13.548   7.172  16.019 -0.1341 -0.1678  0.1438
10736W        W12936   1.299   3.512   9.298  0.0249  0.1382  0.1349
10737W        W12937  10.053   5.824  16.647 -0.0752  0.1153  0.0581
10738W        W12938   7.918   2.533  19.180 -0.0268 -0.1117 -0.0003
10739W        W12939  17.689   3.795  26.004 -0.0111  0.2037 -0.1435
10740W        W12940   7.766   6.281  17.367 -0.2053  0.2064 -0.2292
10741W        W12941  12.037   2.314  21.265 -0.1989  0.0084  0.0128
10742W        W12942  28.327   6.556  20.511 -0.2093 -0.0400  0.1899
10743W        W12943  26.255   1.690  22.788 -0.2254  0.3403 -0.0385
10744W        W12944  10.427   0.244   7.512 -0.0527  0.2448  0.1528
10745W        W12945  21.239   5.102  20.508  0.0971 -0.1475 -0.0870
10746W        W12946   2.278   0.111   3.843 -0.3242  0.0214  0.2533
10747W        W12947  23.652   3.866  18.625 -0.0134 -0.0431  0.0841
10748W        W12948  21.916   4.532   1.109  0.1328  0.1443 -0.1549
10749W        W12949   9.807   7.078   4.428 -0.2835  0.5533 -0.2247
10750W        W12950   4.755   7.410   3.660 -0.1499  0.0368 -0.0803
10751W        W12951  12.220   0.091  22.215 -0.0689 -0.0421 -0.0615
10752W        W12952  18.805   2.387   0.910  0.0074 -0.0992  0.1645
10753W        W12953  24.289   1.397  24.848  0.0225  0.1122 -0.2293
10754W        W12954  29.466   5.948  11.021 -0.2383  0.1110 -0.2557
10755W        W12955  27.402   3.197   8.580  0.2012  0.0352 -0.1638
10756W        W12956  19.618   2.263   9.441 -0.0217  0.2546 -0.0197
10757W        W12957  20.842   0.050   4.520 -0.1641  0.2960  0.0201
10758W        W12958   2.439   0.982   3.880  0.1132  0.1586 -0.0702
10759W        W12959  29.817   5.825   4.487  0.1118 -0.0990  0.0375
10760W        W12960   1.493   2.160  19.733 -0.0334 -0.1199 -0.3970
10761W        W12961  22.407   5.118  26.099  0.2495  0.2310 -0.1078
10762W        W12962  12.869   4.836  10.713 -0.0035 -0.2191  0.3575
10763W        W12963   9.671   0.764  18.383  0.1636  0.2080  0.0847
10764W        W12964  11.974   3.057  16.205 -0.1449  0.4393  0.2598
10765W        W12965   9.322   5.286  16.286  0.0508 -0.1730 -0.0205
10766W        W12966   4.005   4.306   8.215 -0.0519  0.2743 -0.1949
10767W        W12967  23.442   3.544   7.312 -0.0344 -0.2271 -0.3998
10768W        W12968  23.904   4.914  18.918  0.0862  0.2433  0.0065
10769W        W12969  12.696   0.694   7.134 -0.2308 -0.0621  0.3401
10770W        W12970  14.039   0.876   2.506  0.0783 -0.3531  0.1375
10771W        W12971   2.439   3.871  17.571  0.1880  0.0690  0.0049
10772W        W12972  14.845   4.474  19.925 -0.3070  0.1965  0.1052
10773W        W12973  31.097   0.224  23.111  0.1604 -0.3170 -0.0345
10774W        W12974  14.827   2.818   5.491  0.0492  0.0354  0.1008
10775W        W12975  22.289   3.096  24.619  0.0764  0.3783 -0.3480
10776W        W12976  15.940   5.313   4.699  0.0544 -0.2481  0.0593
10777W        W12977  17.204   3.773  21.062  0.2237 -0.3808  0.0991
10778W        W12978  14.009   3.388   8.831  0.0190  0.0125 -0.1999
10779W        W12979   8.397   3.478  21.791 -0.2676  0.0865 -0.0673
10780W        W12980  31.022   1.665   7.891  0.0705  0.1252 -0.0154
10781W        W12981  14.205   3.211   4.987 -0.2378  0.1141 -0.1136
10782W        W12982   9.504   7.007   6.884 -0.2491 -0.1412 -0.0228
10783W        W12983  11.302   4.658   1.216 -0.1841  0.2613 -0.1427
10784W        W12984  21.781   2.397  10.166 -0.0140  0.0255 -0.0649
10785W        W12985  21.296   7.508   6.057 -0.0869  0.4412 -0.2572
10786W        W12986  19.934   6.614   6.112  0.1292  0.2275  0.1676
10787W        W12987  24.509   7.117  15.597 -0.0647 -0.0039  0.3082
10788W        W12988  25.762   6.422   5.859  0.2463  0.0760  0.0038
10789W        W12989   8.790   3.894   0.339  0.2093  0.0388 -0.2630
10790W        W12990   6.500   7.358   3.212 -0.1503  0.1690  0.0775
10791W        W12991  28.158   7.441  11.153 -0.0330  0.0613  0.1307
10792W        W12992  22.530   6.904  20.941 -0.0878 -0.0288  0.3733
10793W        W12993  16.963   6.076  18.144 -0.2485  0.2428 -0.2779
10794W        W12994  15.297   2.283  18.330  0.2073  0.2823 -0.2653
10795W        W12995  27.880   2.393  20.106 -0.0459 -0.2719  0.0545
10796W        W12996   8.761   6.435   2.461  0.0952 -0.0253 -0.1892
10797W        W12997  17.122   6.797  25.093  0.3171  0.0431  0.0053
10798W        W12998  20.440   3.816   8.537  0.0022  0.1298 -0.0468
10799W        W12999  18.842   2.818  15.929 -0.0969 -0.1398  0.1179
10800W        W13000   7.884   6.069  16.316 -0.0320 -0.0250  0.1019
10801W        W13001  10.995   7.532  19.546 -0.1620 -0.1213 -0.0487
10802W        W13002  23.373   2.653   8.305  0.0541  0.0922  0.0691
10803W        W13003  10.892   1.088  18.320 -0.0055 -0.1212  0.0686
10804W        W13004  16.554   0.487   1.090 -0.1917 -0.0127 -0.0130
10805W        W13005  11.808   3.273  20.352 -0.2515 -0.1127 -0.1880
10806W        W13006  28.596   3.974   3.227  0.0355  0.0007 -0.2848
10807W        W13007   8.616   5.494  10.041  0.2895  0.1141 -0.1928
10808W        W13008  10.945   3.833  21.670 -0.2347 -0.2041 -0.1316
10809W        W13009  22.261   2.308  21.806 -0.1389  0.1305 -0.2793
10810W        W13010  17.923   4.271  24.909  0.0265  0.1801  0.0141
10811W        W13011  24.427   5.594  19.924  0.0252  0.1103  0.0461
10812W        W13012  25.656   4.428  16.686  0.2610  0.1237  0.1500
10813W        W13013  20.056   1.568   9.306  0.1840 -0.0954 -0.0583
10814W        W13014  13.072   1.165  16.105  0.0843  0.0402 -0.0542
10815W        W13015   1.721   6.125  21.818 -0.1197  0.0912  0.0431
10816W        W13016  12.984   4.537   2.695 -0.5526 -0.0295  0.1809
10817W        W13017  29.343   1.371  21.102  0.0926 -0.1420 -0.1729
10818W        W13018  10.243   5.385   8.805  0.2270 -0.1831  0.1790
10819W        W13019  15.870   2.795  21.141  0.0067 -0.1977 -0.0948
10820W        W13020  26.481   1.685  18.462 -0.0162 -0.1593  0.1641
10821W        W13021  18.272   3.893  16.540  0.1695 -0.0477  0.0553
10822W        W13022  29.001   6.376  18.411  0.0819  0.3580  0.0931
10823W        W13023  16.128   6.684  25.329  0.1247 -0.0219 -0.1149
10824W        W13024  22.840   1.867  20.504 -0.3623 -0.0756  0.1351
10825W        W13025  20.710   0.946   9.415  0.0718 -0.0759  0.0177
10826W        W13026  21.184   1.598  19.569 -0.1201  0.4725 -0.3867
10827W        W13027  15.060   3.261  16.607 -0.0490  0.2542  0.1526
10828W        W13028   1.307   6.793   9.661 -0.3113  0.4490 -0.1930
10829W        W13029  31.203   0.126   4.857 -0.0484  0.0569 -0.0536
10830W        W13030  17.249   7.332   6.599  0.1584 -0.0469  0.1862
10831W        W13031  15.438   6.752  15.745  0.2560 -0.0246  0.2768
10832W        W13032  13.932   1.413  15.474 -0.1330  0.0763  0.2059
10833W        W13033  10.886   4.201  19.868 -0.1814  0.0157  0.0440
10834W        W13034  26.524   3.500   6.389 -0.2023 -0.1470 -0.0388
10835W        W13035   9.174   1.899   1.487  0.0155  0.2455 -0.1443
10836W        W13036   0.918   5.754  19.862  0.0423 -0.4085 -0.3020
10837W        W13037  13.183   1.156  21.138 -0.1064 -0.1432 -0.0362
10838W        W13038  17.510   5.265  20.368  0.1156 -0.0117  0.0281
10839W        W13039  14.036   4.643  15.853  0.1835  0.0798 -0.2366
10840W        W13040  18.945   3.055   7.495 -0.0370 -0.1252 -0.2072
10841W        W13041  14.776   1.553  16.643 -0.1380 -0.0476 -0.2887
10842W        W13042  18.674   3.229   5.835  0.0997 -0.5115 -0.1024
10843W        W13043  26.803   3.032  24.460 -0.0522 -0.2749 -0.0791
10844W        W13044  22.472   7.215   0.323  0.4874  0.3085 -0.0574
10845W        W13045   2.065   1.306   4.481 -0.1741 -0.0496  0.1172
10846W        W13046  20.248   6.073  23.141 -0.0323 -0.1239  0.0267
10847W        W13047  30.698   5.239   2.693  0.0576  0.1845  0.0228
10848W        W13048   0.377   6.595  17.324  0.1971  0.1461 -0.0445
10849W        W13049   4.092   3.055   1.838 -0.2416  0.0351  0.0905
10850W        W13050  23.406   0.115  15.924  0.0132 -0.2460 -0.0546
10851W        W13051   3.416   2.559   9.827  0.0117 -0.1502  0.0635
10852W        W13052   0.391   5.406  25.248 -0.1325  0.0899  0.0931
10853W        W13053  13.141   2.920  17.730 -0.0135  0.1268 -0.0332
10854W        W13054   2.790   7.076  23.069 -0.0719 -0.1616 -0.2704
10855W        W13055  18.460   6.818   6.522  0.2427  0.1104  0.0316
10856W        W13056  15.306   7.734   3.326  0.2179  0.2237 -0.2120
10857W        W13057   0.696   1.232  24.580  0.1501  0.0322  0.0885
10858W        W13058  28.397   3.486   3.668  0.1020 -0.1876  0.1316
10859W        W13059  16.236   4.418  19.896  0.0455  0.0332  0.1106
10860W        W13060  13.328   0.793  19.256 -0.0442  0.2163  0.0034
10861W        W13061   7.432   7.742   5.001 -0.2830 -0.0129 -0.0119
10862W        W13062   1.701   5.105  21.260 -0.1553 -0.1068 -0.1256
10863W        W13063  11.845   3.505   4.314  0.1076 -0.0985  0.0846
10864W        W13064  20.465   5.700   6.599 -0.0604 -0.0181  0.2891
10865W        W13065   3.180   4.205  10.524  0.2501  0.0012  0.0055
10866W        W13066  11.790   0.989   2.307  0.0381 -0.1892  0.1275
10867W        W13067  11.371   0.217  17.049  0.1435 -0.1481 -0.1080
10868W        W13068  27.437   7.371  22.445  0.1847 -0.0536  0.2271
10869W        W13069   4.600   4.225   8.714  0.1670 -0.0962  0.1122
10870W        W13070  18.997   6.152   6.637 -0.0221 -0.2643 -0.1071
10871W        W13071  25.065   5.799  15.638 -0.0112 -0.1903 -0.0305
10872W        W13072  15.546   5.423   3.051  0.0698 -0.1090  0.1260
10873W        W13073  25.004   3.312   5.053 -0.1138 -0.1133  0.3018
10874W        W13074  27.592   3.497   0.261  0.1634  0.0028  0.0344
10875W        W13075  20.223   2.516  16.395 -0.1046  0.1925 -0.2238
10876W        W13076   9.102   6.483   9.362  0.0234 -0.1310 -0.1344
10877W        W13077   4.365   2.201  23.420  0.0237  0.0124  0.2374
10878W        W13078  12.075   5.596   0.503 -0.0385  0.0642 -0.2131
10879W        W13079  25.924   6.740  11.247 -0.1740 -0.1345 -0.1125
10880W        W13080  27.638   1.086  24.371  0.7286  0.1526  0.4716
10881W        W13081  26.261   5.350  21.719  0.0413  0.1578 -0.2391
10882W        W13082  20.209   5.010   3.089 -0.1264 -0.0155  0.2733
10883W        W13083  25.556   2.914  17.359  0.0257 -0.3114  0.2427
10884W        W13084   6.696   4.650   4.766 -0.0395  0.1354  0.3415
10885W        W13085  26.058   6.788   5.548 -0.0547 -0.0992  0.0029
10886W        W13086  14.874   4.978  19.633 -0.1196  0.5037 -0.2536
10887W        W13087  25.789   4.673   0.137 -0.5230 -0.0953 -0.1827
10888W        W13088  16.127   3.731  17.777 -0.2161  0.0685  0.0247
10889W        W13089   0.319   6.080   3.410 -0.3550  0.0497 -0.2344
10890W        W13090  18.772   4.337   9.110 -0.0160  0.3219  0.0386
10891W        W13091  24.428   4.596   3.388 -0.2557  0.2378 -0.0179
10892W        W13092  12.323   2.107  22.698 -0.2368  0.0789  0.2255
10893W        W13093   6.774   0.369   9.333 -0.1505  0.0046 -0.0380
10894W        W13094  26.506   2.696  24.689 -0.2244  0.3768 -0.3577
10895W        W13095  21.060   5.123  15.936 -0.1589 -0.2351  0.0702
10896W        W13096   8.262   5.045  18.800  0.1429  0.1818 -0.2256
10897W        W13097   2.555   4.039  21.202  0.1951  0.1470  0.0310
10898W        W13098  28.542   1.863  25.367  0.1431 -0.0279  0.1950
10899W        W13099   8.011   6.940  18.749 -0.0866 -0.1291  0.0734
10900W        W13100  20.948   3.074   5.670 -0.0023  0.1338 -0.2482
10901W        W13101  23.967   1.936   1.956  0.6637  0.0113 -0.2786
10902W        W13102   2.971   0.635   1.372 -0.1225  0.1710  0.5961
10903W        W13103  23.434   4.065   2.803 -0.1831 -0.1531 -0.2088
10904W        W13104  16.330   0.592  10.244  0.1270  0.0226  0.3063
10905W        W13105  20.666   5.935   7.648 -0.0303 -0.1063 -0.0366
10906W        W13106  22.844   1.595   5.278 -0.2867 -0.1521  0.1186
10907W        W13107   1.745   3.848   2.755 -0.1601 -0.1663 -0.3331
10908W        W13108  21.614   7.621  23.999 -0.0473  0.1940  0.2650
10909W        W13109  13.547   1.211   9.047 -0.2232  0.2320 -0.1279
10910W        W13110  26.755   5.640  22.546  0.0986 -0.3021 -0.1215
10911W        W13111  21.852   7.366  10.231  0.2368  0.0411  0.2668
10912W        W13112   7.923   3.147  16.291 -0.4305 -0.0146 -0.2728
10913W        W13113  17.763   2.903   2.961 -0.2484  0.0042  0.0662
10914W        W13114  10.306   2.667  16.541  0.0784  0.1336 -0.1041
10915W        W13115  23.539   7.007  14.829  0.1398  0.0894  0.0943
10916W        W13116  14.557   4.356   6.716 -0.4119  0.0033  0.1147
10917W        W13117  11.887   5.800  22.704 -0.1610  0.0890 -0.2867
10918W        W13118  12.214   3.416  17.913  0.1514 -0.2893  0.1230
10919W        W13119   4.847   5.357  16.550  0.1465  0.1030  0.0242
10920W        W13120  12.935   5.433  23.966 -0.0306  0.1186 -0.0874
10921W        W13121   6.886   2.109  22.232 -0.0878 -0.2232 -0.0582
10922W        W13122  24.952   0.619   5.322  0.0049  0.1205 -0.3089
10923W        W13123   4.149   7.780  24.893  0.0183  0.2935 -0.3610
10924W        W13124  26.553   0.761   7.289  0.2138 -0.0484 -0.2663
10925W        W13125  30.467   3.989   2.855  0.0326  0.2355  0.0781
10926W        W13126  17.942   0.399  20.957  0.0683 -0.1804  0.1542
10927W        W13127  12.250   0.758   2.996 -0.3356  0.3166  0.0257
10928W        W13128  10.666   1.661   2.739 -0.4284  0.2940  0.4013
10929W        W13129  15.333   6.265  19.202 -0.4514 -0.1131  0.2304
10930W        W13130   9.976   7.354   1.598  0.0144 -0.3003  0.3098
10931W        W13131   5.486   7.756  10.721  0.0641  0.0533 -0.0104
10932W        W13132  12.208   1.350  24.303  0.2584 -0.2964  0.0968
10933W        W13133  15.641   6.711  22.426  0.4305 -0.3614  0.1615
10934W        W13134  29.143   6.125  20.315 -0.1032 -0.1109  0.0477
10935W        W13135  10.820   7.028  16.349  0.1323  0.0777  0.4188
10936W        W13136  12.052   0.919  20.100  0.0514 -0.0650 -0.2159
10937W        W13137  11.324   4.872  21.344 -0.3464  0.2490  0.0331
10938W        W13138  14.990   2.988  18.105 -0.1217 -0.0220  0.3764
10939W        W13139   7.103   3.885  19.710 -0.0503 -0.2671  0.0832
10940W        W13140  14.755   0.394   1.756 -0.0616  0.1147 -0.0510
10941W        W13141   3.972   5.881  23.744 -0.0354  0.2775 -0.0358
10942W        W13142  27.080   1.122  18.384  0.0593 -0.0342  0.1606
10943W        W13143   7.844   2.874  24.503  0.1862  0.2453 -0.1161
10944W        W13144   6.075   3.479  19.712  0.2608  0.1815  0.1003
10945W        W13145  22.515   1.626   5.717 -0.1936 -0.1062  0.0108
10946W        W13146  13.208   6.978   2.446  0.1244 -0.4659  0.2541
10947W        W13147  27.415   2.236   6.651  0.0536  0.0433  0.2790
10948W        W13148  12.157   2.343   7.333  0.0205  0.3787 -0.0006
10949W        W13149   1.791   6.145   2.569 -0.0240 -0.1363  0.0888
10950W        W13150  12.608   6.206  23.748 -0.1079 -0.0048  0.2890
10951W        W13151   2.821   4.633   2.072  0.0454  0.0445 -0.3762
10952W        W13152  22.014   5.227   4.780 -0.0688  0.2894  0.1914
10953W        W13153  17.859   6.797   6.531  0.0539  0.0891  0.0078
10954W        W13154  13.895   2.534  25.936  0.0574 -0.1681  0.2432
10955W        W13155  25.493   0.598   8.352 -0.0356 -0.1018 -0.0939
10956W        W13156  20.627   7.233   9.269 -0.1722 -0.2045  0.1692
10957W        W13157  21.316   5.244  18.213  0.2676  0.0277 -0.1983
10958W        W13158  27.461   7.206  26.011  0.0765 -0.0286  0.2095
10959W        W13159   8.419   4.197  24.079 -0.2155  0.0566  0.0204
10960W        W13160  13.964   2.135   7.684 -0.1071 -0.3140  0.0930
10961W        W13161  17.517   3.964   4.533 -0.0599 -0.0849 -0.1247
10962W        W13162  15.035   5.259   2.871 -0.0583  0.0349  0.1851
10963W        W13163  18.230   5.717   8.890 -0.1912 -0.1222 -0.2314
10964W        W13164  19.253   2.602   6.868 -0.0850  0.0148  0.0208
10965W        W13165  10.288   5.502  14.380 -0.1478  0.0990 -0.4419
10966W        W13166  12.232   1.935  11.575  0.0686  0.1896  0.3984
10967W        W13167  28.955   0.016  18.187 -0.0931  0.0989  0.0670
10968W        W13168  15.915   1.506  19.019  0.1638  0.0182  0.0766
10969W        W13169  25.335   1.102  19.771 -0.0175 -0.1159  0.1397
10970W        W13170  31.286   3.014   9.458 -0.0542  0.3312 -0.0393
10971W        W13171  11.621   2.817   4.917 -0.0535 -0.0207  0.0811
10972W        W13172  12.215   4.146   2.056  0.0457  0.0139  0.0224
10973W        W13173  13.542   4.156   3.835 -0.1803  0.3590 -0.0748
10974W        W13174  12.964   1.934   9.177 -0.0820 -0.1064  0.1981
10975W        W13175  25.802   7.645   7.966 -0.1665 -0.0751 -0.0052
10976W        W13176  17.914   4.047   9.091  0.2423  0.0985 -0.1598
10977W        W13177   3.304   7.264  25.987 -0.1360  0.3980  0.0663
10978W        W13178  12.775   2.326  10.320  0.0819 -0.0096  0.3610
10979W        W13179  21.632   6.791  22.864  0.1170  0.0286  0.1928
10980W        W13180  29.707   1.557   9.457  0.1880  0.3652  0.2869
10981W        W13181   4.882   3.372  20.262  0.0744  0.0941  0.1330
10982W        W13182  13.341   0.920  23.545 -0.0735  0.1231  0.0663
10983W        W13183  16.926   1.091   8.135 -0.3240  0.2140  0.1115
10984W        W13184  30.591   0.559  22.329 -0.0873 -0.3736  0.1000
10985W        W13185   8.025   7.762  17.291  0.1382  0.1745  0.0251
10986W        W13186  27.722   2.370  21.318  0.2418  0.0404 -0.0158
10987W        W13187  24.291   6.786  25.630 -0.0895 -0.0904  0.0205
10988W        W13188   2.156   3.529  15.458  0.2908 -0.0887 -0.2225
10989W        W13189  26.231   6.731  10.357 -0.0750  0.1373  0.1994
10990W        W13190  25.366   2.392  16.481  0.0235  0.0504 -0.1636
10991W        W13191  15.991   2.616   4.302 -0.0177 -0.0799  0.0603
10992W        W13192   5.143   4.506  22.396 -0.1056  0.1105 -0.1392
10993W        W13193  30.017   5.076  10.982  0.0493 -0.2033  0.2058
10994W        W13194  27.755   7.198  25.058  0.1511 -0.3326  0.2172
10995W        W13195  22.588   0.769  16.676  0.1654 -0.0503 -0.0539
10996W        W13196  30.641   5.849   4.198  0.0054  0.0148 -0.0007
10997W        W13197  13.323   6.291  23.249 -0.0086  0.4170  0.0858
10998W        W13198   6.197   3.166   1.182  0.3076 -0.0591  0.1634
10999W        W13199   7.772   4.861   7.288  0.1122 -0.2264  0.1742
11000W        W13200   5.537   4.638   2.452  0.1941  0.1547 -0.0701
11001W        W13201   4.134   2.000  20.149  0.1548  0.0563 -0.2523
11002W        W13202  14.008   1.944  20.322  0.0513  0.3490 -0.0255
11003W        W13203   6.308   0.124  24.945  0.1043  0.1135 -0.1181
11004W        W13204  15.326   6.359   2.912 -0.2107 -0.0698  0.0828
11005W        W13205  29.420   2.359  16.682 -0.1187  0.0648  0.2972
11006W        W13206  22.083   2.846  16.826 -0.2518 -0.1133 -0.1014
11007W        W13207  22.444   7.174  18.961 -0.0410 -0.0528 -0.1926
11008W        W13208   4.935   1.001   1.732  0.1760  0.2790  0.0285
11009W        W13209  29.449   6.297  18.093  0.1834  0.0674  0.1508
11010W        W13210  24.130   0.449  10.029 -0.1644 -0.1437 -0.2360
11011W        W13211  28.016   3.355  20.887 -0.1114 -0.4373  0.2516
11012W        W13212   8.686   1.027  15.792  0.1020  0.1443  0.0961
11013W        W13213  18.082   0.218   4.962  0.3091  0.0459 -0.0643
11014W        W13214  22.079   7.361  22.452 -0.2529 -0.1706  0.1865
11015W        W13215  16.481   7.455  24.545  0.4244 -0.1152 -0.1044
11016W        W13216  20.191   6.212   7.886 -0.0493 -0.0621  0.1345
11017W        W13217  17.285   3.453   3.756  0.0515 -0.4784 -0.0256
11018W        W13218  12.352   1.524   1.911  0.2392  0.0170  0.0343
11019W        W13219  28.965   7.658  20.289  0.0119  0.1102  0.1669
11020W        W13220  17.562   5.286  17.470 -0.1060 -0.2751  0.0629
11021W        W13221   2.197   3.436  17.622 -0.1675  0.2393  0.1547
11022W        W13222  12.896   0.477  18.362 -0.0981  0.4436 -0.2099
11023W        W13223  12.231   7.786   8.996 -0.3222  0.3223 -0.1094
11024W        W13224   9.895   0.984  23.303  0.1346 -0.3000  0.1302
11025W        W13225  21.852   0.533  16.995  0.0681 -0.0911 -0.1166
11026W        W13226  16.669   2.611   7.323 -0.0527  0.0387 -0.1862
11027W        W13227  27.754   3.981   0.093  0.3740  0.1170 -0.2373
11028W        W13228   6.959   3.514   6.375 -0.4268  0.3720  0.0303
11029W        W13229  16.459   6.527  24.234 -0.2033 -0.0830 -0.1040
11030W        W13230  25.682   6.877  21.775  0.0051  0.4158  0.0880
11031W        W13231   0.536   3.600   5.654  0.2560  0.0129  0.2592
11032W        W13232   4.844   1.431   7.177  0.0954 -0.1528 -0.0952
11033W        W13233  19.823   4.454   1.830  0.2835 -0.1375 -0.1308
11034W        W13234  27.293   7.233  20.258  0.2123  0.1436  0.0939
11035W        W13235  22.914   2.489   0.084  0.0842 -0.0881 -0.0542
11036W        W13236   9.555   5.913   4.200 -0.0427 -0.0277  0.0380
11037W        W13237   4.271   2.465  23.952 -0.1303  0.0193 -0.0494
11038W        W13238  28.893   7.027   6.532  0.2120 -0.0584 -0.0857
11039W        W13239  15.900   0.800   5.057 -0.2206  0.2772  0.0913
11040W        W13240   7.531   4.466   4.129 -0.1746  0.0717 -0.1154
11041W        W13241   9.025   1.990   4.577  0.1635 -0.0178 -0.0069
11042W        W13242   5.912   2.487   2.861  0.0411 -0.2147  0.0947
11043W        W13243   8.126   1.536   2.074 -0.3572  0.1942  0.1504
11044W        W13244   6.478   1.304  17.598  0.1811  0.0586  0.0452
11045W        W13245   0.947   0.490  21.991  0.3545  0.0038 -0.0372
11046W        W13246   2.048   0.474  25.896 -0.0664  0.1069 -0.0752
11047W        W13247   9.106   0.941  25.803  0.0763 -0.0542 -0.0931
11048W        W13248  19.794   7.052   5.935  0.1349  0.0309 -0.2032
11049W        W13249  23.007   3.559   8.268 -0.4190  0.1378 -0.1636
11050W        W13250  21.469   3.769  22.510 -0.1243  0.0718 -0.1538
11051W        W13251   9.801   4.529  21.797 -0.0478  0.1310  0.1267
11052W        W13252  26.036   3.360  26.012  0.0207  0.2334  0.1917
11053W        W13253  12.418   4.506   8.215  0.0265 -0.1039 -0.0317
11054W        W13254   1.675   1.139   3.812 -0.1198  0.0698  0.3315
11055W        W13255   6.973   6.751   6.665  0.0184  0.0885 -0.0595
11056W        W13256  19.604   7.688  18.321  0.0868 -0.0094  0.3614
11057W        W13257  16.245   2.714  23.934  0.0810 -0.1090 -0.4990
11058W        W13258  27.421   0.084  15.080  0.0824 -0.1524  0.0930
11059W        W13259  18.469   7.672   0.433  0.0580 -0.3569  0.0530
11060W        W13260   8.659   3.020  24.522 -0.0732 -0.1156 -0.0599
11061W        W13261  27.779   2.790  10.908  0.0728 -0.3545 -0.1528
11062W        W13262   6.261   0.888  16.284  0.4071  0.0450  0.2702
11063W        W13263   5.796   2.489  23.847  0.2416 -0.3205  0.2807
11064W        W13264  20.408   6.964   0.650 -0.0672  0.1460 -0.2638
11065W        W13265  30.590   2.686  21.700 -0.1272  0.2507 -0.2215
11066W        W13266   6.219   1.384  16.611 -0.0970  0.0958  0.2467
11067W        W13267  10.527   3.539   7.951 -0.0581  0.0241 -0.2809
11068W        W13268  30.162   0.174  24.104 -0.3780 -0.0530  0.3462
11069W        W13269  28.741   3.939   8.040 -0.1089 -0.0610  0.1969
11070W        W13270   3.750   4.551  10.156  0.0292  0.0689 -0.1926
11071W        W13271  24.710   5.511   6.225 -0.0644 -0.1125  0.1086
11072W        W13272  21.673   1.700  25.497 -0.0151  0.1025  0.0019
11073W        W13273  23.016   3.022   8.260  0.0491  0.1067  0.2318
11074W        W13274  12.563   3.976  16.269 -0.1019  0.0077  0.4092
11075W        W13275   6.874   2.467   2.834  0.0408 -0.0880 -0.0496
11076W        W13276  11.018   2.039   4.740 -0.1792 -0.0385 -0.1056
11077W        W13277  14.356   1.261   4.033  0.2563 -0.1410  0.1375
11078W        W13278  22.827   5.856  20.726  0.0523 -0.0000  0.3240
11079W        W13279  26.930   2.073  15.540 -0.1472  0.0477  0.2047
11080W        W13280  24.125   6.594   9.923  0.0477  0.0149 -0.5163
11081W        W13281  28.362   4.388  20.350 -0.0900  0.2139  0.4918
11082W        W13282   8.730   1.897  23.704  0.0688  0.0713  0.0195
11083W        W13283  18.326   5.727  22.854  0.0544 -0.0892 -0.1197
11084W        W13284  22.874   3.084  20.101  0.0296  0.0549 -0.0072
11085W        W13285  14.235   2.313  16.495  0.0459 -0.0509 -0.0381
11086W        W13286  24.488   0.280   8.056 -0.1990  0.2313  0.1363
11087W        W13287   0.062   2.388   6.345  0.0158 -0.3957 -0.0175
11088W        W13288  15.174   7.694  21.253 -0.0359 -0.0088 -0.0937
11089W        W13289   9.299   3.873   2.848  0.1742  0.2622  0.1586
11090W        W13290  12.730   6.564  10.026  0.2694  0.3048 -0.0330
11091W        W13291  19.705   3.262   2.473 -0.2729 -0.0483  0.2183
11092W        W13292  16.031   1.915   2.408  0.2160  0.0647  0.0690
11093W        W13293   3.175   6.791  20.769  0.2093 -0.0848 -0.2394
11094W        W13294   5.032   7.115  23.195 -0.0999 -0.1480  0.0564
11095W        W13295  22.088   7.651   7.036  0.0590 -0.0338  0.3093
11096W        W13296  11.025   0.306  25.070 -0.4169 -0.2323 -0.0663
11097W        W13297  28.715   2.038   4.757 -0.1278 -0.1637 -0.1129
11098W        W13298  21.083   5.068  16.873 -0.0359 -0.1024 -0.2366
11099W        W13299  12.022   3.297  17.229 -0.0937  0.0348 -0.2361
11100W        W13300  15.114   7.669  17.559 -0.0717  0.0168 -0.3854
11101W        W13301  29.383   2.135   1.588 -0.1466 -0.0438 -0.2151
11102W        W13302   8.709   5.056   4.163 -0.1462  0.0530 -0.2573
11103W        W13303   6.243   3.796  23.901  0.2616  0.1427 -0.0686
11104W        W13304   7.762   1.152  16.871  0.3728 -0.2268 -0.1646
11105W        W13305  24.038   4.160  22.706  0.1404 -0.1328  0.3354
11106W        W13306   5.139   6.604   7.757 -0.2358 -0.1501  0.1444
11107W        W13307  15.656   0.736   7.193  0.1256 -0.2290  0.1353
11108W        W13308  15.747   1.656   2.785  0.0118  0.2150  0.1482
11109W        W13309  24.783   0.068  17.335 -0.1748  0.0784 -0.0975
11110W        W13310  30.858   0.593  11.056  0.0458 -0.0629  0.1689
11111W        W13311  24.070   5.460   6.202  0.0854 -0.2793 -0.0092
11112W        W13312   6.478   5.674  22.776 -0.3191  0.1059  0.3878
11113W        W13313  15.488   1.175  26.111  0.0313  0.2917 -0.2504
11114W        W13314  28.467   1.409   4.032  0.0409 -0.1663 -0.0586
11115W        W13315  17.377   5.525  17.053  0.0205 -0.3389 -0.1205
11116W        W13316  28.678   3.038   2.230 -0.2628  0.1961 -0.1852
11117W        W13317   8.561   6.223   9.231 -0.0714 -0.0789 -0.1088
11118W        W13318  28.238   7.705   8.454  0.0222 -0.1804 -0.0769
11119W        W13319   5.931   2.986  20.480  0.3260 -0.2935  0.2918
11120W        W13320  14.981   7.075  19.094  0.2826 -0.0907  0.1290
11121W        W13321  19.741   0.646   7.967 -0.3045 -0.0207 -0.1426
11122W        W13322  20.542   7.570  23.338 -0.0743  0.0041  0.0056
11123W        W13323   8.787   4.316   6.831 -0.2598 -0.0582 -0.0208
11124W        W13324  30.869   5.800  23.906  0.1361 -0.0473  0.2433
11125W        W13325   3.925   3.491   5.895 -0.1202  0.0986 -0.2552
11126W        W13326  20.816   2.341   5.141 -0.2506  0.2262 -0.0004
11127W        W13327  17.834   7.637  17.170 -0.3013  0.1342 -0.1960
11128W        W13328  10.184   3.819   0.623  0.0527  0.1258 -0.0594
11129W        W13329  31.064   6.334  15.865 -0.1476 -0.0229 -0.1902
11130W        W13330   9.245   3.865  22.041  0.0904 -0.1068  0.1060
11131W        W13331   5.415   0.954  16.871 -0.0257 -0.1798 -0.1377
11132W        W13332  12.221   4.239  10.232 -0.2509 -0.0801 -0.0249
11133W        W13333  24.725   1.592  24.758 -0.1206  0.0054 -0.0065
11134W        W13334   2.299   0.201  24.702 -0.1343 -0.1172  0.4545
11135W        W13335  16.804   4.286  20.337 -0.1291 -0.0098 -0.0046
11136W        W13336   4.927   6.356  22.474 -0.2377  0.0046  0.0921
11137W        W13337  14.802   1.519  23.743 -0.1965  0.0100 -0.1756
11138W        W13338  24.674   6.798   1.876  0.1883 -0.0692 -0.0185
11139W        W13339  19.153   4.078  19.190  0.0188  0.2842  0.4829
11140W        W13340  21.687   4.547  22.841 -0.0100  0.1680  0.0639
11141W        W13341   1.009   1.524  20.406  0.0907 -0.0686  0.1502
11142W        W13342  26.221   0.710  10.385 -0.1173 -0.2251 -0.1928
11143W        W13343  22.012   1.454   5.859  0.3608 -0.1360  0.2710
11144W        W13344  20.360   4.976  15.530 -0.2404 -0.0724  0.0258
11145W        W13345   4.290   5.435  11.092  0.0925 -0.2599  0.1004
11146W        W13346   9.227   2.279   1.907 -0.2225 -0.2715  0.0805
11147W        W13347   3.398   1.922  16.983  0.1835  0.1050 -0.3044
11148W        W13348  21.592   0.020   7.140  0.3025 -0.2375  0.2925
11149W        W13349  19.869   5.909  22.268 -0.0095  0.0502 -0.3495
11150W        W13350  30.992   4.438  11.418 -0.3735  0.1787  0.2910
11151W        W13351  19.011   7.684   4.834  0.0926  0.1055  0.0231
11152W        W13352   1.578   2.054   6.290 -0.0851  0.2487 -0.0844
11153W        W13353   8.379   5.991  20.356 -0.0554  0.1865 -0.0652
11154W        W13354   7.591   3.268  16.685 -0.1256  0.1486 -0.3719
11155W        W13355  10.192   2.728   3.840 -0.2527  0.0717  0.0389
11156W        W13356   2.639   5.053   6.489  0.3629 -0.0414  0.0773
11157W        W13357  18.509   5.700   3.708  0.0433 -0.0222 -0.0384
11158W        W13358   5.509   7.639  21.140  0.1305  0.0577 -0.0246
11159W        W13359  14.589   3.371  16.668  0.3591 -0.0614 -0.0985
11160W        W13360   2.835   7.618   1.633  0.0137 -0.2534  0.1965
11161W        W13361  21.686   1.037   5.732  0.0494  0.1351  0.0093
11162W        W13362   4.507   6.690   1.120  0.0192 -0.1294  0.0411
11163W        W13363  10.672   4.065  17.422 -0.3215  0.0477 -0.0344
11164W        W13364  28.822   6.388  24.099  0.3398 -0.0619  0.0325
11165W        W13365  17.529   7.250   4.671 -0.1913 -0.2417 -0.1324
11166W        W13366  20.767   1.774  17.511  0.0210 -0.0558  0.0057
11167W        W13367  16.211   3.713  10.046  0.1415 -0.0314  0.1587
11168W        W13368  28.060   7.826  17.042  0.0720  0.0101  0.1211
11169W        W13369  13.299   1.517   9.727 -0.2318  0.2099 -0.0917
11170W        W13370  12.251   7.608   7.387 -0.0814  0.0541  0.2218
11171W        W13371  25.877   7.191   4.864  0.0525  0.0779 -0.1862
11172W        W13372   1.168   5.857  22.373  0.1656 -0.2068 -0.3211
11173W        W13373  30.957   5.331   2.209  0.1543 -0.0522  0.4039
11174W        W13374  13.679   5.398  11.306  0.0323 -0.0767 -0.0817
11175W        W13375  24.107   7.027   4.114 -0.0792  0.3619  0.1749
11176W        W13376  23.875   0.853   8.099 -0.2050 -0.2807 -0.1980
11177W        W13377  18.889   6.249  20.933 -0.1937 -0.2666  0.1882
11178W        W13378   7.021   4.107  23.189  0.0484  0.0575 -0.5180
11179W        W13379   9.563   1.341   3.718  0.4740 -0.0032 -0.0465
11180W        W13380   8.907   7.393   0.438  0.0769  0.1601  0.0033
11181W        W13381  12.099   3.785  10.556  0.1646  0.1377 -0.0583
11182W        W13382  11.064   5.565   7.128  0.0406  0.2597 -0.0212
11183W        W13383  25.187   2.984  22.260  0.1538  0.0370 -0.1977
11184W        W13384  16.764   1.826  18.779 -0.2135  0.2616  0.1405
11185W        W13385   0.468   2.262   1.056  0.2134  0.3380 -0.0369
11186W        W13386  11.922   3.244   2.173 -0.1090  0.1135 -0.2120
11187W        W13387  16.366   1.287   1.070  0.0535 -0.3181  0.1801
11188W        W13388   9.240   4.036  25.198 -0.6768 -0.4680 -0.1139
11189W        W13389   6.320   2.872  18.333 -0.0637 -0.2697  0.1012
11190W        W13390  27.749   5.096  21.749 -0.3930  0.1018  0.1865
11191W        W13391  26.540   4.075  24.963  0.2940 -0.0531  0.2630
11192W        W13392  12.357   4.469  23.313  0.0002  0.0481  0.0599
11193W        W13393  18.003   2.367   8.479 -0.3105 -0.3834  0.1913
11194W        W13394   5.035   6.735   1.952  0.0364 -0.1620 -0.3162
11195W        W13395  13.039   6.797  15.975  0.2053  0.1356  0.2883
11196W        W13396  24.547   1.587  19.625  0.1234 -0.0491  0.0391
11197W        W13397   6.188   0.088   8.020  0.1673 -0.1113  0.0557
11198W        W13398  13.474   0.432   4.884  0.1441 -0.0322  0.2384
11199W        W13399  30.850   7.052   5.936  0.0574  0.0459  0.1801
11200W        W13400  11.322   0.595  20.504  0.0653  0.3218  0.1268
11201W        W13401  29.743   6.431  25.994 -0.2311  0.0039 -0.2548
11202W        W13402  10.152   7.027  16.941 -0.0924 -0.0055 -0.0778
11203W        W13403  24.381   6.493   8.187 -0.0746  0.0506  0.0326
11204W        W13404  23.117   4.274  10.334  0.1716  0.0030 -0.0346
11205W        W13405  27.088   6.474   5.342  0.0656 -0.2069  0.1379
11206W        W13406  12.550   1.683   5.632  0.1306 -0.2540 -0.0259
11207W        W13407  10.544   3.668  18.914 -0.1119  0.2073 -0.2625
11208W        W13408  14.958   2.081   2.905 -0.1155  0.0651  0.0222
11209W        W13409  23.536   6.113  18.291 -0.1521  0.2161 -0.1258
11210W        W13410   1.713   7.736  17.846  0.0057 -0.1522  0.0998
11211W        W13411  23.175   3.466  24.749  0.0270  0.2192  0.1117
11212W        W13412  25.527   7.552  23.489 -0.2533  0.1823 -0.1816
11213W        W13413  27.962   2.800  25.457  0.0438  0.0791  0.1384
11214W        W13414  12.922   2.385  15.350 -0.0842 -0.0423 -0.1121
11215W        W13415   1.534   4.604  21.150  0.2525  0.0765 -0.1628
11216W        W13416  10.790   2.705   7.892 -0.0857 -0.0202 -0.0893
11217W        W13417  26.670   4.441   6.313 -0.0992 -0.1814  0.3229
11218W        W13418  18.828   3.159  10.021  0.0852  0.1436 -0.0125
11219W        W13419   6.684   5.710   5.383 -0.0202 -0.0578  0.2521
11220W        W13420  18.074   3.838  24.138 -0.2402 -0.0215  0.1165
11221W        W13421  23.067   0.067  22.176  0.1335  0.0510 -0.0830
11222W        W13422   0.355   1.556  10.457 -0.0010  0.0461 -0.1719
11223W        W13423  13.090   2.616   1.937  0.0345  0.0937  0.1331
11224W        W13424  28.091   2.879  21.898 -0.1208 -0.2056 -0.0981
11225W        W13425  11.377   6.875   7.752  0.3875  0.1796 -0.3227
11226W        W13426   8.907   6.053   7.680  0.1826  0.2794 -0.0358
11227W        W13427  19.056   7.683  21.548 -0.1003 -0.1261  0.0322
11228W        W13428   6.042   3.845  16.965 -0.0641  0.2382 -0.1170
11229W        W13429   8.010   2.563  21.615  0.0174 -0.2928 -0.1540
11230W        W13430  28.347   6.185  25.098  0.0738  0.3396 -0.1247
11231W        W13431  27.031   4.128  19.566 -0.2671 -0.0299 -0.3387
11232W        W13432   7.115   2.955   2.103  0.2389 -0.1265 -0.0141
11233W        W13433   5.021   3.378  19.798 -0.1242  0.1653  0.3046
11234W        W13434  19.410   2.555  20.067 -0.4185  0.0125 -0.1192
11235W        W13435   7.768   7.264   7.001  0.1623  0.0648 -0.1990
11236W        W13436  26.653   5.316  19.202  0.0376  0.2159 -0.0708
11237W        W13437   1.204   5.564  23.798  0.1925 -0.0341 -0.2762
11238W        W13438  20.816   7.085  18.345  0.1888  0.4166 -0.0261
11239W        W13439  12.588   7.174  22.774  0.1307 -0.0994 -0.2808
11240W        W13440   2.754   3.975  18.485 -0.1205  0.0552 -0.2370
11241W        W13441  11.848   3.179  26.127 -0.2319  0.1658  0.0490
11242W        W13442  11.072   2.052   2.234  0.0378 -0.0284  0.1111
11243W        W13443   1.845   7.318  23.041  0.0688 -0.0263  0.0047
11244W        W13444  27.210   5.207  18.106 -0.2305  0.2748 -0.5832
11245W        W13445   7.609   1.382  18.752  0.2918 -0.0465  0.0872
11246W        W13446   6.151   7.636  24.299  0.1547  0.0112  0.3210
11247W        W13447  14.191   1.607  21.208  0.2496 -0.0514 -0.0694
11248W        W13448   4.543   6.638   1.645  0.0020  0.0587  0.0190
11249W        W13449   3.233   5.843   5.416 -0.2924  0.1175 -0.0696
11250W        W13450  29.449   2.767   2.742 -0.3417  0.1882 -0.0976
11251W        W13451  15.809   7.486   0.335 -0.1696 -0.0475 -0.0646
11252W        W13452  26.674   0.846   3.660  0.0328 -0.0410 -0.1606
11253W        W13453  18.029   6.139   5.207 -0.1352  0.0941  0.0706
11254W        W13454  30.043   2.524   8.761  0.0663 -0.0366 -0.0081
11255W        W13455  20.337   6.648  18.913  0.0893  0.1281  0.5096
11256W        W13456  13.817   1.891   1.870 -0.1348 -0.1912 -0.1532
11257W        W13457  17.360   6.430   3.273 -0.0417 -0.1112  0.3602
11258W        W13458  23.631   1.664   2.276  0.3078  0.0149 -0.1747
11259W        W13459  15.528   3.736  17.690  0.1329 -0.2063 -0.1507
11260W        W13460   7.734   1.060  19.288  0.2359  0.3115 -0.1259
11261W        W13461  25.988   1.506   7.718 -0.2775  0.2038  0.0640
11262W        W13462   1.133   5.707  25.351 -0.2171 -0.0228  0.1368
11263W        W13463   0.212   5.298  20.642  0.1147 -0.3024  0.1249
11264W        W13464  23.330   4.626  16.610  0.3239 -0.1475  0.0900
11265W        W13465  29.986   7.556   9.865  0.1553 -0.0939 -0.1960
11266W        W13466   8.858   7.141   9.152  0.1125  0.0539  0.0652
11267W        W13467  29.500   0.431   0.015 -0.0656  0.0817  0.1558
11268W        W13468   2.923   3.910   7.447 -0.0444  0.2831 -0.0082
11269W        W13469   0.163   6.472   6.371  0.0973  0.2274  0.0721
11270W        W13470  30.686   6.885   7.932  0.3532 -0.1442  0.0985
11271W        W13471  11.983   6.556   1.267 -0.1132  0.2262 -0.3102
11272W        W13472  22.851   0.747  22.941  0.1099 -0.2763  0.3027
11273W        W13473   8.936   0.637  23.321  0.0141 -0.0120  0.0659
11274W        W13474  15.719   7.263  16.465 -0.0139  0.1220 -0.0521
11275W        W13475   2.192   1.765  22.950 -0.1409 -0.1197  0.0555
11276W        W13476  15.855   6.710   7.426  0.5716  0.1146 -0.0642
11277W        W13477   4.371   5.613  16.891 -0.2103  0.0153 -0.0213
11278W        W13478  29.284   6.281   2.250 -0.1382 -0.0475  0.0384
11279W        W13479  11.319   5.008  19.864 -0.1220  0.0664  0.2162
11280W        W13480  16.778   4.724  16.157 -0.0840 -0.0087 -0.2456
11281W        W13481   8.805   3.033   2.720  0.1735  0.3208 -0.4647
11282W        W13482  19.544   6.342  17.149 -0.0913 -0.0698 -0.0544
11283W        W13483  24.418   6.024   3.700 -0.0783  0.2414 -0.1002
11284W        W13484  13.262   7.815  21.965  0.2609  0.1253 -0.3177
11285W        W13485  26.058   1.430   7.184 -0.1005  0.0167  0.1239
11286W        W13486  22.881   7.028  17.620 -0.3296  0.2544 -0.0344
11287W        W13487  29.442   6.230   6.799 -0.2113  0.1229 -0.1654
11288W        W13488  17.835   1.255  25.211  0.1193 -0.2316  0.0413
11289W        W13489  14.717   6.330  23.767 -0.0312 -0.2536 -0.2006
11290W        W13490   0.575   6.255   6.065 -0.0586 -0.2144  0.0383
11291W        W13491   6.634   1.094   3.239  0.0579  0.2495  0.1431
11292W        W13492  30.195   0.037   9.447 -0.0041  0.2156 -0.0957
11293W        W13493  11.362   0.421   1.583 -0.1183 -0.0284 -0.2929
11294W        W13494  27.177   4.321   2.616 -0.0057 -0.0773  0.1236
11295W        W13495   6.563   0.357  20.392 -0.2399  0.0932 -0.0180
11296W        W13496  25.109   0.892   0.976  0.0442 -0.0749  0.0310
11297W        W13497   6.007   4.957  16.231 -0.2648  0.1548 -0.0045
11298W        W13498  20.588   6.693  25.146  0.0451 -0.1265  0.1038
11299W        W13499  16.847   1.694   2.711 -0.2160  0.0040 -0.1224
11300W        W13500  10.839   1.444   8.383  0.0277 -0.0223  0.0045
11301W        W13501   6.597   6.715  20.730  0.1562 -0.0280 -0.2357
11302W        W13502  28.531   7.625  16.113  0.0743 -0.3022  0.4125
11303W        W13503  30.571   0.486   5.321 -0.0334  0.0824 -0.1102
11304W        W13504  27.289   0.288  17.595 -0.1718 -0.1089  0.0508
11305W        W13505  22.922   1.014  10.902  0.1861 -0.0934 -0.0027
11306W        W13506  10.459   1.059  19.829 -0.0311  0.1270  0.0071
11307W        W13507  20.195   3.845   2.081  0.2309 -0.0449  0.0647
11308W        W13508  18.578   2.561  23.864  0.1501  0.0438 -0.1562
11309W        W13509   3.551   6.808   0.562  0.0809 -0.0353 -0.2756
11310W        W13510   7.422   3.837   8.197  0.1717  0.0599  0.1025
11311W        W13511  27.298   0.991   7.664 -0.1085  0.1737  0.2069
11312W        W13512  27.263   3.098  16.951  0.2466  0.2079 -0.1397
11313W        W13513  20.534   7.803   3.388 -0.0341 -0.2278  0.2133
11314W        W13514   3.881   5.403   0.395 -0.2355 -0.2486 -0.3338
11315W        W13515  31.058   3.752  23.560  0.1266  0.1267 -0.0469
11316W        W13516   0.086   1.546  24.293  0.0772 -0.1510 -0.0371
11317W        W13517  24.737   2.938  17.011 -0.1417 -0.3704 -0.0245
11318W        W13518  28.156   7.605  17.903 -0.0177  0.1451 -0.1581
11319W        W13519  18.345   3.933  22.285 -0.0138  0.2136  0.0412
11320W        W13520   6.104   5.387  10.209 -0.0306  0.0825  0.1806
11321W        W13521  25.397   6.403   1.006 -0.3779  0.0666 -0.0383
11322W        W13522  18.715   5.251   4.471 -0.0016 -0.1026 -0.0495
11323W        W13523  13.821   0.587   7.480  0.2834 -0.0539 -0.0842
11324W        W13524  13.107   5.658   4.335  0.0455  0.2652  0.0678
11325W        W13525  29.901   6.426   1.965  0.1741  0.2785 -0.0094
11326W        W13526  17.466   7.748  10.136  0.2377 -0.1450  0.0696
11327W        W13527  27.266   3.256  24.388  0.0537  0.0577  0.0374
11328W        W13528   8.334   0.311   3.106  0.0886 -0.0741 -0.0595
11329W        W13529  12.494   1.805  25.308  0.2152  0.1781 -0.2007
11330W        W13530   9.985   6.763   4.049 -0.0455  0.2009  0.2750
11331W        W13531  16.140   2.880   3.319 -0.1594  0.0025 -0.2046
11332W        W13532  30.583   1.942  15.942 -0.3355  0.1957  0.4562
11333W        W13533   5.874   0.923   5.978  0.2808 -0.3335 -0.0765
11334W        W13534  14.588   7.155  20.830 -0.0693  0.1293 -0.1475
11335W        W13535  23.216   3.906   5.826 -0.1728 -0.3151  0.0105
11336W        W13536  29.431   1.653   5.989  0.2975 -0.3028 -0.1243
11337W        W13537  12.606   2.573   1.902  0.3461  0.1212  0.0190
11338W        W13538   0.534   7.202   9.227 -0.3388  0.0254  0.0022
11339W        W13539  16.831   2.250   1.952  0.0958  0.0761  0.0221
11340W        W13540   2.143   0.132   1.422 -0.0001  0.2630 -0.1565
11341W        W13541   8.620   2.461  23.860  0.1025  0.0775 -0.3653
11342W        W13542   6.446   7.495  23.068  0.2957 -0.0283  0.2924
11343W        W13543  22.127   0.536  21.833  0.1245  0.2498  0.1396
11344W        W13544  23.680   2.451  18.738 -0.0421  0.5128 -0.0385
11345W        W13545  21.661   0.453  19.620  0.2081  0.1209 -0.3132
11346W        W13546   4.482   3.743   8.857 -0.0111  0.2161  0.2786
11347W        W13547  26.779   0.390  23.081  0.1006 -0.1741 -0.1857
11348W        W13548  28.167   0.940  21.969  0.2467  0.0161 -0.0941
11349W        W13549  11.138   3.420  15.867  0.2293  0.1411  0.1153
11350W        W13550  20.804   4.602   4.210  0.2498  0.2904  0.3603
11351W        W13551  22.646   3.620  23.956  0.0322 -0.2094  0.1312
11352W        W13552   7.415   6.812  16.002  0.0153 -0.0235  0.2103
11353W        W13553  18.249   2.205  18.837  0.0722 -0.0955  0.3324
11354W        W13554   8.719   0.135   9.763  0.0387 -0.0096  0.2659
11355W        W13555  10.140   0.855   4.363 -0.1567  0.0573 -0.1355
11356W        W13556  19.521   4.216   6.947  0.2305 -0.0443 -0.4246
11357W        W13557  13.850   2.293  18.035  0.0222 -0.0326  0.2051
11358W        W13558  13.676   0.524  25.183 -0.0011 -0.0209 -0.0973
11359W        W13559  27.871   1.712  16.376 -0.0235 -0.0628 -0.3570
11360W        W13560  26.778   0.936   2.074 -0.3253  0.1845 -0.0748
11361W        W13561   8.012   6.807  11.170 -0.1403  0.2293 -0.2683
11362W        W13562   1.229   5.306   1.622 -0.0552  0.0847 -0.1047
11363W        W13563   3.593   6.928  15.542 -0.0073 -0.0594 -0.1788
11364W        W13564   7.535   6.810   9.741 -0.1263  0.3397  0.0903
11365W        W13565  23.103   2.649   9.209 -0.1099 -0.1154 -0.0803
11366W        W13566   1.879   6.552   5.420 -0.1211 -0.2196 -0.0877
11367W        W13567  31.215   4.053  15.839 -0.0256  0.0682 -0.2129
11368W        W13568  17.174   0.353  22.871  0.0010 -0.0304  0.0529
11369W        W13569  24.264   5.362  15.841  0.0874  0.1180 -0.0215
11370W        W13570  17.310   5.194  25.258  0.1394  0.0384  0.1039
11371W        W13571  12.537   5.382  21.702 -0.3078 -0.1477  0.0851
11372W        W13572  29.330   6.475  10.138  0.0321 -0.0719  0.1986
11373W        W13573   9.770   2.689   4.123  0.0315  0.2185 -0.0690
11374W        W13574  24.041   3.645   1.452  0.5540  0.0567 -0.2910
11375W        W13575  29.529   2.108  21.013  0.1631 -0.0351  0.0420
11376W        W13576  19.655   2.584  19.621  0.1920 -0.1947  0.1422
11377W        W13577  12.532   5.933   6.897 -0.1906 -0.2298 -0.0024
11378W        W13578  14.320   2.907  18.643  0.0725 -0.2542  0.0601
11379W        W13579  30.510   2.114  16.990  0.2558 -0.0799 -0.2251
11380W        W13580  17.133   6.842  17.686  0.0672 -0.1351  0.1013
11381W        W13581   4.534   6.625  25.841  0.2077  0.0553 -0.0071
11382W        W13582  12.838   2.435  24.021 -0.1700  0.0277 -0.0443
11383W        W13583   4.771   5.459  23.219 -0.0460 -0.0315  0.0531
11384W        W13584  16.998   6.581   0.444 -0.1793  0.3601  0.2302
11385W        W13585  14.393   3.904  26.186  0.1363 -0.3288  0.1729
11386W        W13586  10.556   1.252  20.427 -0.0369 -0.1148  0.1470
11387W        W13587   6.039   7.799   3.455 -0.0539  0.0581 -0.0273
11388W        W13588  20.969   4.465   5.436 -0.1176 -0.2937  0.0515
11389W        W13589  25.576   5.479   5.681  0.1876  0.0576  0.0400
11390W        W13590  24.963   0.714  16.226  0.0301  0.4258  0.0134
11391W        W13591   3.264   7.341   4.085 -0.1403 -0.1598 -0.0498
11392W        W13592   7.892   2.712   3.125  0.1295 -0.2855  0.0551
11393W        W13593  18.509   1.949   2.594  0.0656 -0.1033  0.0489
11394W        W13594  28.927   2.906  11.756 -0.3481  0.0449 -0.3161
11395W        W13595   7.822   6.823   5.300 -0.1882 -0.1798 -0.2173
11396W        W13596   3.209   6.936  22.128 -0.2579 -0.0727  0.1769
11397W        W13597  23.102   1.262  10.450 -0.1649 -0.0981  0.1214
11398W        W13598  10.591   5.351  18.885 -0.0938  0.1523  0.0583
11399W        W13599  24.711   0.713   7.896 -0.1816  0.0638  0.2052
11400W        W13600  23.573   7.015  16.519  0.0841  0.0592  0.1977
11401W        W13601   7.559   6.108   7.944 -0.2481  0.2366  0.1681
11402W        W13602  29.317   2.684   1.631  0.0141  0.1040  0.0093
11403W        W13603  26.619   5.626  18.832  0.0078  0.1012 -0.1434
11404W        W13604  30.097   2.246   2.250 -0.0774  0.0255  0.1080
11405W        W13605  28.029   7.351   0.896  0.2261 -0.1348 -0.0257
11406W        W13606   9.684   4.608  15.915 -0.2969  0.1466  0.3380
11407W        W13607  20.116   1.137   6.152 -0.2458  0.0410  0.0090
11408W        W13608   1.177   2.478   7.979  0.0142  0.0991 -0.0970
11409W        W13609   4.022   4.585   0.093 -0.2374  0.0773 -0.0901
11410W        W13610   4.054   4.959   4.064 -0.1803  0.1073  0.1218
11411W        W13611   3.680   3.674   7.161  0.0360  0.0238 -0.2229
11412W        W13612  19.796   5.726  10.709 -0.2497 -0.0022 -0.2614
11413W        W13613  24.020   5.796  24.839 -0.1574  0.2888 -0.1664
11414W        W13614   1.104   6.258   7.686 -0.1518  0.2908 -0.2109
11415W        W13615  26.860   3.848   0.398  0.1926  0.1872 -0.1451
11416W        W13616  11.162   3.994  21.204 -0.0004 -0.0569  0.1344
11417W        W13617   3.945   1.829  15.394 -0.3314 -0.0592  0.1767
11418W        W13618  15.138   5.114  10.448  0.0312  0.1041 -0.0013
11419W        W13619   2.334   3.524   6.348  0.1518  0.1240  0.0654
11420W        W13620  18.277   6.970   7.396 -0.1114  0.0814  0.0823
11421W        W13621   5.631   5.283  10.353  0.1804 -0.0271  0.1859
11422W        W13622   4.337   0.125   7.252  0.3536  0.3918 -0.0859
11423W        W13623  27.350   0.602   1.187 -0.2346  0.4043  0.3854
11424W        W13624  29.226   1.840  21.238 -0.1320  0.1222 -0.3201
11425W        W13625  18.386   7.097  20.839 -0.1565  0.5526 -0.1951
11426W        W13626  18.627   6.738  26.157  0.0028  0.1037 -0.1219
11427W        W13627  17.539   3.084  18.186  0.1167 -0.1049 -0.1532
11428W        W13628  19.486   6.865  18.387 -0.0656 -0.3484  0.0582
11429W        W13629  24.876   4.488   2.065 -0.0606 -0.1542 -0.3780
11430W        W13630   1.335   4.525   9.981 -0.2157 -0.0307  0.0541
11431W        W13631  26.041   1.854  14.774  0.2797  0.0150 -0.0406
11432W        W13632  11.642   4.007  10.523  0.4311  0.1817  0.3095
11433W        W13633  28.642   1.132  22.682  0.2154 -0.3056  0.0713
11434W        W13634  11.755   2.075  17.798 -0.0479 -0.0611  0.1445
11435W        W13635   4.068   3.473  20.073  0.0684  0.1253  0.0861
11436W        W13636  15.834   4.844   2.026  0.0379  0.1063  0.2811
11437W        W13637   5.312   4.695   2.911 -0.0728 -0.2577 -0.1427
11438W        W13638  19.053   5.778  19.751 -0.1428 -0.1483  0.0973
11439W        W13639  12.007   5.847  18.284  0.0409 -0.2025 -0.0611
11440W        W13640  16.564   4.282  24.594 -0.3915 -0.1840  0.1235
11441W        W13641  24.878   5.207   1.093 -0.3076 -0.0642 -0.0329
11442W        W13642   0.637   1.038   1.249 -0.4135 -0.0421 -0.0208
11443W        W13643   6.540   7.102  25.425 -0.2885  0.0896  0.1108
11444W        W13644   9.197   2.948   1.472 -0.0859 -0.0886  0.0070
11445W        W13645   6.526   5.388   3.194 -0.0642 -0.1963 -0.0561
11446W        W13646  27.920   4.815   8.563  0.2645 -0.0508 -0.2499
11447W        W13647  30.711   6.214  24.721  0.1428 -0.1301 -0.2797
11448W        W13648  17.953   4.537  22.984 -0.2686 -0.2174 -0.2063
11449W        W13649   0.380   5.639  24.772 -0.0007 -0.0646 -0.0584
11450W        W13650  24.897   2.289  24.034  0.0058  0.1556  0.2588
11451W        W13651  30.293   6.752  10.911  0.0813 -0.3640 -0.1618
11452W        W13652  15.162   0.962  22.931  0.1419  0.3045 -0.2402
11453W        W13653  21.326   2.298  16.654  0.0253 -0.1542  0.0835
11454W        W13654   3.715   5.512  16.883 -0.1995  0.3040 -0.0075
11455W        W13655  22.779   3.847  10.306 -0.0028  0.0395  0.1355
11456W        W13656   0.438   4.250  21.008  0.1567 -0.0962  0.1317
11457W        W13657  22.003   2.967   7.421  0.0689  0.0500  0.2906
11458W        W13658  25.797   1.892   2.269  0.1941  0.0802 -0.3156
11459W        W13659   0.555   5.829   5.806 -0.0094  0.1746 -0.3429
11460W        W13660  26.203   0.735   9.088  0.1390 -0.1265 -0.1181
11461W        W13661  14.342   2.681  23.725 -0.0302 -0.3646  0.2508
11462W        W13662   0.131   1.256   5.583 -0.0401 -0.0314  0.3717
11463W        W13663  13.989   5.382  17.542 -0.3124  0.1606 -0.0843
11464W        W13664  19.909   0.008  22.619  0.1377 -0.0931 -0.1907
11465W        W13665   8.613   3.393   4.271  0.1844 -0.0103 -0.1394
11466W        W13666   6.754   1.327   0.518 -0.1686  0.0871  0.1526
11467W        W13667  31.115   5.891   4.160 -0.3449  0.1652 -0.0389
11468W        W13668  20.983   7.647  18.254 -0.2248 -0.1826  0.1138
11469W        W13669  26.173   7.380   2.277 -0.0395  0.3245  0.0113
11470W        W13670  23.186   7.039  15.558  0.1971  0.0529  0.0905
11471W        W13671  17.994   1.279  23.142  0.0551  0.0859 -0.0578
11472W        W13672  25.106   5.179  25.357  0.0651  0.0059 -0.0374
11473W        W13673  17.318   4.073  25.446 -0.2150 -0.1084  0.1148
11474W        W13674  20.154   4.973   3.580 -0.2478 -0.3861  0.2150
11475W        W13675  26.208   1.052   7.436  0.1852  0.0595 -0.3516
11476W        W13676  22.798   6.665   5.962  0.0166 -0.0899 -0.1908
11477W        W13677   1.318   6.855   1.247 -0.0029  0.1399 -0.0696
11478W        W13678  23.086   6.438  24.939  0.0283  0.1497 -0.0723
11479W        W13679  25.581   1.374   3.799 -0.3200 -0.4492 -0.0799
11480W        W13680  24.010   0.300   4.081 -0.0093  0.0408  0.3790
11481W        W13681  20.720   2.226   1.390  0.0305  0.2719  0.1036
11482W        W13682  30.493   6.236  20.503  0.2303  0.3056  0.0063
11483W        W13683  29.686   6.355   1.182 -0.1256  0.0580 -0.1360
11484W        W13684  23.193   3.225   7.785 -0.2005  0.1084  0.1278
11485W        W13685   6.620   2.768  25.401 -0.1496 -0.1112  0.0130
11486W        W13686  13.476   6.594  10.568  0.0215 -0.1926  0.1225
11487W        W13687   3.834   1.815   5.045 -0.0232  0.1164 -0.2333
11488W        W13688   4.330   5.206  22.013  0.0390 -0.2168  0.0987
11489W        W13689  25.203   3.388  25.192 -0.0279 -0.1496  0.1693
11490W        W13690  29.704   7.260   1.981  0.2246 -0.1409  0.1954
11491W        W13691   1.012   6.920  17.919  0.0315 -0.0636  0.0039
11492W        W13692   5.479   7.658   6.582  0.0421  0.0979 -0.0925
11493W        W13693  17.378   5.217  16.618  0.2182 -0.0482 -0.1253
11494W        W13694   8.866   7.361  17.517  0.0623  0.3050  0.2208
11495W        W13695  15.434   2.360   7.848 -0.2038 -0.1826  0.0172
11496W        W13696  27.323   6.609   0.514  0.0198  0.0065  0.4549
11497W        W13697  31.185   3.275   1.116 -0.3257  0.1399  0.1857
11498W        W13698   8.841   6.554   8.454 -0.1004 -0.2833  0.1358
11499W        W13699  30.588   7.454  16.132  0.1506 -0.1074 -0.2100
11500W        W13700  19.882   2.825   5.230  0.1561 -0.0828 -0.2085
11501W        W13701  20.172   0.264  20.751 -0.1281  0.1609 -0.0995
11502W        W13702   7.747   1.059  17.391 -0.0974  0.0746  0.0511
11503W        W13703   1.154   4.538  16.072 -0.0337 -0.1163  0.0650
11504W        W13704   9.557   1.254  16.846  0.0935  0.1506  0.3374
11505W        W13705  24.050   6.756  18.909  0.0201  0.1458 -0.1526
11506W        W13706   9.617   1.815  20.554  0.1214  0.1684  0.0372
11507W        W13707  16.537   6.592   9.262 -0.2149  0.2950  0.0155
11508W        W13708   4.388   7.682  19.128  0.1235  0.0674 -0.1719
11509W        W13709   5.099   0.570  11.083  0.1830 -0.0063  0.2750
11510W        W13710  17.998   5.194  20.152  0.0109  0.1320 -0.0791
11511W        W13711  26.122   2.884  16.103  0.0951 -0.0135  0.0889
11512W        W13712  13.770   3.993   6.891 -0.1083 -0.0680 -0.1020
11513W        W13713  24.582   7.752   5.472  0.4875 -0.1213  0.2270
11514W        W13714  12.220   0.148   6.144  0.2650  0.2521 -0.3458
11515W        W13715  25.078   2.005   5.653 -0.3700 -0.1594  0.2057
11516W        W13716  31.162   5.889  19.199 -0.1066 -0.1061  0.0271
11517W        W13717  30.877   3.574  19.068  0.2837  0.1146 -0.0603
11518W        W13718   8.681   1.904  25.514 -0.1752  0.0344  0.1902
11519W        W13719  20.141   2.841   1.292  0.0294  0.2237 -0.2941
11520W        W13720   7.397   2.220   2.217  0.0774  0.0304 -0.2904
11521W        W13721  22.408   3.345  19.804 -0.3090  0.1133 -0.0727
11522W        W13722   9.827   1.515   9.705 -0.0902 -0.3246  0.0135
11523W        W13723  10.240   4.318  23.489 -0.0159  0.0819  0.2996
11524W        W13724  15.654   0.671  15.381  0.2070 -0.1227 -0.0903
11525W        W13725  23.518   3.404  22.832 -0.0280  0.0765  0.3008
11526W        W13726  17.999   2.465  22.345  0.0410  0.0744 -0.2999
11527W        W13727   3.104   0.364   0.573  0.1147 -0.2631  0.0383
11528W        W13728   7.923   4.716   3.216 -0.2421  0.1205  0.0707
11529W        W13729   9.815   7.691   4.407  0.0893  0.1304  0.0636
11530W        W13730  10.184   7.685  20.579 -0.0713 -0.0723 -0.0539
11531W        W13731  19.490   1.230   7.061 -0.1011 -0.0923  0.1097
11532W        W13732   5.224   7.579  23.705  0.3104  0.1025 -0.2017
11533W        W13733   6.385   2.206   2.738  0.0512 -0.1228  0.1445
11534W        W13734  15.425   0.619   0.495 -0.1052  0.0118 -0.0236
11535W        W13735   6.318   5.012  17.570 -0.0012  0.1365  0.1112
11536W        W13736  20.999   1.834  16.630 -0.0793 -0.0779 -0.2105
11537W        W13737  18.175   6.315  22.116  0.0347 -0.0993  0.0079
11538W        W13738  25.995   6.957   0.574  0.0055  0.1916 -0.1512
11539W        W13739  28.578   5.706   3.028  0.2624  0.1646 -0.2305
11540W        W13740  20.290   0.804  15.187  0.0809 -0.1746 -0.0555
11541W        W13741  14.604   1.307   6.688 -0.2751  0.0152  0.1906
11542W        W13742   9.972   4.587  25.387  0.1387 -0.4361 -0.0498
11543W        W13743  19.380   2.438  24.294 -0.0541 -0.0943 -0.1522
11544W        W13744  27.734   1.297  10.411 -0.2838  0.0967  0.0115
11545W        W13745  14.962   5.580   0.931  0.3816 -0.2143  0.0915
11546W        W13746  21.672   1.181  21.552 -0.1820  0.1734  0.3024
11547W        W13747   4.896   2.106   8.525  0.0691  0.1280  0.1822
11548W        W13748  21.182   5.895  15.501  0.0408  0.0243  0.0604
11549W        W13749  10.220   7.740   8.982  0.0412 -0.2403  0.1968
11550W        W13750   7.591   0.544   9.173  0.0988 -0.0093 -0.0861
11551W        W13751   9.391   2.289  15.798  0.1424 -0.0616  0.0444
11552W        W13752  20.003   2.423  18.704 -0.1276  0.2876  0.1718
11553W        W13753  15.118   1.645   8.776 -0.2468 -0.2085  0.0057
11554W        W13754  22.220   3.862   7.209  0.3666 -0.0910  0.0961
11555W        W13755  10.561   3.957   2.794  0.1448 -0.2164  0.0694
11556W        W13756  19.438   6.454  24.752  0.0364  0.0925  0.1903
11557W        W13757  26.846   0.038  24.249 -0.0193  0.0511  0.0867
11558W        W13758  29.142   5.754  24.770 -0.0519 -0.0554 -0.0178
11559W        W13759  19.363   6.627   5.277 -0.0931  0.2117  0.0217
11560W        W13760  26.731   3.874  16.499  0.0021 -0.1260  0.2690
11561W        W13761  10.554   1.691   1.545  0.0817 -0.4671  0.5384
11562W        W13762  13.563   2.639  16.921  0.3115 -0.2744 -0.0856
11563W        W13763   9.361   0.570  26.092 -0.1927 -0.0149 -0.3070
11564W        W13764   9.100   0.769   6.680 -0.2598 -0.3067  0.0190
11565W        W13765  11.678   2.389  23.308 -0.0942  0.1060 -0.1291
11566W        W13766  13.061   6.261  10.831 -0.0440  0.1034  0.2113
11567W        W13767   6.780   4.627  10.556  0.0987 -0.1398  0.2119
11568W        W13768  18.511   0.559  10.076  0.1978 -0.2275 -0.4704
11569W        W13769  24.117   6.758  11.105  0.1293  0.1038 -0.0406
11570W        W13770  27.712   7.614   7.540 -0.1930  0.0321  0.1284
11571W        W13771  17.333   2.821   7.159 -0.0836 -0.2405  0.1938
11572W        W13772  30.372   5.371  19.148  0.0453  0.3683  0.0164
11573W        W13773  15.645   0.963  23.231 -0.0021  0.0810  0.0004
11574W        W13774  19.829   2.851  18.605  0.0735  0.0380 -0.0321
11575W        W13775   7.839   3.173  18.660  0.1289  0.0419 -0.1083
11576W        W13776   8.858   6.784  21.595  0.1903 -0.0781  0.1058
11577W        W13777  10.621   3.817  25.188  0.1201  0.0523  0.0310
11578W        W13778  14.430   1.857   7.362 -0.1322  0.0710 -0.2368
11579W        W13779  11.489   4.390   0.273  0.0210  0.0710 -0.0413
11580W        W13780  12.177   0.968   5.004  0.5481  0.0883  0.2643
11581W        W13781  13.106   1.522   3.905  0.1954  0.0739  0.1742
11582W        W13782   6.238   3.782   4.297  0.0433  0.0089  0.0601
11583W        W13783  25.679   3.781  25.958 -0.1086 -0.3161 -0.0494
11584W        W13784  28.453   2.935  23.330 -0.0528 -0.0549  0.0840
11585W        W13785   4.086   1.771  23.195 -0.0828  0.1020  0.0604
11586W        W13786   9.763   5.076  16.056  0.2045 -0.1771 -0.3312
11587W        W13787  17.607   3.264   0.562 -0.0350  0.2846 -0.1766
11588W        W13788  10.273   3.929   9.426  0.0239 -0.1293  0.1427
11589W        W13789  29.317   7.461  18.384  0.0871 -0.1624  0.1867
11590W        W13790  23.800   4.701   8.036  0.0223  0.0424 -0.2479
11591W        W13791  30.069   5.349   5.231 -0.2321  0.0416  0.0786
11592W        W13792  27.775   1.704   1.909  0.1706 -0.0665  0.1651
11593W        W13793  13.103   4.322   7.498 -0.0355 -0.2906  0.1829
11594W        W13794  26.897   5.312  16.311  0.3689 -0.1355  0.1661
11595W        W13795  17.765   3.388  14.617 -0.3870 -0.0855  0.0841
11596W        W13796  13.133   0.085  23.366  0.1294 -0.0746  0.1875
11597W        W13797  27.869   2.699  16.905 -0.0136 -0.0344  0.0843
11598W        W13798  13.354   1.056  24.546 -0.0876 -0.0292  0.0466
11599W        W13799  13.397   5.698  14.886  0.0008 -0.0551 -0.3032
11600W        W13800   1.952   4.423   4.931 -0.1978 -0.1501  0.0988
11601W        W13801   0.422   6.721  24.933 -0.1446 -0.1655  0.3788
11602W        W13802  25.167   6.666  14.529 -0.2391  0.0143 -0.4551
11603W        W13803  21.283   6.459  16.018 -0.0985  0.1025  0.0577
11604W        W13804  17.745   7.329   6.477 -0.0489 -0.0413  0.1692
11605W        W13805  16.238   7.455   5.363  0.0282  0.1791 -0.1738
11606W        W13806  20.242   3.070   9.063 -0.0854 -0.2822  0.1028
11607W        W13807  24.563   5.651  15.493  0.3572  0.3306 -0.2583
11608W        W13808  26.093   5.519   7.310  0.0901  0.2108  0.0092
11609W        W13809  22.126   4.400  18.058 -0.0144  0.0992 -0.1003
11610W        W13810  29.712   4.243  16.584 -0.1817  0.0857 -0.1359
11611W        W13811  11.855   0.818  17.946  0.0243  0.1459 -0.0420
11612W        W13812   5.904   5.954  24.128  0.1718 -0.3197  0.1290
11613W        W13813   4.908   3.193  24.578  0.0237  0.2347 -0.0063
11614W        W13814  30.918   1.768   3.433  0.0529  0.1258  0.0365
11615W        W13815  20.052   0.570   6.170  0.1209  0.2180 -0.0976
11616W        W13816  10.648   4.494  23.350  0.0600 -0.1863 -0.1321
11617W        W13817  17.144   5.796  23.146 -0.1856 -0.0104  0.0706
11618W        W13818  25.716   2.350  18.387 -0.0198  0.0978 -0.0126
11619W        W13819   6.621   1.328  21.652 -0.1993  0.1669  0.0155
11620W        W13820  12.606   1.803  17.751 -0.2946 -0.0506 -0.1264
11621W        W13821   2.380   2.602  19.716 -0.0910  0.3663 -0.0802
11622W        W13822   4.360   7.191   6.372  0.2037  0.1444 -0.2619
11623W        W13823  15.152   5.142   5.971  0.2413 -0.5076 -0.3655
11624W        W13824  12.310   7.184   6.748  0.0143 -0.0901  0.2842
11625W        W13825  17.728   1.520   2.487  0.0537  0.1241  0.1567
11626W        W13826   1.307   2.721   4.577  0.0379  0.2685  0.2383
11627W        W13827   6.468   2.142   0.490 -0.0547 -0.1144 -0.0015
11628W        W13828   4.512   6.493  10.002 -0.0651  0.2384  0.1069
11629W        W13829   6.661   3.724  24.164  0.0097 -0.1571 -0.1662
11630W        W13830   3.566   2.862  23.769 -0.0963 -0.0577 -0.0926
11631W        W13831  29.673   4.892   4.118  0.1658  0.2222  0.2307
11632W        W13832  16.699   0.394   5.906  0.0174  0.2210 -0.1312
11633W        W13833  24.437   5.422  23.013  0.2620 -0.1290  0.0649
11634W        W13834  25.548   1.463  18.529 -0.1008  0.0838  0.4020
11635W        W13835  27.921   5.924   7.658  0.1220  0.2184  0.0431
11636W        W13836  11.608   1.500   6.749 -0.1203  0.3148 -0.2523
11637W        W13837  29.164   0.231   0.398 -0.0583  0.2925  0.0821
11638W        W13838  20.603   6.541   8.427  0.0679 -0.1090  0.1036
11639W        W13839   6.153   5.099  10.703 -0.1258 -0.1032 -0.1168
11640W        W13840  22.166   5.552  16.388  0.0228  0.0500 -0.1331
11641W        W13841  24.441   2.802  21.735 -0.0676 -0.2275 -0.0978
11642W        W13842   2.529   1.852   6.183  0.3491 -0.1114  0.0931
11643W        W13843   5.779   0.807  19.194 -0.2438  0.1420 -0.0620
11644W        W13844  14.990   5.927   8.378  0.2253 -0.1053  0.1259
11645W        W13845  15.194   7.347  22.590 -0.3044 -0.2098  0.1076
11646W        W13846   8.284   4.339   6.153 -0.1361  0.1224  0.0903
11647W        W13847  17.017   7.616   5.713 -0.2000  0.1157 -0.0388
11648ION     NA13848   2.346   1.100   1.313  0.7506 -0.4672  0.1406
11649ION     NA13849  24.218   3.298   2.194 -0.1205  0.4814 -0.0404
11650ION     NA13850   2.106   5.354  18.268  0.3299  0.1247  0.8703
11651ION     NA13851   4.272   0.141  25.243  0.1015 -0.1328  0.0025
11652ION     NA13852  26.928   4.428   9.036  0.0274 -0.3857 -0.2048
11653ION     NA13853   1.134   6.324  26.092  0.1815  0.0054 -0.0674
11654ION     NA13854   6.269   1.671  15.977 -0.2465 -0.0089 -0.0056
11655ION     NA13855   9.578   4.901  21.709 -0.1850 -0.4076 -0.2081
11656ION     NA13856  24.787   6.734   9.451  0.0442  0.0674  0.4162
11657ION     NA13857  29.689   6.519   0.572  0.0558  0.2180 -0.0580
11658ION     NA13858   2.806   6.615  20.020 -0.0918 -0.3136  0.2932
11659ION     NA13859  12.120   3.425  16.795  0.0882  0.4390  0.0437
11660ION     NA13860   3.886   5.087  23.868 -0.3149  0.3592 -0.3049
11661ION     NA13861   6.931   3.448   6.833  0.1271  0.1329 -0.4287
11662ION     NA13862  22.721   2.733  21.230  0.0685  0.0540 -0.0452
11663ION     NA13863   0.318   0.102   1.355 -0.0591  0.1910 -0.0672
11664ION     NA13864   9.128   7.726  17.493 -0.0703  0.0880  0.2520
11665ION     NA13865  23.623   3.672  16.791  0.3509 -0.0302 -0.1374
11666ION     NA13866  19.913   0.176  19.463  0.1998  0.1587  0.5065
11667ION     NA13867   6.232   5.446   9.817  0.2756 -0.1969 -0.1008
11668ION     NA13868  12.074   3.585  15.789 -0.0390  0.2846 -0.4667
11669ION     NA13869   1.438   2.718  21.216  0.0316  0.1385 -0.3619
11670ION     NA13870   4.974   6.479  19.032 -0.3100  0.0378  0.0831
11671ION     NA13871  16.507   2.171  16.107 -0.0704 -0.1808  0.0612
11672ION     NA13872  25.040   3.119   5.740 -0.0574 -0.4943 -0.1693
11673ION     NA13873  15.773   7.252  18.504  0.2185  0.0132 -0.4929
11674ION     NA13874  11.138   4.266   9.793  0.2516 -0.1390 -0.1045
11675ION     NA13875  23.146   6.888  20.367 -0.0577  0.1742  0.2189
11676ION     NA13876   5.539   3.466   5.096  0.0404 -0.0688  0.0381
11677ION     NA13877   5.686   6.749   4.986 -0.5605  0.2851 -0.1553
11678ION     NA13878  14.580   6.625   4.555  0.0885 -0.2422 -0.0901
11679ION     NA13879   2.369   6.197   7.848  0.2071  0.1906 -0.4515
11680ION     NA13880  22.946   5.155  16.190  0.2701  0.1907  0.6327
11681ION     NA13881  15.112   1.497  25.378  0.1186 -0.4799 -0.0062
11682ION     NA13882  25.616   0.700   2.002  0.0813 -0.2601  0.1576
11683ION     NA13883  29.246   5.588  23.511  0.0623  0.0394 -0.0449
11684ION     NA13884   1.185   3.519   0.598 -0.1226  0.0255  0.0863
11685ION     NA13885  18.395   2.300   0.792  0.3136  0.2211  0.0974
11686ION     NA13886   2.171   5.689   0.964 -0.1676 -0.5257 -0.2806
11687ION     NA13887  24.730   2.634  22.792  0.1912  0.0643  0.2561
11688ION     NA13888  15.541   3.982  15.043  0.0286 -0.3240  0.0079
11689ION     NA13889   2.239   5.219  15.956 -0.0303  0.1706  0.0935
11690ION     NA13890  17.104   5.029   7.687  0.0182 -0.1439 -0.4290
11691ION     NA13891  31.154   4.815   0.366 -0.0463 -0.5547  0.0009
11692ION     NA13892  17.447   1.617   7.734  0.0198 -0.2553  0.2002
11693ION     NA13893  21.768   0.398  15.870 -0.0801  0.2334  0.1380
11694ION     NA13894  17.781   5.450  10.305 -0.2290  0.0540  0.0479
11695ION     NA13895  30.845   4.119  24.721 -0.3654  0.1543  0.0445
11696ION     NA13896   7.858   2.193  25.095  0.2149 -0.0046  0.2989
11697ION     NA13897  21.497   3.510  15.460  0.1234  0.3856 -0.2450
11698ION     NA13898  21.886   6.942  14.808 -0.2087  0.5700  0.2598
11699ION     NA13899  22.394   1.173  17.155 -0.2329  0.0075 -0.2338
11700ION     NA13900   9.887   7.026   6.645  0.3563  0.2426  0.2020
11701ION     NA13901   4.875   1.767   2.544  0.3451  0.1644 -0.3213
11702ION     NA13902  31.177   3.382  19.273 -0.1526  0.0077  0.1636
11703ION     NA13903  14.035   0.536   9.069  0.2628  0.2434 -0.0825
11704ION     NA13904  20.810   3.631  20.791 -0.1751 -0.0320  0.0133
11705ION     NA13905   4.801   4.540   3.641 -0.0511  0.0444  0.4809
11706ION     NA13906  23.701   0.702  22.610 -0.2023  0.1396 -0.3167
11707ION     NA13907   8.894   5.194  17.407 -0.0761 -0.1257 -0.1823
11708ION     NA13908  18.082   7.249  25.906  0.4583 -0.1379 -0.1050
11709ION     NA13909  23.419   6.846  15.228  0.1153  0.0118 -0.0162
11710ION     NA13910  13.708   4.764   8.983 -0.1837 -0.0652 -0.2158
11711ION     NA13911  21.707   0.628  24.310 -0.0825 -0.4492 -0.2966
11712ION     NA13912   2.722   0.357  24.396  0.0710  0.0939  0.3199
11713ION     NA13913   3.026   2.066   5.091  0.0847 -0.2790  0.1727
11714ION     NA13914  24.296   2.198  17.031 -0.1357 -0.2820 -0.0893
11715ION     NA13915  30.830   3.644   8.943 -0.5312 -0.0027 -0.0592
11716ION     NA13916   3.641   0.835  19.134  0.1524 -0.1929  0.3098
11717ION     NA13917   6.334   3.152  22.132  0.3973  0.1207  0.2985
11718ION     NA13918  13.863   1.153   8.054  0.1467 -0.2189  0.3209
11719ION     NA13919  25.592   1.397   7.190 -0.1163  0.2304  0.1031
11720ION     NA13920  28.518   2.899  21.679  0.3340 -0.0915 -0.0484
11721ION     NA13921  11.864   3.111  24.198 -0.1610  0.0906  0.0021
11722ION     NA13922   1.173   1.042  20.322  0.1110 -0.0301  0.5238
11723ION     NA13923  22.759   5.127   5.823 -0.2905  0.3638  0.2955
11724ION     NA13924  25.620   6.725   9.305 -0.3205 -0.0890 -0.0492
11725ION     NA13925   3.844   3.876  24.566 -0.3367  0.0370 -0.2705
11726ION     NA13926  21.325   0.660   5.030  0.2367 -0.0236 -0.1617
11727ION     NA13927  10.456   5.229  10.034 -0.0623 -0.0207  0.4856
11728ION     NA13928   6.777   4.097   7.659 -0.0888 -0.2846 -0.2738
11729ION     NA13929  28.068   6.949   6.648 -0.1536  0.3457 -0.3237
11730ION     NA13930  11.341   6.427  18.347  0.1367 -0.1663  0.0129
11731ION     NA13931  18.684   7.630  16.347 -0.1235 -0.0571 -0.2804
11732ION     NA13932   2.416   1.033   7.909 -0.0995  0.1312  0.0449
11733ION     NA13933  24.408   7.472  18.954  0.3895  0.1475  0.2517
11734ION     NA13934   5.472   7.689   8.222 -0.0545 -0.2001  0.1162
11735ION     NA13935  25.968   0.342  25.840  0.1087  0.0961 -0.3293
11736ION     NA13936   6.657   5.413  11.088  0.0294  0.3197 -0.1775
11737ION     NA13937  29.360   2.924   8.287  0.0519  0.5505  0.2591
11738ION     NA13938  22.088   6.663   5.840 -0.7116  0.1325 -0.2451
11739ION     NA13939   6.538   2.748   9.997  0.1782  0.0507  0.2157
11740ION     NA13940  28.219   3.318  17.130  0.0395 -0.1255 -0.0080
11741ION     NA13941  21.024   6.793  14.596 -0.1705 -0.2872  0.3149
11742ION     NA13942  23.308   6.203  24.652  0.3814 -0.0208 -0.3687
11743ION     NA13943   8.796   2.036   1.238 -0.0095 -0.4583  0.1778
11744ION     NA13944  19.551   0.739  15.382 -0.1258  0.6553 -0.3611
11745ION     NA13945  20.833   6.602   1.556  0.2562  0.0780  0.1017
11746ION     NA13946   6.533   5.740   3.387 -0.3139 -0.0068 -0.1592
11747ION     NA13947  28.786   0.411  18.206 -0.0121  0.0911  0.3145
11748ION     NA13948   7.752   1.996  18.298  0.3818  0.2033 -0.2439
11749ION     NA13949  13.832   7.118  24.605 -0.1471  0.0383  0.0928
11750ION     NA13950   8.724   3.037  23.161  0.1062  0.1433 -0.1259
11751ION     NA13951  10.477   7.282   1.101 -0.1225  0.1242 -0.0488
11752ION     NA13952   7.230   2.168  19.390  0.4644  0.1055 -0.0406
11753ION     NA13953  27.134   4.988  10.186 -0.4060  0.0426  0.0707
11754ION     NA13954  22.245   4.579  23.620  0.2611  0.0009  0.0430
11755ION     NA13955  19.637   4.371   4.174 -0.0009  0.1632 -0.4559
11756ION     NA13956  28.604   4.735  24.112  0.0471 -0.0309 -0.2224
11757ION     NA13957  21.874   2.498  21.832  0.4585 -0.1271  0.1058
11758ION     NA13958  11.998   4.455  23.941  0.0419 -0.4785  0.4435
11759ION     NA13959  18.812   5.311  10.450 -0.0144  0.4189 -0.3281
11760ION     NA13960  13.998   4.944  21.800  0.6322  0.2306  0.1546
11761ION     NA13961  19.719   7.241  16.837  0.1566 -0.2593 -0.4021
11762ION     NA13962  18.254   0.429  16.822 -0.0455  0.0928 -0.0799
11763ION     NA13963  13.234   0.696  17.958 -0.0694  0.2542  0.0373
11764ION     NA13964  21.390   7.403  14.911 -0.1810  0.2134 -0.0011
11765ION     NA13965   6.647   5.709  25.531  0.3044  0.1011  0.3347
11766ION     NA13966   8.545   7.524  19.810 -0.2271 -0.0329 -0.2278
11767ION     NA13967  15.548   5.948  17.481 -0.1036  0.1678 -0.4490
11768ION     NA13968   3.519   7.045  16.829 -0.0075 -0.1321 -0.0837
11769ION     NA13969  30.802   3.597   4.826 -0.3303  0.3614 -0.0971
11770ION     NA13970   2.640   7.467   8.281  0.1146  0.0136  0.0398
11771ION     NA13971   1.752   1.357   4.153 -0.4332 -0.0971  0.5444
11772ION     NA13972   6.426   4.787  10.727 -0.0462  0.2765 -0.2849
11773ION     NA13973  16.326   6.372   4.369 -0.3722 -0.2130 -0.4324
11774ION     NA13974   1.788   7.157   5.014  0.2643  0.3197  0.3353
11775ION     NA13975   3.618   7.385   1.935 -0.0964 -0.1886  0.0398
11776ION     NA13976   8.085   1.583  16.274 -0.0912 -0.1071  0.3101
11777ION     NA13977   6.923   6.190  21.297 -0.2349 -0.2510  0.0918
11778ION     NA13978   4.609   0.709  16.705 -0.0151 -0.0523  0.0172
11779ION     NA13979  10.025   4.967   6.700 -0.3199  0.1936  0.3852
11780ION     NA13980   8.463   3.787   9.344  0.4654 -0.1893  0.1718
11781ION     NA13981   9.054   6.395  21.496 -0.0081 -0.1931  0.1715
11782ION     NA13982  20.550   2.454   0.728  0.1227 -0.5115  0.1761
11783ION     NA13983  22.312   1.296   8.067 -0.0637 -0.3402  0.2101
11784ION     NA13984  18.191   2.184  15.940  0.4682 -0.5496 -0.1447
11785ION     NA13985   6.146   4.684  25.148 -0.1473  0.2305 -0.3565
11786ION     NA13986  24.033   6.304  22.190  0.0424 -0.1641 -0.0610
11787ION     NA13987   6.670   0.287  17.047 -0.1329 -0.0763 -0.0994
11788ION     NA13988   2.977   5.011  19.903  0.2775 -0.2809  0.3583
11789ION     NA13989   1.905   3.446   6.459  0.3799  0.1953  0.2809
11790ION     NA13990  27.190   1.319   5.011  0.2534  0.1049 -0.1982
11791ION     NA13991  21.083   2.869  25.729  0.1023 -0.0422  0.1592
11792ION     NA13992  25.734   3.125   3.257 -0.3337  0.3144 -0.4932
11793ION     NA13993  24.170   1.270   2.677 -0.2088 -0.3484  0.3752
11794ION     NA13994  10.125   3.964  23.725 -0.0248  0.0017  0.1940
11795ION     NA13995  23.134   5.809   0.737  0.0843 -0.6422  0.2113
11796ION     NA13996  29.504   2.819  22.321  0.3126 -0.4801  0.1229
11797ION     NA13997   0.873   5.899  16.028 -0.2046 -0.1980  0.4982
11798ION     NA13998   1.613   7.247  24.185 -0.1563  0.4824 -0.1225
11799ION     NA13999   5.413   6.116   9.327 -0.0898  0.0766  0.0180
11800ION     NA14000   4.921   6.631  26.029 -0.4409 -0.2044  0.0614
11801ION     NA14001  19.419   2.920  20.312  0.0896 -0.1074 -0.1701
11802ION     NA14002  10.199   5.461  15.234 -0.0554  0.1466  0.0070
11803ION     NA14003  19.906   0.456   8.945  0.4172  0.2672  0.0947
11804ION     NA14004   8.280   1.683  21.874 -0.2465  0.1996 -0.2666
11805ION     NA14005   7.777   4.744   4.950  0.0326 -0.1893  0.1680
11806ION     NA14006   4.512   2.933   5.770  0.2428 -0.0194 -0.0412
11807ION     NA14007  30.064   4.481  10.748 -0.5568  0.0733  0.0496
11808ION     NA14008  14.730   4.879  15.321  0.0549  0.4581  0.0066
11809ION     NA14009  16.101   3.034  16.831  0.4939  0.2309 -0.0579
11810ION     NA14010  28.033   0.034   3.172 -0.0582 -0.2804 -0.0145
11811ION     NA14011   2.812   5.269  10.105  0.0005 -0.1370  0.2776
11812ION     NA14012   0.306   1.579  16.741 -0.2043 -0.0846  0.3116
11813ION     NA14013  26.990   5.069  23.490 -0.2556  0.0105 -0.0553
11814ION     NA14014   7.261   6.949  10.434  0.5288  0.7995 -0.1701
11815ION     NA14015   0.331   2.280   1.829 -0.6800 -0.1441 -0.1769
11816ION     NA14016  25.287   7.451  24.381  0.1630 -0.1188 -0.0494
11817ION     NA14017   4.006   3.132  16.442  0.0143  0.0928  0.1293
11818ION     NA14018  28.985   0.868   3.590  0.2279 -0.3225 -0.6580
11819ION     NA14019  28.793   5.593  20.905 -0.0285 -0.2777  0.0113
11820ION     NA14020   4.059   0.648   3.333  0.1149  0.1094 -0.6466
11821ION     NA14021  30.030   2.994  21.287 -0.1425 -0.0472  0.1739
11822ION     NA14022  15.838   2.663   6.485  0.2554  0.0683 -0.3216
11823ION     NA14023  10.000   2.537   4.908  0.3685 -0.4982 -0.0524
11824ION     NA14024  25.110   5.979  10.024  0.2599  0.2882 -0.1102
11825ION     NA14025   9.549   6.785  23.520 -0.0846  0.5241  0.1784
11826ION     NA14026  21.904   5.683  22.651  0.2742 -0.2329 -0.1294
11827ION     NA14027  10.371   2.413  24.769  0.1850 -0.2203 -0.0319
11828ION     NA14028  28.722   7.037   5.855 -0.0645 -0.0537  0.1283
11829ION     NA14029  26.118   7.455  23.923  0.0122 -0.0971 -0.4152
11830ION     NA14030  23.902   4.938  21.419 -0.2929  0.1967 -0.2778
11831ION     NA14031  10.339   2.574   0.560 -0.0349  0.0682 -0.4478
11832ION     NA14032  21.078   4.766   2.763  0.3457 -0.2880  0.1039
11833ION     NA14033  18.238   7.241   1.819  0.1768  0.0115 -0.3446
11834ION     NA14034   2.287   6.865   9.105  0.1909  0.0816  0.1101
11835ION     NA14035  17.194   7.712   8.065 -0.0313 -0.1880  0.1401
11836ION     NA14036  16.793   0.949   0.024  0.0725  0.1011  0.0337
11837ION     NA14037  20.811   5.161   0.082 -0.2611  0.2216 -0.2941
11838ION     NA14038  22.059   3.849   1.740 -0.2540 -0.3408 -0.2606
11839ION     NA14039   5.502   7.309   9.369  0.2275  0.1453 -0.2531
11840ION     NA14040  14.016   4.316  17.168  0.0865  0.0870 -0.1557
11841ION     NA14041  30.331   3.956  25.654  0.1625  0.2431 -0.2435
11842ION     NA14042  13.757   5.829  21.631 -0.0084  0.4903 -0.2478
11843ION     CL14043  14.689   5.453  16.713  0.0432  0.0110  0.0808
11844ION     CL14044   0.497   1.807  16.938  0.0899  0.2900 -0.1910
11845ION     CL14045  29.521   0.264   8.976 -0.5121  0.2179 -0.7215
11846ION     CL14046   5.407   0.146   8.474 -0.7380  0.1315 -0.1027
11847ION     CL14047  27.643   0.384   4.281 -0.2152  0.2562  0.0241
11848ION     CL14048  30.131   2.862   9.488 -0.4162  0.2715 -0.1134
11849ION     CL14049   2.487   0.757   9.508  0.2267  0.2859  0.5352
11850ION     CL14050  24.661   5.538   1.049 -0.3202 -0.2711 -0.3519
11851ION     CL14051  27.176   0.700  17.295  0.2923 -0.0685 -0.3637
11852ION     CL14052   5.217   2.345  24.776  0.0857 -0.1853 -0.2796
11853ION     CL14053  30.666   4.578  25.351  0.2717 -0.1411  0.1201
11854ION     CL14054   3.534   0.050   1.184 -0.2783  0.3058  0.1730
11855ION     CL14055  16.719   7.254   3.375  0.4858  0.3022  0.3932
11856ION     CL14056  21.428   3.002  16.423  0.1239 -0.1145  0.1256
11857ION     CL14057  10.241   3.371  18.739  0.0611  0.2050  0.0609
11858ION     CL14058  17.399   5.338  16.158  0.1909 -0.1685  0.1990
11859ION     CL14059  29.622   2.158  23.376  0.0154 -0.0737  0.0871
11860ION     CL14060   7.609   3.227   4.505 -0.3077 -0.0733 -0.2267
11861ION     CL14061  21.682   6.678   0.328  0.2518  0.0268  0.0741
11862ION     CL14062  25.971   0.705  19.624  0.2791  0.0096  0.1100
11863ION     CL14063  29.994   3.505  17.881  0.1359  0.4477  0.2731
11864ION     CL14064   8.236   2.470  25.750 -0.2568 -0.4361  0.2553
11865ION     CL14065  19.510   7.369  22.502  0.0005  0.0641  0.0335
11866ION     CL14066  24.487   4.823  21.508 -0.4732  0.3386  0.0387
11867ION     CL14067   1.616   4.939  20.893  0.6407  0.0298 -0.0749
11868ION     CL14068  10.796   2.410  10.611 -0.1809 -0.1048 -0.2990
11869ION     CL14069  30.793   4.360   9.621 -0.5352  0.1208 -0.1870
11870ION     CL14070   0.882   2.938   0.954 -0.2020 -0.0618 -0.4243
11871ION     CL14071   4.860   7.658  25.241 -0.6362  0.3537 -0.0842
11872ION     CL14072   5.202   0.106  21.239  0.2259  0.3645  0.0311
11873ION     CL14073   0.770   0.575   7.279  0.5492  0.0647  0.1773
11874ION     CL14074  31.066   3.711  25.036 -0.1458  0.3257  0.2555
11875ION     CL14075  13.273   1.570  18.766 -0.2286  0.0072 -0.4039
11876ION     CL14076   0.838   2.524  21.400  0.1596 -0.1117 -0.2908
11877ION     CL14077   4.944   4.922  17.080  0.0367  0.0438  0.2422
11878ION     CL14078  16.190   1.815   7.634 -0.1957  0.1631 -0.2014
11879ION     CL14079   6.776   6.548   9.998  0.0406  0.1817 -0.2834
11880ION     CL14080  12.808   6.782  25.534  0.4529 -0.0033  0.0981
11881ION     CL14081  22.942   5.692  22.226  0.4120  0.2425 -0.1445
11882ION     CL14082   9.732   6.276   1.444  0.4663 -0.0965 -0.0515
11883ION     CL14083   4.153   6.156  24.557 -0.0115 -0.0047  0.0933
11884ION     CL14084   8.145   2.975   2.155  0.0329 -0.1887  0.0884
11885ION     CL14085  28.073   1.849  23.278 -0.1653  0.1281  0.0079
11886ION     CL14086   1.399   4.205  23.896  0.2916  0.6555 -0.1025
11887ION     CL14087  16.957   2.688  18.782 -0.1630  0.1099  0.3045
11888ION     CL14088  16.973   1.486   6.144 -0.0309  0.2530  0.0182
11889ION     CL14089   2.330   3.687  21.273 -0.0506 -0.1349 -0.1251
11890ION     CL14090  10.567   5.218  16.348  0.3267 -0.3924  0.1252
11891ION     CL14091  23.509   0.014  22.397 -0.0396  0.2513 -0.0600
11892ION     CL14092  13.461   7.475  25.901  0.1722 -0.1785 -0.5181
11893ION     CL14093   1.957   5.915   0.665  0.1765 -0.4662  0.3079
11894ION     CL14094  12.923   0.330   7.295 -0.2843  0.3029  0.1597
11895ION     CL14095   6.235   5.518   9.381  0.1774 -0.0474  0.0186
11896ION     CL14096  21.300   6.055  25.712  0.1113 -0.1354 -0.2564
11897ION     CL14097  28.745   6.849   1.594  0.2792 -0.1227 -0.2733
11898ION     CL14098  20.093   7.228  22.971  0.2194 -0.0735  0.5763
11899ION     CL14099   4.794   6.438  22.896  0.2794  0.0110 -0.4217
11900ION     CL14100   5.764   6.877  16.652  0.4474 -0.1464 -0.1122
11901ION     CL14101  25.352   2.719   5.705 -0.0475 -0.0195  0.2980
11902ION     CL14102  12.317   3.428  23.844 -0.0968  0.1778  0.1147
11903ION     CL14103   7.894   3.379  24.704  0.0236  0.5110 -0.0429
11904ION     CL14104  22.461   5.242  23.563  0.0382  0.3325  0.4208
11905ION     CL14105  25.585   5.322   8.359  0.0702  0.0149 -0.0426
11906ION     CL14106  15.186   6.675  19.345  0.0311 -0.0723  0.5387
11907ION     CL14107  28.698   5.542  22.741 -0.5310  0.1461  0.0648
11908ION     CL14108  19.993   6.466  18.760  0.2169  0.0434  0.0984
11909ION     CL14109   5.343   0.214  10.385 -0.0954 -0.0348 -0.1824
11910ION     CL14110  16.801   3.431  19.689 -0.2101 -0.2799  0.0659
11911ION     CL14111  23.083   6.107  10.090  0.1094 -0.4599  0.2871
11912ION     CL14112  28.060   4.723  22.817  0.3615 -0.1768 -0.2298
11913ION     CL14113  21.995   2.919  15.578  0.1402 -0.2698  0.1372
11914ION     CL14114  18.766   1.048   6.411 -0.0344 -0.4194  0.2352
11915ION     CL14115  21.225   5.576  17.908  0.4041 -0.1032  0.1092
11916ION     CL14116  24.595   4.629   8.402 -0.3348  0.2358  0.2288
11917ION     CL14117   1.736   0.689  10.975 -0.0424 -0.4253 -0.2999
11918ION     CL14118  14.959   1.983  17.379  0.0518  0.5172 -0.0475
11919ION     CL14119   3.647   2.438  23.683 -0.3860 -0.0351  0.4187
11920ION     CL14120  25.972   4.270  24.466 -0.5706  0.0835 -0.0275
11921ION     CL14121  19.610   3.947  19.083 -0.1001 -0.0218  0.2395
11922ION     CL14122  21.076   2.002  23.370 -0.1168 -0.4664 -0.2860
11923ION     CL14123  20.637   6.263  15.795 -0.2610  0.1088 -0.2320
11924ION     CL14124  27.562   6.566   9.860  0.1280  0.2899  0.1852
11925ION     CL14125   5.165   5.145   1.610 -0.3626 -0.0342  0.1738
11926ION     CL14126   0.032   5.759   4.848 -0.0175 -0.0065 -0.0496
11927ION     CL14127  14.122   5.806   6.241 -0.3544  0.2984  0.1058
11928ION     CL14128  24.672   2.548  17.284  0.3359 -0.5617 -0.2450
11929ION     CL14129  30.573   6.262   4.211  0.3054  0.0718 -0.0583
11930ION     CL14130   5.727   6.463   9.765  0.1376  0.1842  0.0191
11931ION     CL14131   5.561   2.222  15.675 -0.5440  0.2871 -0.0009
11932ION     CL14132  21.332   4.132   2.711  0.3412 -0.0824  0.0254
11933ION     CL14133  24.655   7.436  23.830 -0.3711  0.2176  0.1340
11934ION     CL14134  23.415   3.569  20.393 -0.6447 -0.2276  0.1269
11935ION     CL14135   0.295   7.368  24.569  0.0794  0.1843 -0.1600
11936ION     CL14136  17.110   4.808   4.702 -0.1738  0.2116 -0.4290
11937ION     CL14137   8.710   0.113   9.237  0.4682  0.1846 -0.2995
11938ION     CL14138  23.601   7.151   7.303 -0.1544 -0.4522 -0.1041
11939ION     CL14139   4.117   1.683  17.317  0.4573  0.2865 -0.0884
11940ION     CL14140  30.943   0.204  21.978 -0.0934 -0.1970  0.0818
11941ION     CL14141  19.411   0.294  19.188  0.2901  0.4811 -0.1772
11942ION     CL14142  17.190   5.198   6.866 -0.2524 -0.2490  0.2880
11943ION     CL14143   6.422   7.788  19.147 -0.0606 -0.0437  0.2263
11944ION     CL14144   8.617   3.197  22.852 -0.2696 -0.2475  0.2404
11945ION     CL14145  14.082   4.029  16.987 -0.0615 -0.1486 -0.6438
11946ION     CL14146  22.649   4.776   8.571  0.4347 -0.6428 -0.1755
11947ION     CL14147  24.424   0.984  10.015 -0.2591 -0.0843  0.1833
11948ION     CL14148  30.483   4.431  20.182  0.0979 -0.0207 -0.3737
11949ION     CL14149  10.869   4.033   6.967 -0.2354  0.1744 -0.4393
11950ION     CL14150  17.203   1.490  24.646  0.0317 -0.2053  0.2143
11951ION     CL14151  16.630   6.477   2.147 -0.0079 -0.1544  0.2095
11952ION     CL14152  24.493   2.503  25.752  0.1706  0.2541  0.1059
11953ION     CL14153  15.189   5.537  17.132 -0.1885 -0.2089  0.4167
11954ION     CL14154  14.225   5.677   2.691  0.2200  0.1482  0.0137
11955ION     CL14155  15.787   0.788  20.206  0.5467 -0.1654 -0.0984
11956ION     CL14156  18.044   1.597   7.382  0.4783 -0.0546 -0.0742
11957ION     CL14157   4.505   4.177   9.964  0.2585 -0.2866  0.1091
11958ION     CL14158  29.264   7.323   8.653  0.1239 -0.1260 -0.1134
11959ION     CL14159  29.362   5.038   3.823 -0.5186 -0.0697 -0.1583
11960ION     CL14160   6.557   5.347  20.383  0.5202  0.2743 -0.3159
11961ION     CL14161  27.321   2.553   6.940 -0.1039 -0.0547 -0.2279
11962ION     CL14162  18.665   0.516  16.272  0.2894 -0.1021 -0.0347
11963ION     CL14163   2.389   5.864  17.063 -0.2061  0.2128 -0.0221
11964ION     CL14164  11.330   2.327   6.887  0.1734 -0.3358  0.2784
11965ION     CL14165  28.352   4.197   1.259  0.1732  0.2205 -0.3443
11966ION     CL14166  27.845   2.086  22.120  0.3275  0.0771 -0.0167
11967ION     CL14167  19.814   0.007  19.765  0.0751  0.2882 -0.0718
11968ION     CL14168   8.978   2.863  17.383  0.1554 -0.0837  0.4449
11969ION     CL14169  24.815   2.888  16.086  0.3001 -0.2982  0.2457
11970ION     CL14170  16.336   6.034  17.092  0.0099  0.1431 -0.2914
11971ION     CL14171   9.619   1.455  24.608  0.2164  0.1624  0.1812
11972ION     CL14172  16.945   0.600   2.293 -0.0459  0.2110  0.0573
11973ION     CL14173  24.239   2.847  16.547 -0.4074 -0.6133 -0.4477
11974ION     CL14174   8.228   2.879   0.534 -0.0153 -0.2933  0.2128
11975ION     CL14175  29.680   4.279  17.002 -0.2959 -0.0621  0.4069
11976ION     CL14176  21.929   1.328  21.258 -0.3090  0.4311  0.2101
11977ION     CL14177   4.826   2.966  22.781  0.1427  0.5527 -0.3067
11978ION     CL14178   5.122   6.131  26.059  0.2875  0.3169 -0.0404
11979ION     CL14179  10.969   6.591  22.949  0.1267 -0.2715  0.1522
11980ION     CL14180  21.917   3.614  21.748  0.7525  0.1407 -0.1516
11981ION     CL14181  12.301   7.211   7.575  0.0094  0.0983  0.0204
11982ION     CL14182   3.696   1.164  19.188  0.1709  0.1154 -0.5400
11983ION     CL14183  26.498   7.569  24.182 -0.0824 -0.0289 -0.1419
11984ION     CL14184   9.551   6.849  21.417  0.1150 -0.1704 -0.1730
11985ION     CL14185   1.047   7.656   2.142 -0.1131 -0.4733  0.1510
11986ION     CL14186  12.039   3.398   8.272  0.3165 -0.3155  0.3575
11987ION     CL14187   9.721   4.238  15.672 -0.1674  0.1163  0.4161
11988DOPC   NC314188  10.314   0.281  14.787  0.2299  0.1517 -0.1260
11988DOPC   PO414189  10.187   0.630  14.858 -0.1331  0.0050 -0.1610
11988DOPC   GL114190  10.039   0.613  14.443 -0.0349  0.1913 -0.1018
11988DOPC   GL214191  10.344   0.585  14.342 -0.1576 -0.3155  0.1364
11988DOPC   C1A14192  10.021   0.477  14.112 -0.1798  0.3072 -0.0506
11988DOPC   D2A14193  10.018   0.655  13.607  0.0057 -0.2299 -0.1652
11988DOPC   C3A14194  10.312   0.700  13.281 -0.0269  0.0516  0.1536
11988DOPC   C4A14195  10.401   1.022  12.881 -0.0461  0.0734  0.0696
11988DOPC   C1B14196  10.552   0.257  14.282 -0.0241 -0.1945  0.2462
11988DOPC   D2B14197  10.875  -0.075  14.018  0.0184 -0.0715  0.0711
11988DOPC   C3B14198  10.633  -0.141  13.642 -0.0855  0.0087  0.1954
11988DOPC   C4B14199  10.428  -0.123  13.156 -0.0398  0.0015  0.0887
11989DOPC   NC314200  18.999   7.606  15.026 -0.0317 -0.4643 -0.2746
11989DOPC   PO414201  18.737   7.511  14.803 -0.0245  0.0221  0.2015
11989DOPC   GL114202  18.748   7.381  14.358  0.0932 -0.2317 -0.0847
11989DOPC   GL214203  18.847   7.688  14.393  0.1558  0.2847 -0.1250
11989DOPC   C1A14204  18.492   7.266  14.015 -0.0869 -0.0177 -0.1383
11989DOPC   D2A14205  18.240   7.070  13.618 -0.1600  0.2312  0.1468
11989DOPC   C3A14206  17.899   7.225  13.326 -0.1448  0.0284  0.0333
11989DOPC   C4A14207  17.468   7.078  13.101 -0.0054 -0.2145  0.2545
11989DOPC   C1B14208  18.648   7.969  14.113 -0.0094 -0.0195  0.0810
11989DOPC   D2B14209  18.736   8.237  13.723  0.0163  0.0789  0.2430
11989DOPC   C3B14210  18.676   8.372  13.311 -0.1074 -0.1063 -0.1084
11989DOPC   C4B14211  18.719   8.495  12.843 -0.1331  0.1177 -0.3433
11990DOPC   NC314212   2.909   1.343  15.865  0.0013 -0.2086 -0.1622
11990DOPC   PO414213   2.671   1.536  15.652  0.0239 -0.0140  0.1646
11990DOPC   GL114214   2.495   1.529  15.306  0.0189 -0.0499 -0.0231
11990DOPC   GL214215   2.809   1.554  15.139  0.0395 -0.2607  0.4759
11990DOPC   C1A14216   2.272   1.903  15.088 -0.0023  0.0069 -0.4478
11990DOPC   D2A14217   2.208   2.060  14.639 -0.1973 -0.0893  0.0531
11990DOPC   C3A14218   2.284   1.599  14.673 -0.0394  0.1703  0.1330
11990DOPC   C4A14219   2.620   1.259  14.828  0.2519  0.2951 -0.1331
11990DOPC   C1B14220   2.810   1.818  14.829 -0.1095 -0.2768  0.3563
11990DOPC   D2B14221   2.726   2.081  14.422 -0.1229  0.0257 -0.0431
11990DOPC   C3B14222   2.615   2.094  13.901  0.2083  0.1131 -0.0355
11990DOPC   C4B14223   2.559   1.843  13.462 -0.2465 -0.3136 -0.1389
11991DOPC   NC314224  21.751   2.367  14.766  0.0811  0.1452  0.0678
11991DOPC   PO414225  22.123   2.295  14.825 -0.1623 -0.0869  0.1723
11991DOPC   GL114226  22.388   2.306  14.487  0.4272 -0.2510 -0.1136
11991DOPC   GL214227  22.250   2.258  14.235  0.0985 -0.1945 -0.0657
11991DOPC   C1A14228  22.850   2.197  14.338 -0.1370 -0.0573  0.2754
11991DOPC   D2A14229  23.031   2.018  13.892 -0.0817 -0.0150  0.2595
11991DOPC   C3A14230  23.158   2.237  13.482  0.3084 -0.1623 -0.0904
11991DOPC   C4A14231  23.283   2.187  12.991  0.0386  0.0515 -0.0881
11991DOPC   C1B14232  22.401   1.993  13.940 -0.0142  0.0103  0.1380
11991DOPC   D2B14233  22.650   1.772  13.564 -0.3720 -0.3649  0.1367
11991DOPC   C3B14234  23.063   1.731  13.432 -0.1679 -0.0656  0.0729
11991DOPC   C4B14235  23.488   1.724  13.236  0.1185  0.1462  0.1098
11992DOPC   NC314236   3.486   0.529  15.859  0.0075  0.1013  0.0521
11992DOPC   PO414237   3.837   0.440  15.677  0.1199  0.0422 -0.2182
11992DOPC   GL114238   3.795   0.518  15.238  0.3148 -0.1582 -0.0662
11992DOPC   GL214239   4.085   0.596  15.186  0.2446  0.0566 -0.0125
11992DOPC   C1A14240   3.649   0.389  14.850 -0.0937 -0.2812 -0.2138
11992DOPC   D2A14241   3.506   0.071  14.500  0.0625  0.0106 -0.0406
11992DOPC   C3A14242   3.683   0.063  14.058 -0.0581  0.1280 -0.0485
11992DOPC   C4A14243   3.723   0.114  13.521 -0.0625  0.4057 -0.0016
11992DOPC   C1B14244   4.156   0.653  14.761 -0.0769  0.0284  0.2601
11992DOPC   D2B14245   4.429   0.693  14.343 -0.1842 -0.1150 -0.2513
11992DOPC   C3B14246   4.386   1.026  14.053 -0.0982  0.0205 -0.2102
11992DOPC   C4B14247   4.225   1.374  13.751  0.1441 -0.1188  0.1445
11993DOPC   NC314248   9.956   2.349  15.216 -0.0873 -0.0046  0.3504
11993DOPC   PO414249   9.709   2.185  14.921 -0.1281 -0.1788 -0.1739
11993DOPC   GL114250   9.835   2.119  14.574  0.3353  0.0614  0.0564
11993DOPC   GL214251   9.590   1.936  14.513  0.0111  0.2268  0.4666
11993DOPC   C1A14252   9.891   2.362  14.239  0.3253  0.2587 -0.1651
11993DOPC   D2A14253  10.035   2.640  13.917 -0.1245  0.4157 -0.1182
11993DOPC   C3A14254   9.924   2.428  13.498 -0.0466  0.1386 -0.1983
11993DOPC   C4A14255   9.672   2.399  13.052 -0.2159 -0.2379 -0.0505
11993DOPC   C1B14256   9.500   1.873  14.024 -0.0713  0.4059 -0.5077
11993DOPC   D2B14257   9.696   1.553  13.624  0.0171 -0.0737  0.0876
11993DOPC   C3B14258   9.506   1.526  13.172 -0.1350  0.3137 -0.1034
11993DOPC   C4B14259   9.075   1.532  13.016 -0.0123  0.2094  0.0602
11994DOPC   NC314260  25.905   3.223  15.015 -0.1414 -0.1174  0.0619
11994DOPC   PO414261  26.174   3.499  14.872  0.0146  0.3737 -0.2183
11994DOPC   GL114262  26.294   3.325  14.517 -0.0013 -0.0026 -0.2711
11994DOPC   GL214263  26.281   3.621  14.404  0.3013  0.0728 -0.3078
11994DOPC   C1A14264  26.218   2.912  14.307  0.0712 -0.0865 -0.0476
11994DOPC   D2A14265  25.871   2.535  14.304  0.1953  0.0357  0.0450
11994DOPC   C3A14266  25.827   2.087  14.362  0.0518  0.0696  0.0010
11994DOPC   C4A14267  25.833   1.588  14.329  0.2393 -0.0839 -0.1975
11994DOPC   C1B14268  26.334   3.808  14.008 -0.2207  0.1072  0.0530
11994DOPC   D2B14269  26.492   3.566  13.582  0.2084  0.0974  0.0756
11994DOPC   C3B14270  26.258   3.551  13.218  0.0473 -0.1121  0.1980
11994DOPC   C4B14271  25.902   3.432  12.932 -0.2390 -0.2806 -0.2342
11995DOPC   NC314272   3.078   7.321  15.637  0.0837 -0.1136  0.0717
11995DOPC   PO414273   3.192   7.596  15.360 -0.0683  0.1381  0.1482
11995DOPC   GL114274   3.402   7.665  15.000  0.0115 -0.3237  0.4237
11995DOPC   GL214275   3.659   7.820  15.091  0.4705  0.0872  0.1153
11995DOPC   C1A14276   3.374   7.388  14.699 -0.1604  0.5002 -0.0947
11995DOPC   D2A14277   3.273   7.507  14.194  0.0212  0.2252 -0.1130
11995DOPC   C3A14278   3.198   7.734  13.797 -0.3597  0.0948 -0.0022
11995DOPC   C4A14279   3.224   8.164  13.485  0.1447  0.2480  0.0696
11995DOPC   C1B14280   3.877   7.589  14.818  0.0890  0.1641  0.1906
11995DOPC   D2B14281   4.073   7.595  14.355 -0.0189  0.1217  0.1660
11995DOPC   C3B14282   4.511   7.582  14.316 -0.3312  0.1474 -0.0057
11995DOPC   C4B14283   4.980   7.603  14.176 -0.2438  0.2204  0.2168
11996DOPC   NC314284  16.944   6.958  14.388 -0.1325  0.4232  0.1648
11996DOPC   PO414285  16.765   7.252  14.639 -0.0338 -0.1640 -0.0063
11996DOPC   GL114286  16.793   7.585  14.366  0.2070  0.1294  0.0314
11996DOPC   GL214287  16.700   7.717  14.593  0.0217 -0.0585 -0.0342
11996DOPC   C1A14288  16.620   7.698  13.975  0.2009 -0.1226 -0.1472
11996DOPC   D2A14289  16.506   7.832  13.455  0.2625 -0.0914  0.0023
11996DOPC   C3A14290  16.586   8.014  13.006  0.0619  0.0379 -0.1531
11996DOPC   C4A14291  16.504   8.100  12.525 -0.0270 -0.5228  0.1089
11996DOPC   C1B14292  16.310   7.706  14.409  0.0641  0.1775 -0.0436
11996DOPC   D2B14293  16.053   7.610  13.986  0.1273  0.1308  0.0277
11996DOPC   C3B14294  16.276   7.431  13.634 -0.0681  0.0435 -0.2152
11996DOPC   C4B14295  16.343   7.002  13.404  0.1852 -0.1805 -0.3179
11997DOPC   NC314296  14.394   1.390  14.559 -0.0597 -0.1535  0.0741
11997DOPC   PO414297  14.746   1.492  14.714 -0.2185 -0.4048 -0.1860
11997DOPC   GL114298  14.936   1.351  14.414 -0.0161  0.0512  0.3793
11997DOPC   GL214299  14.802   1.446  14.186  0.1621  0.1117 -0.1067
11997DOPC   C1A14300  15.253   0.985  14.389 -0.2258  0.0941  0.1478
11997DOPC   D2A14301  15.732   0.817  14.356 -0.1254 -0.0331  0.2720
11997DOPC   C3A14302  16.148   0.893  14.284  0.1819  0.1070  0.0973
11997DOPC   C4A14303  16.604   0.914  14.027 -0.2766 -0.1963  0.0810
11997DOPC   C1B14304  15.055   1.220  13.982  0.0269 -0.0035 -0.1569
11997DOPC   D2B14305  15.537   1.109  13.970 -0.1280 -0.2358  0.4456
11997DOPC   C3B14306  15.939   0.979  13.855 -0.2149 -0.5386 -0.0113
11997DOPC   C4B14307  16.273   0.842  13.678 -0.1144  0.0915  0.1435
11998DOPC   NC314308  21.448   5.102  14.909  0.2081 -0.3918 -0.3291
11998DOPC   PO414309  21.582   5.416  14.725 -0.1192 -0.3088  0.0495
11998DOPC   GL114310  21.877   5.467  14.422  0.1693  0.0389  0.0142
11998DOPC   GL214311  22.012   5.675  14.521 -0.0949 -0.2868  0.1343
11998DOPC   C1A14312  21.938   5.154  14.163  0.3270  0.0194  0.1694
11998DOPC   D2A14313  21.901   4.994  13.684  0.0672 -0.3095  0.1611
11998DOPC   C3A14314  21.908   5.064  13.230  0.1765 -0.0240  0.1420
11998DOPC   C4A14315  21.829   4.836  12.769  0.1175 -0.2943  0.2898
11998DOPC   C1B14316  22.115   5.939  14.257 -0.3860 -0.1087 -0.0928
11998DOPC   D2B14317  21.753   6.106  13.895 -0.1828 -0.3609  0.1766
11998DOPC   C3B14318  21.864   6.191  13.487  0.3026  0.2776  0.1325
11998DOPC   C4B14319  22.140   6.352  13.158 -0.2177 -0.3601  0.1398
11999DOPC   NC314320  29.673   3.689  15.285 -0.0611  0.2247  0.0247
11999DOPC   PO414321  29.660   3.999  15.038 -0.0453  0.3028  0.2373
11999DOPC   GL114322  29.770   4.166  14.723  0.1369 -0.1780  0.3211
11999DOPC   GL214323  29.956   4.340  14.873 -0.0347  0.0018 -0.0958
11999DOPC   C1A14324  29.768   4.089  14.310 -0.0511 -0.1475  0.1944
11999DOPC   D2A14325  29.668   3.941  13.827 -0.1395  0.0324  0.1246
11999DOPC   C3A14326  29.698   3.717  13.386  0.1296  0.1768 -0.0466
11999DOPC   C4A14327  29.732   3.383  13.007  0.0113  0.1101  0.0239
11999DOPC   C1B14328  30.126   4.507  14.497 -0.1439 -0.0893 -0.0196
11999DOPC   D2B14329  30.433   4.747  14.094 -0.0013 -0.3669  0.1096
11999DOPC   C3B14330  30.421   5.093  13.813 -0.1668 -0.1470  0.1531
11999DOPC   C4B14331  30.348   5.468  13.495 -0.0862 -0.4476 -0.0902
12000DOPC   NC314332  21.916   1.147  14.715  0.2349 -0.1260  0.1270
12000DOPC   PO414333  22.115   0.774  14.786  0.0853 -0.3081  0.2988
12000DOPC   GL114334  21.909   0.671  14.406 -0.1415  0.0447  0.0595
12000DOPC   GL214335  21.919   0.962  14.294  0.1039 -0.3478 -0.1938
12000DOPC   C1A14336  22.059   0.306  14.213  0.4143 -0.2244  0.1292
12000DOPC   D2A14337  22.159   0.055  13.803  0.0454  0.0905 -0.2621
12000DOPC   C3A14338  21.966   0.032  13.378  0.0126 -0.2546  0.1733
12000DOPC   C4A14339  21.785   0.010  12.889 -0.0365 -0.0098 -0.1160
12000DOPC   C1B14340  21.658   0.939  13.865 -0.0852  0.4105 -0.0832
12000DOPC   D2B14341  21.359   0.779  13.444 -0.2697  0.1192 -0.0420
12000DOPC   C3B14342  21.072   0.451  13.175 -0.1265  0.0270  0.0786
12000DOPC   C4B14343  20.843   0.453  12.733 -0.0671 -0.1771  0.1220
12001DOPC   NC314344  18.561   0.648  14.965  0.1561 -0.2076  0.0525
12001DOPC   PO414345  18.755   0.302  14.908  0.0983 -0.0532  0.0713
12001DOPC   GL114346  18.717   0.225  14.544  0.2602  0.1216 -0.3073
12001DOPC   GL214347  18.479   0.363  14.530  0.1159  0.4048 -0.0633
12001DOPC   C1A14348  18.984   0.452  14.304  0.2462 -0.1012  0.0354
12001DOPC   D2A14349  19.243   0.485  13.851  0.0549 -0.0244 -0.4893
12001DOPC   C3A14350  19.208   0.469  13.434 -0.0045  0.1157  0.1032
12001DOPC   C4A14351  19.223   0.499  12.917  0.4111  0.1782 -0.1260
12001DOPC   C1B14352  18.447   0.568  14.190 -0.1374 -0.2150  0.2441
12001DOPC   D2B14353  18.678   0.935  13.946  0.2427 -0.0046 -0.1100
12001DOPC   C3B14354  18.970   0.846  13.625  0.1971 -0.1577  0.2461
12001DOPC   C4B14355  19.267   0.955  13.291  0.2878  0.0738 -0.1270
12002DOPC   NC314356  30.350   3.198  14.951  0.0255 -0.0699 -0.0109
12002DOPC   PO414357  30.067   3.360  15.180 -0.1688 -0.0102  0.0654
12002DOPC   GL114358  29.874   3.344  14.877 -0.1489 -0.0492 -0.2424
12002DOPC   GL214359  29.747   3.564  14.788 -0.2525  0.0010 -0.6777
12002DOPC   C1A14360  30.008   3.068  14.566 -0.1178 -0.0539 -0.1499
12002DOPC   D2A14361  29.994   2.636  14.326  0.1857 -0.1490  0.2765
12002DOPC   C3A14362  30.008   2.622  13.922 -0.0702  0.0875 -0.0233
12002DOPC   C4A14363  30.217   2.725  13.534 -0.0700 -0.0746 -0.1215
12002DOPC   C1B14364  29.758   3.494  14.317  0.0501 -0.0642  0.0131
12002DOPC   D2B14365  29.736   3.469  13.838  0.1665 -0.0902 -0.0081
12002DOPC   C3B14366  29.993   3.333  13.428 -0.0147 -0.0086 -0.0392
12002DOPC   C4B14367  30.380   3.229  13.199 -0.1549 -0.0893 -0.0346
12003DOPC   NC314368  13.562   3.479  15.129  0.0584 -0.1573 -0.2273
12003DOPC   PO414369  13.457   3.115  14.998  0.1115  0.1398  0.1378
12003DOPC   GL114370  13.247   3.330  14.736 -0.3957  0.1370  0.4919
12003DOPC   GL214371  13.507   3.505  14.682 -0.1321 -0.2828  0.1219
12003DOPC   C1A14372  12.879   3.401  14.561  0.3153 -0.1687  0.0566
12003DOPC   D2A14373  12.419   3.387  14.329  0.0083  0.0116  0.0272
12003DOPC   C3A14374  12.368   3.396  13.863  0.0038  0.0939  0.0855
12003DOPC   C4A14375  12.313   3.423  13.397 -0.2154  0.1071  0.2257
12003DOPC   C1B14376  13.400   3.369  14.249 -0.1097  0.2345 -0.1279
12003DOPC   D2B14377  13.304   3.273  13.806  0.1619 -0.0794  0.1373
12003DOPC   C3B14378  13.332   3.121  13.360  0.3290 -0.0883  0.0497
12003DOPC   C4B14379  13.217   3.153  12.857 -0.1743  0.0493  0.2831
12004DOPC   NC314380  30.606   4.023  15.557  0.2786 -0.1741 -0.2123
12004DOPC   PO414381  30.486   3.700  15.383  0.1206 -0.1251 -0.2820
12004DOPC   GL114382  30.479   3.687  14.942  0.5270 -0.1676 -0.1035
12004DOPC   GL214383  30.151   3.748  14.942 -0.0128 -0.2358 -0.0685
12004DOPC   C1A14384  30.509   3.475  14.608 -0.0134  0.0005  0.2142
12004DOPC   D2A14385  30.514   3.508  14.086  0.1184 -0.1630  0.2432
12004DOPC   C3A14386  30.112   3.257  14.077 -0.0915  0.4982 -0.1878
12004DOPC   C4A14387  29.642   3.002  14.183 -0.1009 -0.1575  0.0025
12004DOPC   C1B14388  30.079   3.822  14.557  0.1413  0.1436  0.1853
12004DOPC   D2B14389  30.117   3.809  14.128  0.0512 -0.0569  0.0190
12004DOPC   C3B14390  30.182   3.749  13.627 -0.1537 -0.0311 -0.3407
12004DOPC   C4B14391  30.221   3.682  13.190  0.2565 -0.0334 -0.0675
12005DOPC   NC314392  20.409   2.096  14.765 -0.0306 -0.1636 -0.1162
12005DOPC   PO414393  20.343   1.720  14.716  0.3475  0.1374  0.2502
12005DOPC   GL114394  20.363   1.428  14.371 -0.0681  0.1082 -0.2522
12005DOPC   GL214395  20.049   1.588  14.330  0.1461  0.0559  0.2626
12005DOPC   C1A14396  20.362   1.380  13.916 -0.0051  0.2227 -0.1860
12005DOPC   D2A14397  20.441   1.240  13.427  0.2026 -0.1464  0.1353
12005DOPC   C3A14398  20.489   1.321  12.964  0.1202  0.2517  0.0649
12005DOPC   C4A14399  20.357   1.286  12.434 -0.2885 -0.1050  0.4196
12005DOPC   C1B14400  19.906   1.870  13.978  0.0206  0.1337 -0.3882
12005DOPC   D2B14401  19.692   2.248  13.652  0.1519  0.0654  0.2775
12005DOPC   C3B14402  19.887   2.027  13.312 -0.0272 -0.1583 -0.0707
12005DOPC   C4B14403  20.131   2.200  12.907 -0.0663 -0.2187  0.2883
12006DOPC   NC314404  20.393   0.714  14.721  0.2426  0.2755  0.1084
12006DOPC   PO414405  20.570   0.344  14.649  0.1474 -0.0643  0.3144
12006DOPC   GL114406  20.632   0.292  14.262 -0.1465  0.1391 -0.0348
12006DOPC   GL214407  20.750   0.533  14.280 -0.1543 -0.2233  0.3869
12006DOPC   C1A14408  20.821  -0.006  13.900  0.1152 -0.0167 -0.1927
12006DOPC   D2A14409  20.833  -0.174  13.381 -0.0396 -0.1121 -0.0198
12006DOPC   C3A14410  20.817   0.011  12.932 -0.2385  0.2744 -0.0566
12006DOPC   C4A14411  20.605  -0.129  12.523 -0.1651 -0.0890 -0.2037
12006DOPC   C1B14412  20.840   0.634  13.907 -0.1475  0.0417  0.2393
12006DOPC   D2B14413  20.792   0.807  13.456  0.1309 -0.3287  0.1913
12006DOPC   C3B14414  20.773   0.881  13.011  0.0708 -0.1885  0.1460
12006DOPC   C4B14415  20.793   1.034  12.545  0.1814 -0.1458 -0.0820
12007DOPC   NC314416  30.189   0.243  15.759 -0.5120 -0.0182 -0.1067
12007DOPC   PO414417  29.893   0.439  15.683 -0.3134  0.0482 -0.1769
12007DOPC   GL114418  29.903   0.279  15.322 -0.0077  0.1484 -0.3184
12007DOPC   GL214419  29.691   0.397  15.173  0.0061  0.3886 -0.1481
12007DOPC   C1A14420  30.108   0.237  14.978  0.0294 -0.0773 -0.0137
12007DOPC   D2A14421  30.366  -0.044  14.668 -0.0298 -0.0216  0.2323
12007DOPC   C3A14422  30.737  -0.006  14.351 -0.1144  0.0389 -0.1070
12007DOPC   C4A14423  31.036  -0.158  14.068 -0.2556 -0.1898 -0.1733
12007DOPC   C1B14424  29.712   0.467  14.751  0.0545  0.0254 -0.1422
12007DOPC   D2B14425  29.840   0.295  14.302 -0.1517  0.0017  0.2620
12007DOPC   C3B14426  30.274   0.058  14.203 -0.1121 -0.0012  0.0729
12007DOPC   C4B14427  30.555  -0.197  13.901  0.2063  0.3881 -0.1246
12008DOPC   NC314428  14.295   7.237  15.448 -0.1835  0.0810  0.2361
12008DOPC   PO414429  13.985   7.358  15.246 -0.1235  0.3412 -0.2591
12008DOPC   GL114430  13.957   7.075  14.878  0.1745  0.0131 -0.0171
12008DOPC   GL214431  14.209   6.896  14.975 -0.2050 -0.1237  0.2855
12008DOPC   C1A14432  14.130   7.174  14.487  0.3091  0.0046 -0.1491
12008DOPC   D2A14433  14.357   7.455  14.090 -0.1146  0.0795  0.2179
12008DOPC   C3A14434  14.110   7.888  13.922  0.0107  0.1449  0.0724
12008DOPC   C4A14435  13.677   8.112  14.094  0.0685  0.1711 -0.0444
12008DOPC   C1B14436  14.429   6.840  14.663  0.1004 -0.0336  0.2358
12008DOPC   D2B14437  14.524   6.871  14.143  0.2314  0.3305 -0.2869
12008DOPC   C3B14438  14.691   6.836  13.678  0.0999 -0.2581  0.1164
12008DOPC   C4B14439  14.914   6.671  13.207 -0.2151 -0.1122  0.0739
12009DOPC   NC314440  16.817   3.265  14.598  0.0442 -0.0542 -0.1547
12009DOPC   PO414441  16.849   3.676  14.523 -0.0825  0.0487  0.1468
12009DOPC   GL114442  17.062   3.785  14.218  0.2120  0.2011  0.2377
12009DOPC   GL214443  17.276   3.781  14.342  0.0624 -0.2415 -0.4643
12009DOPC   C1A14444  17.146   3.877  13.770 -0.0900  0.0587 -0.2341
12009DOPC   D2A14445  16.976   3.765  13.356  0.2323 -0.1521 -0.0563
12009DOPC   C3A14446  17.090   3.381  13.210 -0.3582  0.2410  0.3229
12009DOPC   C4A14447  17.329   3.130  12.822  0.0355  0.0384 -0.0972
12009DOPC   C1B14448  17.590   3.724  14.086 -0.3461  0.1952 -0.1015
12009DOPC   D2B14449  17.795   3.712  13.593 -0.0164 -0.2054 -0.0252
12009DOPC   C3B14450  17.451   3.712  13.219 -0.0210  0.0499  0.2375
12009DOPC   C4B14451  17.260   3.690  12.799 -0.0666 -0.0676 -0.0899
12010DOPC   NC314452   8.874   6.852  15.104 -0.0251 -0.0560 -0.1674
12010DOPC   PO414453   8.544   6.629  15.141  0.1693  0.0506 -0.1044
12010DOPC   GL114454   8.475   6.492  14.847  0.1148  0.2542  0.4366
12010DOPC   GL214455   8.269   6.223  14.871 -0.1366 -0.1254  0.3508
12010DOPC   C1A14456   8.584   6.458  14.415  0.2280 -0.2168 -0.0108
12010DOPC   D2A14457   8.428   6.230  13.984  0.0712 -0.1045 -0.1144
12010DOPC   C3A14458   8.635   6.279  13.616  0.1385 -0.0208  0.1343
12010DOPC   C4A14459   8.653   6.496  13.169 -0.0445  0.0346  0.2608
12010DOPC   C1B14460   8.059   6.397  14.536  0.0909 -0.0515  0.3393
12010DOPC   D2B14461   8.104   6.638  14.067  0.2209  0.0302  0.1442
12010DOPC   C3B14462   8.399   6.730  13.676  0.0008  0.0885  0.0630
12010DOPC   C4B14463   8.161   6.884  13.298 -0.1807 -0.1339 -0.0831
12011DOPC   NC314464  28.890   3.681  14.696  0.0117  0.2878  0.1282
12011DOPC   PO414465  28.867   4.097  14.711  0.0353  0.2373 -0.1096
12011DOPC   GL114466  28.772   4.204  14.332 -0.3446 -0.1897  0.1898
12011DOPC   GL214467  28.889   3.928  14.267  0.0052 -0.2498  0.1596
12011DOPC   C1A14468  28.768   4.323  13.901  0.0337 -0.1092  0.2191
12011DOPC   D2A14469  29.085   4.439  13.527  0.0228  0.0091  0.2407
12011DOPC   C3A14470  29.134   4.837  13.270 -0.1974  0.1457 -0.0922
12011DOPC   C4A14471  29.179   5.269  12.995  0.1976 -0.0485  0.0172
12011DOPC   C1B14472  29.229   4.141  14.023 -0.0817  0.0748 -0.1583
12011DOPC   D2B14473  29.497   4.347  13.657 -0.0274  0.2851  0.0843
12011DOPC   C3B14474  29.548   4.780  13.598  0.0454  0.2264  0.2605
12011DOPC   C4B14475  29.408   5.263  13.557  0.1478 -0.1442  0.1483
12012DOPC   NC314476  17.649   3.875  14.665  0.0049  0.4122 -0.0363
12012DOPC   PO414477  17.866   4.209  14.747 -0.4856  0.0569  0.0433
12012DOPC   GL114478  18.097   4.216  14.331 -0.3786 -0.4375  0.1914
12012DOPC   GL214479  17.828   4.132  14.231 -0.2185  0.0824  0.0251
12012DOPC   C1A14480  18.217   3.915  14.077 -0.2926  0.1382 -0.0495
12012DOPC   D2A14481  18.343   3.625  13.613  0.2677  0.1477 -0.2197
12012DOPC   C3A14482  18.146   3.579  13.185  0.0608  0.1629 -0.0994
12012DOPC   C4A14483  17.829   3.368  12.932  0.1746  0.0839 -0.0331
12012DOPC   C1B14484  17.821   4.203  13.852 -0.0731 -0.1440 -0.3750
12012DOPC   D2B14485  17.792   4.515  13.551  0.1065  0.2640 -0.0877
12012DOPC   C3B14486  18.169   4.522  13.220  0.1470  0.1114 -0.0006
12012DOPC   C4B14487  18.519   4.664  12.873 -0.0511  0.1162  0.0908
12013DOPC   NC314488   9.280   7.543  14.892  0.0530  0.0012  0.0438
12013DOPC   PO414489   9.580   7.784  14.957  0.0546  0.2907  0.0592
12013DOPC   GL114490   9.871   7.997  14.752 -0.1344  0.1197 -0.2719
12013DOPC   GL214491   9.770   8.222  14.695 -0.0038  0.2007  0.2106
12013DOPC   C1A14492  10.074   7.839  14.373  0.0822 -0.0078  0.1902
12013DOPC   D2A14493  10.199   7.920  13.891 -0.2412 -0.2034  0.1115
12013DOPC   C3A14494  10.583   8.193  13.760  0.0142  0.1626  0.2058
12013DOPC   C4A14495  11.004   8.315  13.977 -0.2153  0.3508 -0.1065
12013DOPC   C1B14496   9.620   8.213  14.371  0.2263  0.0611 -0.2153
12013DOPC   D2B14497   9.445   7.942  14.017  0.1386  0.1563  0.0969
12013DOPC   C3B14498   9.750   7.938  13.643 -0.0859 -0.0478  0.0869
12013DOPC   C4B14499  10.032   8.016  13.216 -0.0460 -0.1942 -0.0890
12014DOPC   NC314500  22.057   3.212  15.231 -0.0428  0.1528  0.0815
12014DOPC   PO414501  21.878   3.158  14.898 -0.1075  0.0256 -0.3621
12014DOPC   GL114502  22.057   3.185  14.529 -0.1839  0.0619  0.0553
12014DOPC   GL214503  22.150   3.471  14.482 -0.0257  0.1620  0.2427
12014DOPC   C1A14504  21.993   3.070  14.128 -0.0717 -0.1725 -0.2011
12014DOPC   D2A14505  21.869   2.919  13.662 -0.1713 -0.2176 -0.0485
12014DOPC   C3A14506  21.508   3.081  13.396  0.1080 -0.0754 -0.0681
12014DOPC   C4A14507  21.291   3.355  13.014  0.1335 -0.1440  0.0835
12014DOPC   C1B14508  22.366   3.400  14.089  0.1989  0.0266  0.0237
12014DOPC   D2B14509  22.277   3.279  13.589 -0.3670 -0.0215  0.0034
12014DOPC   C3B14510  21.962   3.149  13.238  0.0625 -0.0710  0.0448
12014DOPC   C4B14511  21.682   3.060  12.876 -0.0954 -0.0766 -0.1089
12015DOPC   NC314512   6.825   5.818  15.498  0.1447 -0.0995  0.0093
12015DOPC   PO414513   6.552   5.964  15.224  0.0551 -0.3208 -0.2611
12015DOPC   GL114514   6.794   5.681  14.977 -0.4195 -0.0502 -0.0315
12015DOPC   GL214515   6.948   5.965  14.914  0.0819  0.2870  0.2321
12015DOPC   C1A14516   6.797   5.514  14.619  0.0346 -0.0567  0.1423
12015DOPC   D2A14517   6.778   5.210  14.215  0.1337 -0.1563 -0.0917
12015DOPC   C3A14518   7.153   4.923  14.143  0.2074 -0.1481 -0.0215
12015DOPC   C4A14519   7.468   4.597  14.288 -0.1220 -0.0340  0.1203
12015DOPC   C1B14520   6.829   6.314  14.552 -0.1088  0.1226  0.0448
12015DOPC   D2B14521   6.627   6.385  14.135 -0.2891 -0.4090 -0.2761
12015DOPC   C3B14522   6.457   6.165  13.754 -0.4000  0.3737 -0.1468
12015DOPC   C4B14523   6.569   5.763  13.430  0.1354 -0.0312  0.1333
12016DOPC   NC314524   4.835   4.926  15.623  0.1817 -0.0804 -0.2487
12016DOPC   PO414525   4.741   4.536  15.631 -0.0966 -0.0789  0.1259
12016DOPC   GL114526   4.644   4.552  15.247 -0.3000 -0.4624  0.2503
12016DOPC   GL214527   4.569   4.802  15.263  0.0438 -0.2069 -0.0787
12016DOPC   C1A14528   4.781   4.471  14.812  0.0364  0.0241 -0.2061
12016DOPC   D2A14529   5.073   4.510  14.424  0.0090  0.1674 -0.1198
12016DOPC   C3A14530   5.080   4.975  14.341  0.2208  0.0026 -0.2003
12016DOPC   C4A14531   4.878   5.416  14.211 -0.2277 -0.2039  0.1904
12016DOPC   C1B14532   4.801   4.979  14.934 -0.3003 -0.0303 -0.0659
12016DOPC   D2B14533   5.263   4.830  14.822  0.1377 -0.0802  0.0389
12016DOPC   C3B14534   5.567   5.046  14.588 -0.2034 -0.1571 -0.0257
12016DOPC   C4B14535   5.940   5.288  14.580  0.1400  0.2120  0.0457
12017DOPC   NC314536   3.956   2.450  15.920 -0.3398  0.1789  0.1811
12017DOPC   PO414537   4.096   2.114  15.847 -0.0329 -0.0887  0.0019
12017DOPC   GL114538   4.309   2.110  15.426 -0.1170 -0.2068  0.0307
12017DOPC   GL214539   4.250   2.455  15.452 -0.0999  0.0953 -0.0927
12017DOPC   C1A14540   4.219   2.013  15.043  0.3198  0.0236 -0.3011
12017DOPC   D2A14541   4.132   1.770  14.574 -0.1848  0.2017 -0.0428
12017DOPC   C3A14542   3.954   1.633  14.139 -0.1045 -0.1051  0.1492
12017DOPC   C4A14543   3.767   1.461  13.772  0.0225 -0.0099 -0.1659
12017DOPC   C1B14544   4.329   2.463  14.994  0.4372  0.1906  0.1002
12017DOPC   D2B14545   4.361   2.308  14.542  0.0848 -0.2747 -0.0255
12017DOPC   C3B14546   4.081   2.161  14.204 -0.0824 -0.0863  0.1318
12017DOPC   C4B14547   3.887   2.100  13.746 -0.0570 -0.0892 -0.5029
12018DOPC   NC314548  19.008   6.670  14.754 -0.0568 -0.1216  0.0641
12018DOPC   PO414549  18.974   6.991  14.516 -0.1997  0.0542  0.0410
12018DOPC   GL114550  19.220   7.178  14.227  0.0370  0.2486 -0.0559
12018DOPC   GL214551  19.306   6.958  14.113 -0.0323  0.0089 -0.1149
12018DOPC   C1A14552  19.048   7.367  13.923 -0.3603 -0.0515  0.1700
12018DOPC   D2A14553  18.714   7.637  13.773 -0.2121  0.0666 -0.1906
12018DOPC   C3A14554  18.473   7.879  13.466 -0.0759  0.1917  0.0407
12018DOPC   C4A14555  18.526   7.986  12.954  0.0209  0.0985  0.0352
12018DOPC   C1B14556  19.213   6.992  13.665 -0.1930  0.1823 -0.2423
12018DOPC   D2B14557  18.979   6.954  13.229  0.3135  0.0806  0.0121
12018DOPC   C3B14558  19.154   6.816  12.804 -0.0426  0.0746 -0.3030
12018DOPC   C4B14559  19.066   6.595  12.385  0.0162 -0.0108 -0.0683
12019DOPC   NC314560  19.999   1.417  14.823 -0.2165 -0.0585  0.0712
12019DOPC   PO414561  20.088   1.082  14.570 -0.0748 -0.2313 -0.1900
12019DOPC   GL114562  20.145   0.880  14.133  0.1137 -0.1127  0.0241
12019DOPC   GL214563  20.397   0.753  14.266  0.0960 -0.1372  0.2564
12019DOPC   C1A14564  19.938   1.009  13.788  0.1426 -0.1171  0.3564
12019DOPC   D2A14565  19.658   1.179  13.369 -0.2353  0.0560  0.0552
12019DOPC   C3A14566  19.503   1.246  12.930  0.1840  0.1411  0.0509
12019DOPC   C4A14567  19.185   0.974  12.630  0.0717  0.2282  0.1618
12019DOPC   C1B14568  20.659   1.010  14.093 -0.0841  0.1190 -0.0735
12019DOPC   D2B14569  21.043   1.092  13.758  0.0125  0.1543  0.0993
12019DOPC   C3B14570  21.426   1.275  13.578 -0.0391  0.1632 -0.0782
12019DOPC   C4B14571  21.738   1.499  13.324 -0.1585 -0.0858  0.0273
12020DOPC   NC314572  19.694   7.194  14.805 -0.0489 -0.1358  0.1306
12020DOPC   PO414573  19.494   6.943  14.548  0.1968 -0.0915 -0.0838
12020DOPC   GL114574  19.746   6.774  14.345 -0.0356 -0.3569 -0.1420
12020DOPC   GL214575  19.851   6.546  14.390  0.1420  0.2318 -0.0805
12020DOPC   C1A14576  19.651   6.754  13.902 -0.2294  0.0836 -0.1506
12020DOPC   D2A14577  19.653   6.568  13.433  0.1102  0.1569  0.0531
12020DOPC   C3A14578  19.669   6.723  13.022 -0.0778  0.1633  0.1841
12020DOPC   C4A14579  19.566   6.941  12.591 -0.1243 -0.1778  0.3086
12020DOPC   C1B14580  20.076   6.346  14.076  0.0645  0.0970  0.5115
12020DOPC   D2B14581  20.032   6.297  13.573 -0.2106 -0.0359 -0.0612
12020DOPC   C3B14582  20.314   6.003  13.343  0.0527  0.3143 -0.1086
12020DOPC   C4B14583  20.329   5.892  12.887 -0.1009  0.1086 -0.1185
12021DOPC   NC314584   6.408   0.528  15.040  0.1344  0.0121  0.2284
12021DOPC   PO414585   6.099   0.705  15.132  0.0855  0.0911 -0.1910
12021DOPC   GL114586   5.897   0.744  14.860  0.2195 -0.0473 -0.0205
12021DOPC   GL214587   6.100   0.885  14.696  0.0294 -0.0249 -0.0857
12021DOPC   C1A14588   5.666   0.755  14.450 -0.0998 -0.0554 -0.2358
12021DOPC   D2A14589   5.346   0.694  14.072  0.0650  0.0782 -0.1193
12021DOPC   C3A14590   5.196   0.617  13.632 -0.1532 -0.1345  0.1333
12021DOPC   C4A14591   4.893   0.380  13.283  0.0295 -0.0345 -0.1151
12021DOPC   C1B14592   6.099   1.046  14.261 -0.0640 -0.3073  0.2060
12021DOPC   D2B14593   6.050   1.143  13.766 -0.0009  0.0937 -0.0469
12021DOPC   C3B14594   6.174   0.932  13.460 -0.1014  0.0509  0.3143
12021DOPC   C4B14595   6.308   0.678  13.040  0.1714  0.2259 -0.0474
12022DOPC   NC314596  22.343   1.868  14.510  0.0676 -0.0367  0.0008
12022DOPC   PO414597  22.278   1.503  14.656  0.3328  0.2854 -0.1269
12022DOPC   GL114598  22.325   1.379  14.300 -0.0469 -0.3247  0.0098
12022DOPC   GL214599  22.323   1.075  14.388  0.0061 -0.2314 -0.1145
12022DOPC   C1A14600  22.312   1.526  13.855 -0.3226 -0.0660 -0.3032
12022DOPC   D2A14601  22.259   1.454  13.380  0.2132 -0.1281  0.2941
12022DOPC   C3A14602  22.020   1.440  12.958 -0.0616 -0.3528 -0.0421
12022DOPC   C4A14603  21.848   1.698  12.580  0.0059 -0.1202  0.1468
12022DOPC   C1B14604  22.252   0.948  13.960 -0.1743 -0.5056  0.1525
12022DOPC   D2B14605  22.088   0.623  13.625 -0.0496 -0.0113 -0.0002
12022DOPC   C3B14606  21.965   0.521  13.219 -0.0775 -0.2701  0.0796
12022DOPC   C4B14607  21.585   0.602  12.888 -0.0210 -0.3046  0.0210
12023DOPC   NC314608  16.035   4.613  14.852  0.0472 -0.1140  0.0975
12023DOPC   PO414609  16.117   4.935  15.042  0.2676 -0.0764  0.0581
12023DOPC   GL114610  15.889   5.149  14.754  0.2158 -0.2291  0.1140
12023DOPC   GL214611  15.728   4.930  14.678  0.2193 -0.0212  0.1059
12023DOPC   C1A14612  15.961   5.304  14.377 -0.0979 -0.1161  0.1038
12023DOPC   D2A14613  15.902   5.339  13.918  0.0018  0.0998  0.0565
12023DOPC   C3A14614  15.932   4.953  13.605 -0.1396 -0.1030 -0.5345
12023DOPC   C4A14615  15.760   4.730  13.211  0.0328 -0.1552  0.0310
12023DOPC   C1B14616  15.761   4.662  14.383  0.0276 -0.0057 -0.2660
12023DOPC   D2B14617  15.799   4.347  13.921  0.2035 -0.0662  0.0839
12023DOPC   C3B14618  16.080   4.464  13.587 -0.4540 -0.0932 -0.0583
12023DOPC   C4B14619  16.313   4.729  13.241  0.0320  0.2266 -0.0195
12024DOPC   NC314620  29.857   4.492  15.342  0.2514  0.0245  0.1625
12024DOPC   PO414621  29.636   4.846  15.414 -0.1263 -0.2680 -0.3392
12024DOPC   GL114622  29.590   5.093  15.038 -0.0149 -0.1966  0.1831
12024DOPC   GL214623  29.677   4.816  14.980  0.0696 -0.0054  0.0019
12024DOPC   C1A14624  29.690   5.443  14.897 -0.2012 -0.1697 -0.1532
12024DOPC   D2A14625  29.704   5.887  14.735 -0.0182 -0.0048 -0.0545
12024DOPC   C3A14626  29.709   5.897  14.272 -0.0671 -0.0623 -0.0148
12024DOPC   C4A14627  29.721   5.595  13.874  0.1073  0.1659  0.1137
12024DOPC   C1B14628  29.658   4.899  14.598  0.0350 -0.2192  0.0190
12024DOPC   D2B14629  29.947   5.050  14.153 -0.2502 -0.1036 -0.0440
12024DOPC   C3B14630  30.165   5.464  13.966 -0.0149  0.2334 -0.0218
12024DOPC   C4B14631  30.146   5.907  13.948  0.1015  0.2037  0.2707
12025DOPC   NC314632  15.418   7.678  15.122 -0.1701 -0.1975 -0.0038
12025DOPC   PO414633  15.236   8.042  15.055 -0.1391  0.2455 -0.4874
12025DOPC   GL114634  15.275   7.942  14.714 -0.0191  0.1868 -0.3494
12025DOPC   GL214635  15.568   7.837  14.710  0.1631 -0.1809  0.2408
12025DOPC   C1A14636  15.352   8.292  14.394  0.0021  0.1519  0.2430
12025DOPC   D2A14637  15.359   8.514  13.972  0.0858 -0.0278 -0.0230
12025DOPC   C3A14638  15.318   8.705  13.585  0.1194  0.2856  0.2427
12025DOPC   C4A14639  15.051   8.922  13.184  0.1018  0.1611 -0.0021
12025DOPC   C1B14640  15.627   7.802  14.289 -0.2180  0.1643 -0.0745
12025DOPC   D2B14641  15.597   7.865  13.819  0.2305 -0.1885 -0.2329
12025DOPC   C3B14642  15.721   7.493  13.528  0.2844 -0.1431 -0.1182
12025DOPC   C4B14643  15.906   7.176  13.261  0.2520  0.2308  0.0342
12026DOPC   NC314644   4.959   5.723  15.611  0.1538 -0.0291 -0.3587
12026DOPC   PO414645   5.178   5.596  15.297 -0.1510  0.0338  0.1049
12026DOPC   GL114646   5.199   5.668  14.904  0.0921  0.0474  0.2498
12026DOPC   GL214647   5.101   5.385  14.871  0.0416  0.2154  0.3406
12026DOPC   C1A14648   5.272   5.585  14.471  0.0352  0.0351 -0.0921
12026DOPC   D2A14649   5.447   5.322  14.118  0.0588  0.1271 -0.1197
12026DOPC   C3A14650   5.074   5.213  13.807  0.2290 -0.0553  0.0350
12026DOPC   C4A14651   4.671   5.179  13.484  0.3617 -0.2107  0.1268
12026DOPC   C1B14652   4.726   5.451  14.676 -0.2542 -0.0519 -0.0672
12026DOPC   D2B14653   4.353   5.222  14.434 -0.0273  0.4274  0.2156
12026DOPC   C3B14654   4.272   5.193  13.956  0.0662  0.0536 -0.0427
12026DOPC   C4B14655   4.331   4.802  13.681  0.6683 -0.0709  0.0873
12027DOPC   NC314656  15.987   3.337  14.538 -0.0671  0.2948 -0.1104
12027DOPC   PO414657  16.276   3.639  14.566  0.6328  0.1995  0.0602
12027DOPC   GL114658  16.313   3.741  14.199 -0.4994  0.1356  0.0966
12027DOPC   GL214659  16.475   4.006  14.150  0.3955  0.2094  0.0823
12027DOPC   C1A14660  16.128   3.436  13.956 -0.0486  0.3423  0.1275
12027DOPC   D2A14661  16.323   3.023  13.692 -0.0083  0.0422 -0.0802
12027DOPC   C3A14662  16.248   2.917  13.252  0.0707  0.2079 -0.2164
12027DOPC   C4A14663  16.351   3.095  12.827 -0.1703 -0.2209  0.1582
12027DOPC   C1B14664  16.482   3.814  13.760  0.2130 -0.1582  0.3548
12027DOPC   D2B14665  16.407   3.549  13.321 -0.0253  0.4135  0.0805
12027DOPC   C3B14666  16.102   3.737  13.006  0.0410 -0.0148  0.0635
12027DOPC   C4B14667  15.899   4.057  12.715  0.1781  0.1454  0.0002
12028DOPC   NC314668  30.443   6.013  15.401 -0.2344  0.0335 -0.0444
12028DOPC   PO414669  30.614   6.284  15.642 -0.1199 -0.2088  0.0222
12028DOPC   GL114670  30.656   6.544  15.293 -0.0415  0.0430 -0.1904
12028DOPC   GL214671  30.486   6.803  15.405  0.0798  0.0777 -0.0317
12028DOPC   C1A14672  30.807   6.663  14.929  0.1312  0.2548 -0.2480
12028DOPC   D2A14673  30.935   6.812  14.480 -0.1782  0.0419  0.1571
12028DOPC   C3A14674  30.892   6.670  14.014 -0.2427  0.0305  0.1109
12028DOPC   C4A14675  31.018   6.507  13.567  0.2181  0.1154 -0.1909
12028DOPC   C1B14676  30.227   6.791  15.061 -0.1809 -0.0130 -0.0606
12028DOPC   D2B14677  29.875   6.932  14.728 -0.0551 -0.0403  0.1668
12028DOPC   C3B14678  29.882   6.882  14.249  0.1042 -0.0741 -0.0966
12028DOPC   C4B14679  29.945   6.887  13.745 -0.0478 -0.0514  0.2539
12029DOPC   NC314680  16.798   6.431  15.187  0.1629  0.1017  0.2250
12029DOPC   PO414681  16.490   6.535  14.996 -0.2746  0.0029 -0.0341
12029DOPC   GL114682  16.438   6.549  14.610 -0.2708 -0.0429  0.2895
12029DOPC   GL214683  16.733   6.550  14.517  0.0670 -0.0248  0.1867
12029DOPC   C1A14684  16.233   6.723  14.297  0.3092 -0.0624  0.0932
12029DOPC   D2A14685  16.057   7.017  13.947  0.0661 -0.0709  0.0703
12029DOPC   C3A14686  15.900   6.771  13.559  0.2703  0.1839 -0.0007
12029DOPC   C4A14687  16.006   6.713  13.053  0.2359  0.0451 -0.3521
12029DOPC   C1B14688  16.811   6.492  14.067 -0.2639 -0.2724  0.0696
12029DOPC   D2B14689  16.873   6.641  13.621  0.0966 -0.0635 -0.0505
12029DOPC   C3B14690  16.675   6.678  13.190  0.0079  0.1258  0.0221
12029DOPC   C4B14691  16.582   6.948  12.757  0.2636 -0.0737 -0.2225
12030DOPC   NC314692  26.277   7.600  14.951 -0.0780 -0.1119  0.2197
12030DOPC   PO414693  25.883   7.689  14.906 -0.2354  0.0862 -0.0525
12030DOPC   GL114694  25.751   7.976  14.521  0.1925  0.2989  0.0258
12030DOPC   GL214695  26.026   7.916  14.545 -0.0696  0.0421  0.0338
12030DOPC   C1A14696  25.427   7.865  14.312 -0.0430 -0.1714  0.0856
12030DOPC   D2A14697  25.220   7.706  13.847  0.0115  0.0741  0.0464
12030DOPC   C3A14698  25.203   7.795  13.457  0.0574  0.0356 -0.1178
12030DOPC   C4A14699  25.337   7.947  12.982 -0.2351 -0.0734 -0.1305
12030DOPC   C1B14700  25.951   7.601  14.223  0.0448 -0.1323  0.0230
12030DOPC   D2B14701  25.703   7.876  13.874 -0.2595 -0.2849  0.1317
12030DOPC   C3B14702  25.930   8.195  13.593  0.0247  0.0115 -0.0204
12030DOPC   C4B14703  26.110   8.566  13.396  0.0903 -0.2601  0.2682
12031DOPC   NC314704   0.577   3.804  15.424  0.0785 -0.1835 -0.1092
12031DOPC   PO414705   0.271   4.068  15.394 -0.1640  0.0929  0.0306
12031DOPC   GL114706   0.050   3.836  15.141  0.3378 -0.1308 -0.0552
12031DOPC   GL214707   0.059   4.153  14.964  0.1404  0.2847 -0.5112
12031DOPC   C1A14708   0.063   3.421  14.977  0.2387  0.0142 -0.1803
12031DOPC   D2A14709  -0.057   3.066  14.702 -0.2306  0.0642 -0.2219
12031DOPC   C3A14710  -0.352   2.899  14.413  0.0223 -0.0557 -0.1526
12031DOPC   C4A14711  -0.357   2.623  14.029 -0.0225  0.2220 -0.1234
12031DOPC   C1B14712   0.362   4.283  14.645 -0.0495 -0.2295  0.2603
12031DOPC   D2B14713   0.513   3.973  14.327  0.2763 -0.0341  0.2153
12031DOPC   C3B14714   0.583   3.854  13.884  0.1770 -0.0044  0.1306
12031DOPC   C4B14715   0.316   3.755  13.469 -0.0007 -0.1741  0.1665
12032DOPC   NC314716  22.685   5.479  15.490  0.0854 -0.0266 -0.0594
12032DOPC   PO414717  22.540   5.356  15.125  0.1173 -0.0027  0.1918
12032DOPC   GL114718  22.592   5.350  14.665  0.2310  0.1628  0.1016
12032DOPC   GL214719  22.834   5.508  14.647 -0.1210  0.2063 -0.2525
12032DOPC   C1A14720  22.369   5.471  14.267  0.1162  0.1937  0.2910
12032DOPC   D2A14721  22.319   5.661  13.873  0.0079 -0.0239  0.0336
12032DOPC   C3A14722  22.650   5.551  13.615 -0.0492 -0.3845  0.1610
12032DOPC   C4A14723  23.034   5.292  13.379 -0.3166  0.1158 -0.0353
12032DOPC   C1B14724  22.804   5.778  14.295 -0.1309  0.1475 -0.0972
12032DOPC   D2B14725  22.875   6.049  13.869 -0.0205 -0.1259  0.1562
12032DOPC   C3B14726  22.840   6.066  13.415  0.0480 -0.1116  0.0382
12032DOPC   C4B14727  22.615   6.178  13.040  0.2055  0.0182  0.1257
12033DOPC   NC314728   6.960   3.902  15.190 -0.0300  0.2566 -0.1950
12033DOPC   PO414729   6.826   4.248  15.252  0.1240  0.1050 -0.0300
12033DOPC   GL114730   6.915   4.452  14.913  0.1841  0.1465  0.0388
12033DOPC   GL214731   7.166   4.301  14.917  0.1367  0.1300 -0.2014
12033DOPC   C1A14732   6.868   4.723  14.525 -0.0741 -0.0510 -0.4617
12033DOPC   D2A14733   6.683   4.752  14.075 -0.0282  0.0054 -0.1081
12033DOPC   C3A14734   6.534   4.900  13.643 -0.2225  0.1072  0.0218
12033DOPC   C4A14735   6.338   4.830  13.181 -0.1347  0.0126 -0.3816
12033DOPC   C1B14736   7.040   4.264  14.493 -0.2004  0.1991 -0.3534
12033DOPC   D2B14737   6.924   4.292  14.063  0.0592  0.3396 -0.1885
12033DOPC   C3B14738   6.541   4.343  13.735  0.0994  0.2107 -0.2920
12033DOPC   C4B14739   6.263   4.306  13.342 -0.0930  0.0591  0.1153
12034DOPC   NC314740   2.734   7.582  16.090  0.3518 -0.0684 -0.1779
12034DOPC   PO414741   2.787   7.734  15.726  0.0461  0.0209  0.1045
12034DOPC   GL114742   2.709   7.501  15.329 -0.1833 -0.2245 -0.3169
12034DOPC   GL214743   2.681   7.748  15.220  0.0045  0.0909  0.2476
12034DOPC   C1A14744   2.655   7.461  14.863 -0.0582  0.2966  0.0802
12034DOPC   D2A14745   2.670   7.312  14.366 -0.0280 -0.1014 -0.3247
12034DOPC   C3A14746   2.915   7.107  14.052 -0.1867 -0.2264  0.0935
12034DOPC   C4A14747   3.204   7.154  13.586 -0.3160  0.1534 -0.0918
12034DOPC   C1B14748   2.200   7.730  15.090 -0.3347 -0.2454 -0.2459
12034DOPC   D2B14749   2.188   7.887  14.626  0.3573 -0.0389  0.1901
12034DOPC   C3B14750   2.428   7.769  14.264  0.0210 -0.3466 -0.2614
12034DOPC   C4B14751   2.448   7.782  13.819 -0.0277 -0.2797 -0.1980
12035DOPC   NC314752  30.526   1.526  15.696  0.0077  0.0810  0.0829
12035DOPC   PO414753  30.377   1.846  15.447 -0.1400  0.0621 -0.2676
12035DOPC   GL114754  30.313   1.748  15.096 -0.1954 -0.3083 -0.0872
12035DOPC   GL214755  30.039   1.613  15.078 -0.2834 -0.1291  0.2989
12035DOPC   C1A14756  30.501   1.541  14.649  0.0386 -0.0814  0.0673
12035DOPC   D2A14757  30.773   1.502  14.237 -0.1718  0.0400 -0.0193
12035DOPC   C3A14758  30.800   1.438  13.777  0.0478  0.0226 -0.0527
12035DOPC   C4A14759  30.673   1.365  13.379  0.0698 -0.1643 -0.1346
12035DOPC   C1B14760  29.975   1.643  14.651  0.0821  0.0074  0.4433
12035DOPC   D2B14761  30.278   1.674  14.210  0.1269  0.3006 -0.0201
12035DOPC   C3B14762  30.346   1.301  13.976 -0.0578 -0.0557  0.2568
12035DOPC   C4B14763  30.295   0.921  13.658 -0.0455 -0.1599 -0.0661
12036DOPC   NC314764   0.866   7.409  15.831 -0.2372  0.2613 -0.1232
12036DOPC   PO414765   1.302   7.467  15.877 -0.1753  0.1763 -0.2249
12036DOPC   GL114766   1.337   7.434  15.454 -0.3432  0.0158 -0.0369
12036DOPC   GL214767   1.440   7.677  15.435  0.2198 -0.0187  0.1239
12036DOPC   C1A14768   1.350   7.103  15.151 -0.0526  0.0055  0.0858
12036DOPC   D2A14769   1.487   6.758  14.803 -0.1125 -0.0413  0.0719
12036DOPC   C3A14770   1.751   6.975  14.446  0.0462 -0.0152 -0.1126
12036DOPC   C4A14771   1.776   6.868  13.959  0.0443 -0.3563  0.3149
12036DOPC   C1B14772   1.216   7.815  15.097  0.0230  0.1127  0.3757
12036DOPC   D2B14773   1.150   7.811  14.620  0.2387  0.4326 -0.0271
12036DOPC   C3B14774   1.231   7.596  14.257 -0.1914  0.2981 -0.1172
12036DOPC   C4B14775   1.091   7.463  13.800 -0.0249 -0.3014 -0.0568
12037DOPC   NC314776  26.430   2.961  14.778  0.0189 -0.3745 -0.0623
12037DOPC   PO414777  26.101   2.744  14.842 -0.1544 -0.0281  0.1094
12037DOPC   GL114778  25.716   2.913  14.733 -0.3088 -0.2019 -0.1946
12037DOPC   GL214779  25.841   3.033  14.512  0.0663  0.1845 -0.1126
12037DOPC   C1A14780  25.475   2.666  14.518  0.0677 -0.0661 -0.0377
12037DOPC   D2A14781  25.444   2.325  14.212  0.0154  0.0437 -0.0761
12037DOPC   C3A14782  25.718   2.198  13.849 -0.1688 -0.3109  0.0875
12037DOPC   C4A14783  25.828   1.904  13.467 -0.2572 -0.2012  0.0870
12037DOPC   C1B14784  25.590   3.147  14.129 -0.1085 -0.0290 -0.2420
12037DOPC   D2B14785  25.535   3.382  13.680 -0.0698  0.6845 -0.6366
12037DOPC   C3B14786  25.648   3.175  13.282  0.2097 -0.3173 -0.1791
12037DOPC   C4B14787  26.017   2.966  13.064  0.0678  0.2427 -0.0133
12038DOPC   NC314788  24.002   1.899  15.296  0.1129 -0.0424 -0.1005
12038DOPC   PO414789  24.141   1.594  15.117 -0.1082 -0.0105 -0.0201
12038DOPC   GL114790  24.226   1.365  14.746  0.1802  0.1456 -0.0897
12038DOPC   GL214791  24.471   1.522  14.758 -0.2958 -0.4381  0.1105
12038DOPC   C1A14792  24.122   1.356  14.347 -0.0549  0.0902  0.1704
12038DOPC   D2A14793  24.166   1.200  13.888  0.1487  0.1467 -0.1573
12038DOPC   C3A14794  24.321   0.845  13.657 -0.2633 -0.0042  0.1005
12038DOPC   C4A14795  24.496   0.505  13.367 -0.1891 -0.1698 -0.0667
12038DOPC   C1B14796  24.618   1.658  14.329 -0.0789 -0.1674  0.1346
12038DOPC   D2B14797  24.881   1.751  13.949 -0.3326 -0.2728 -0.3059
12038DOPC   C3B14798  24.791   1.793  13.476 -0.1339 -0.0145 -0.0275
12038DOPC   C4B14799  24.431   1.923  13.167 -0.1189 -0.0443  0.1239
12039DOPC   NC314800  18.780   2.692  14.953 -0.1527  0.0850 -0.3554
12039DOPC   PO414801  18.644   3.055  14.937  0.2673  0.1111 -0.0380
12039DOPC   GL114802  18.605   3.169  14.527  0.1310 -0.2346  0.1336
12039DOPC   GL214803  18.589   3.420  14.497  0.0050  0.0858 -0.1839
12039DOPC   C1A14804  18.409   3.128  14.125 -0.1018 -0.0567  0.2133
12039DOPC   D2A14805  18.396   3.125  13.611 -0.0129  0.0126  0.1605
12039DOPC   C3A14806  18.289   2.780  13.379 -0.1355 -0.1569 -0.0019
12039DOPC   C4A14807  18.384   2.541  12.977 -0.2748 -0.0923  0.2902
12039DOPC   C1B14808  18.703   3.592  14.093 -0.1061 -0.1159 -0.1054
12039DOPC   D2B14809  18.746   3.932  13.707  0.0672 -0.0177 -0.2505
12039DOPC   C3B14810  18.812   4.224  13.316 -0.0580 -0.0375 -0.1090
12039DOPC   C4B14811  18.636   4.734  13.348  0.0663  0.1066 -0.3148
12040DOPC   NC314812   5.920   6.610  15.767  0.3286  0.1188  0.2371
12040DOPC   PO414813   5.590   6.544  15.497  0.1100  0.1033  0.0839
12040DOPC   GL114814   5.582   6.469  15.127 -0.0546 -0.0046  0.2014
12040DOPC   GL214815   5.605   6.153  15.178  0.1447 -0.0311 -0.0339
12040DOPC   C1A14816   5.713   6.416  14.739  0.0991  0.0637  0.1013
12040DOPC   D2A14817   5.659   6.280  14.235  0.0995 -0.2219 -0.1701
12040DOPC   C3A14818   5.789   5.965  13.880 -0.0426 -0.0350 -0.0216
12040DOPC   C4A14819   5.671   5.559  13.608 -0.1173  0.2385 -0.2203
12040DOPC   C1B14820   5.579   5.900  14.797  0.1672 -0.0479  0.1030
12040DOPC   D2B14821   5.776   5.781  14.341  0.1320  0.1103  0.0806
12040DOPC   C3B14822   5.900   5.376  14.088 -0.0630 -0.2427  0.1184
12040DOPC   C4B14823   5.812   4.931  14.057  0.0359 -0.3855  0.0749
12041DOPC   NC314824   1.297   3.215  15.557  0.1433 -0.2240 -0.0653
12041DOPC   PO414825   1.692   3.183  15.461 -0.1901  0.0906 -0.1379
12041DOPC   GL114826   1.558   3.252  15.142  0.0828 -0.1296  0.0199
12041DOPC   GL214827   1.509   3.511  15.119  0.2054  0.4805  0.1968
12041DOPC   C1A14828   1.583   3.117  14.713 -0.2343 -0.0258 -0.0065
12041DOPC   D2A14829   1.410   2.987  14.201 -0.4886 -0.0650  0.1981
12041DOPC   C3A14830   1.492   2.894  13.722 -0.0920  0.3703 -0.1651
12041DOPC   C4A14831   1.672   2.791  13.251 -0.1144  0.0824  0.2911
12041DOPC   C1B14832   1.815   3.597  14.714 -0.0691  0.2142 -0.1033
12041DOPC   D2B14833   2.164   3.643  14.338 -0.1562  0.1313 -0.0927
12041DOPC   C3B14834   2.243   3.546  13.916  0.1198  0.0199 -0.2343
12041DOPC   C4B14835   2.377   3.207  13.610  0.0986 -0.0662 -0.3246
12042DOPC   NC314836   2.101   2.334  15.635 -0.0395  0.0464  0.1442
12042DOPC   PO414837   1.884   2.671  15.560 -0.0361 -0.1339  0.1102
12042DOPC   GL114838   1.774   2.862  15.132 -0.1941 -0.1962 -0.2304
12042DOPC   GL214839   1.479   2.815  15.216  0.2532  0.0175 -0.1030
12042DOPC   C1A14840   1.996   2.844  14.794 -0.1536 -0.0359 -0.2005
12042DOPC   D2A14841   1.925   3.110  14.380  0.2993  0.3218 -0.0030
12042DOPC   C3A14842   1.760   3.202  13.937  0.0589 -0.1571  0.0409
12042DOPC   C4A14843   1.790   3.354  13.466 -0.0889  0.0023 -0.2519
12042DOPC   C1B14844   1.173   2.896  14.903 -0.1312 -0.3222  0.0731
12042DOPC   D2B14845   0.871   3.162  14.609  0.0232 -0.1953 -0.1555
12042DOPC   C3B14846   0.972   3.335  14.238 -0.0860  0.3410 -0.0547
12042DOPC   C4B14847   1.042   3.600  13.896 -0.1586 -0.1473  0.1456
12043DOPC   NC314848  27.688   0.505  15.392  0.0097 -0.1138 -0.2178
12043DOPC   PO414849  27.459   0.766  15.229 -0.0643 -0.1617  0.0541
12043DOPC   GL114850  27.625   0.915  14.943 -0.3053  0.0332  0.3442
12043DOPC   GL214851  27.520   1.154  14.786 -0.2970  0.1927  0.1260
12043DOPC   C1A14852  27.891   0.708  14.629 -0.1579  0.1308 -0.1557
12043DOPC   D2A14853  28.233   0.645  14.264 -0.3335 -0.0027 -0.0489
12043DOPC   C3A14854  28.025   0.363  13.917  0.3123  0.2688 -0.3250
12043DOPC   C4A14855  27.590   0.278  13.575  0.1398  0.3898 -0.2659
12043DOPC   C1B14856  27.225   1.071  14.544  0.0682 -0.2497 -0.0243
12043DOPC   D2B14857  26.975   0.906  14.116 -0.1403 -0.1176  0.0616
12043DOPC   C3B14858  26.796   0.798  13.751 -0.0539  0.2453 -0.0429
12043DOPC   C4B14859  26.585   0.831  13.272 -0.1114 -0.3057  0.1843
12044DOPC   NC314860  15.469   5.945  14.790  0.1573  0.1205 -0.0024
12044DOPC   PO414861  15.623   6.317  14.957 -0.2069  0.3288 -0.2097
12044DOPC   GL114862  15.641   6.498  14.517 -0.1243 -0.3200  0.0962
12044DOPC   GL214863  15.487   6.235  14.468 -0.3772 -0.3977  0.0441
12044DOPC   C1A14864  15.775   6.915  14.363  0.0048  0.1153 -0.0969
12044DOPC   D2A14865  15.629   7.214  14.045  0.0574  0.0577  0.1587
12044DOPC   C3A14866  15.277   7.515  13.886  0.3922  0.1175  0.0206
12044DOPC   C4A14867  15.152   7.689  13.451  0.1799 -0.0283  0.0616
12044DOPC   C1B14868  15.221   6.120  14.083  0.0955 -0.0350  0.3161
12044DOPC   D2B14869  14.935   5.959  13.759 -0.1137 -0.0736 -0.0243
12044DOPC   C3B14870  14.753   6.283  13.418 -0.2603 -0.0620 -0.2350
12044DOPC   C4B14871  14.529   6.405  13.015 -0.1182  0.0031 -0.1421
12045DOPC   NC314872  24.451   6.173  15.491  0.1829 -0.2426  0.4739
12045DOPC   PO414873  24.190   5.933  15.306  0.1586  0.1307  0.2545
12045DOPC   GL114874  24.020   5.808  14.926 -0.1543 -0.1810  0.1393
12045DOPC   GL214875  24.292   5.817  14.818 -0.1395  0.0111  0.2207
12045DOPC   C1A14876  23.749   5.453  14.710 -0.2024 -0.0207  0.1634
12045DOPC   D2A14877  23.597   5.136  14.287  0.4616 -0.2305  0.0618
12045DOPC   C3A14878  23.679   4.769  13.967 -0.1301 -0.1069 -0.0383
12045DOPC   C4A14879  23.601   4.559  13.577 -0.2658 -0.1016 -0.0556
12045DOPC   C1B14880  24.368   5.767  14.388  0.0060  0.2011  0.0233
12045DOPC   D2B14881  24.201   5.790  13.919 -0.2334  0.0335 -0.0458
12045DOPC   C3B14882  24.250   6.119  13.582 -0.3829 -0.0205  0.2881
12045DOPC   C4B14883  23.988   6.534  13.399 -0.2549 -0.1494 -0.2566
12046DOPC   NC314884   5.265   6.901  15.309 -0.3340  0.2885 -0.1327
12046DOPC   PO414885   4.936   7.007  15.481  0.0373 -0.1156 -0.1936
12046DOPC   GL114886   4.673   6.966  15.166  0.2483  0.1341 -0.1002
12046DOPC   GL214887   4.784   6.698  15.091  0.1096 -0.1702 -0.0173
12046DOPC   C1A14888   4.350   6.831  14.856  0.1015 -0.1528  0.4084
12046DOPC   D2A14889   4.015   6.686  14.576 -0.1173 -0.2834 -0.0104
12046DOPC   C3A14890   3.512   6.746  14.601 -0.0237 -0.2467  0.3098
12046DOPC   C4A14891   3.071   6.906  14.459  0.1849  0.1234 -0.3232
12046DOPC   C1B14892   4.758   6.520  14.653 -0.0506 -0.0188 -0.2584
12046DOPC   D2B14893   4.687   6.478  14.141  0.0870 -0.1681 -0.2371
12046DOPC   C3B14894   4.357   6.142  13.978  0.3076 -0.0967 -0.0694
12046DOPC   C4B14895   4.104   5.706  13.923  0.3004 -0.2330 -0.0313
12047DOPC   NC314896  17.376   7.286  14.976 -0.3061 -0.0983 -0.0542
12047DOPC   PO414897  17.682   7.417  14.813 -0.0282  0.2194  0.0628
12047DOPC   GL114898  17.672   7.236  14.359  0.1814  0.2253 -0.0590
12047DOPC   GL214899  17.457   7.270  14.235 -0.1109  0.0595 -0.0652
12047DOPC   C1A14900  17.754   7.084  13.927 -0.1748  0.0205  0.1642
12047DOPC   D2A14901  17.610   6.797  13.530 -0.0177 -0.0826 -0.0047
12047DOPC   C3A14902  17.705   6.441  13.289  0.2302 -0.1716  0.1563
12047DOPC   C4A14903  17.675   5.964  13.196 -0.1289  0.0514  0.0140
12047DOPC   C1B14904  17.490   7.503  13.834 -0.3112 -0.0294 -0.0314
12047DOPC   D2B14905  17.551   7.569  13.355 -0.1477  0.1178  0.2019
12047DOPC   C3B14906  17.134   7.529  13.133 -0.0294  0.0085  0.0281
12047DOPC   C4B14907  16.900   7.757  12.747  0.0382  0.1934  0.0220
12048DOPC   NC314908  14.163   6.578  15.266 -0.0752 -0.2812  0.1298
12048DOPC   PO414909  13.878   6.474  15.019  0.0685 -0.0970 -0.0549
12048DOPC   GL114910  13.891   6.629  14.601 -0.0546  0.4613 -0.1545
12048DOPC   GL214911  13.604   6.630  14.512 -0.0739 -0.1096 -0.0160
12048DOPC   C1A14912  14.126   6.604  14.198 -0.2179  0.1148  0.1348
12048DOPC   D2A14913  14.345   6.450  13.717 -0.1728 -0.1412 -0.0856
12048DOPC   C3A14914  14.100   6.321  13.382 -0.0593 -0.0691  0.1151
12048DOPC   C4A14915  13.860   6.064  13.064  0.3649  0.1194 -0.3807
12048DOPC   C1B14916  13.555   6.493  14.105 -0.2095  0.0869 -0.1679
12048DOPC   D2B14917  13.788   6.541  13.670  0.0704 -0.2732  0.1596
12048DOPC   C3B14918  13.726   6.664  13.218 -0.1038  0.1441 -0.0559
12048DOPC   C4B14919  13.780   7.010  12.891 -0.2561 -0.1924 -0.3635
12049DOPC   NC314920  19.943   3.619  14.867  0.1661 -0.2217 -0.1972
12049DOPC   PO414921  20.171   3.946  14.737  0.0645  0.0315 -0.1919
12049DOPC   GL114922  20.300   3.787  14.321 -0.0201  0.1921 -0.1566
12049DOPC   GL214923  20.004   3.718  14.383 -0.2734  0.0847  0.0586
12049DOPC   C1A14924  20.394   3.944  13.965  0.2804  0.0771 -0.2198
12049DOPC   D2A14925  20.621   3.909  13.536 -0.0871 -0.0108 -0.0535
12049DOPC   C3A14926  20.611   4.248  13.214  0.0954 -0.0667  0.2634
12049DOPC   C4A14927  20.436   4.574  12.957  0.1146  0.1415  0.1502
12049DOPC   C1B14928  19.930   3.657  13.966 -0.2097  0.3396 -0.2313
12049DOPC   D2B14929  19.831   3.573  13.476 -0.0788 -0.0320 -0.0731
12049DOPC   C3B14930  19.606   3.913  13.219  0.2240  0.1357 -0.1309
12049DOPC   C4B14931  19.408   4.332  13.011  0.1997  0.1809 -0.1349
12050DOPC   NC314932   5.139   7.725  15.489  0.0933 -0.0780 -0.4569
12050DOPC   PO414933   5.362   7.371  15.493 -0.2213  0.1761  0.1136
12050DOPC   GL114934   5.411   7.255  15.088 -0.3162 -0.1707  0.1484
12050DOPC   GL214935   5.468   7.493  14.963 -0.0025 -0.2657  0.4010
12050DOPC   C1A14936   5.641   6.942  14.920  0.2220 -0.0726  0.1122
12050DOPC   D2A14937   6.060   6.816  14.667  0.2114  0.1092 -0.1320
12050DOPC   C3A14938   6.157   7.077  14.383  0.1493  0.2337 -0.0160
12050DOPC   C4A14939   6.389   7.326  14.083  0.0103 -0.1261 -0.0880
12050DOPC   C1B14940   5.577   7.699  14.560 -0.1343 -0.3917 -0.0257
12050DOPC   D2B14941   5.545   7.697  14.057 -0.2098  0.0227 -0.0226
12050DOPC   C3B14942   5.259   7.622  13.709 -0.0936  0.3227  0.2338
12050DOPC   C4B14943   5.029   7.253  13.531  0.0359  0.1523 -0.3329
12051DOPC   NC314944   3.266   5.648  15.718  0.1120  0.0182 -0.1393
12051DOPC   PO414945   2.949   5.480  15.594 -0.1487 -0.2204  0.0117
12051DOPC   GL114946   2.686   5.672  15.251  0.1543  0.0642  0.1807
12051DOPC   GL214947   2.977   5.728  15.198  0.3647  0.1013  0.0806
12051DOPC   C1A14948   2.556   5.674  14.817  0.0626 -0.0205 -0.3334
12051DOPC   D2A14949   2.364   5.682  14.273  0.2741 -0.0023  0.1400
12051DOPC   C3A14950   2.623   5.572  13.864  0.4548  0.1182 -0.2558
12051DOPC   C4A14951   2.912   5.578  13.501  0.0627  0.0057 -0.2269
12051DOPC   C1B14952   3.040   5.784  14.732  0.0432  0.0832  0.1234
12051DOPC   D2B14953   3.260   5.999  14.327  0.1183 -0.0464  0.2185
12051DOPC   C3B14954   2.939   5.956  13.941 -0.2084  0.0357 -0.1027
12051DOPC   C4B14955   2.712   6.060  13.544 -0.1436 -0.0115 -0.0429
12052DOPC   NC314956   6.184   3.658  14.857 -0.2530  0.1575  0.4632
12052DOPC   PO414957   6.358   3.951  15.093  0.1220  0.0137  0.0948
12052DOPC   GL114958   6.568   4.190  14.775  0.2860 -0.0992  0.1629
12052DOPC   GL214959   6.758   3.967  14.748 -0.1964  0.1794  0.0865
12052DOPC   C1A14960   6.519   4.386  14.395 -0.0211 -0.2449 -0.1609
12052DOPC   D2A14961   6.203   4.453  14.050  0.2994 -0.0382 -0.1098
12052DOPC   C3A14962   6.072   4.162  13.771  0.0190  0.1396 -0.0141
12052DOPC   C4A14963   5.795   4.144  13.327 -0.1665  0.0980  0.1240
12052DOPC   C1B14964   6.696   3.752  14.451  0.3365  0.1555  0.0272
12052DOPC   D2B14965   6.392   3.499  14.165  0.0499  0.0448  0.2459
12052DOPC   C3B14966   5.978   3.547  13.930 -0.0408  0.0482  0.0784
12052DOPC   C4B14967   5.659   3.795  13.638  0.1074 -0.2189 -0.1284
12053DOPC   NC314968  27.932   1.448  15.500  0.1637 -0.1635 -0.0741
12053DOPC   PO414969  27.871   1.230  15.196  0.0465 -0.1679  0.4121
12053DOPC   GL114970  27.955   1.298  14.827 -0.1775  0.0041  0.1371
12053DOPC   GL214971  28.159   1.070  14.798  0.1958  0.0794 -0.2178
12053DOPC   C1A14972  27.978   1.674  14.673  0.0365  0.1681  0.2968
12053DOPC   D2A14973  28.040   2.058  14.387 -0.4061 -0.2923  0.0182
12053DOPC   C3A14974  27.884   2.430  14.116 -0.0514 -0.2228 -0.1762
12053DOPC   C4A14975  27.916   2.922  14.065 -0.0552  0.2435  0.3368
12053DOPC   C1B14976  28.085   1.212  14.407 -0.2326  0.2245 -0.1097
12053DOPC   D2B14977  27.915   1.567  14.170  0.0079  0.1962 -0.1452
12053DOPC   C3B14978  27.750   1.415  13.753 -0.3388 -0.0923  0.3355
12053DOPC   C4B14979  27.578   1.378  13.251  0.1924  0.0212 -0.4100
12054DOPC   NC314980  28.087   0.784  15.138 -0.0156 -0.0813 -0.1175
12054DOPC   PO414981  28.386   0.727  15.383  0.3576 -0.3384  0.0385
12054DOPC   GL114982  28.477   0.945  15.031 -0.2608  0.4300  0.0595
12054DOPC   GL214983  28.686   1.025  15.150 -0.1299  0.0830  0.2894
12054DOPC   C1A14984  28.578   0.886  14.663 -0.0259  0.3265  0.2247
12054DOPC   D2A14985  28.773   0.829  14.228 -0.4107 -0.2017 -0.1149
12054DOPC   C3A14986  28.937   0.515  14.030  0.1562 -0.1051  0.0787
12054DOPC   C4A14987  29.030   0.107  13.785  0.2738  0.2783  0.0708
12054DOPC   C1B14988  29.024   0.904  14.950 -0.0204  0.1618 -0.0782
12054DOPC   D2B14989  29.574   0.948  14.965 -0.0095  0.2651 -0.1026
12054DOPC   C3B14990  29.627   1.236  14.600 -0.0282  0.2257  0.0686
12054DOPC   C4B14991  29.746   1.521  14.179  0.0519 -0.0818  0.2186
12055DOPC   NC314992   1.693   6.303  16.062  0.0166 -0.0902 -0.0051
12055DOPC   PO414993   1.487   6.181  15.773  0.1673  0.1038 -0.0091
12055DOPC   GL114994   1.555   6.340  15.414 -0.2701 -0.1135  0.1085
12055DOPC   GL214995   1.490   6.608  15.488  0.3204  0.0101 -0.0216
12055DOPC   C1A14996   1.525   6.324  14.978 -0.0942  0.0821 -0.0759
12055DOPC   D2A14997   1.472   6.285  14.466 -0.0200  0.0259  0.0947
12055DOPC   C3A14998   1.645   6.414  14.088  0.0170  0.2296 -0.1082
12055DOPC   C4A14999   1.835   6.460  13.644  0.1873 -0.2307 -0.2919
12055DOPC   C1B15000   1.173   6.572  15.165 -0.3404 -0.2355  0.1402
12055DOPC   D2B15001   0.999   6.805  14.800 -0.0736  0.0951 -0.0696
12055DOPC   C3B15002   0.884   6.758  14.391 -0.0998 -0.2750 -0.1380
12055DOPC   C4B15003   0.784   7.104  14.035  0.1945 -0.2953  0.0122
12056DOPC   NC315004   8.037   5.038  15.328 -0.0999  0.2077 -0.0567
12056DOPC   PO415005   7.707   5.143  15.128  0.0971 -0.1110 -0.0520
12056DOPC   GL115006   7.664   5.107  14.640  0.0870  0.2065  0.1152
12056DOPC   GL215007   7.819   5.397  14.696  0.3522 -0.1557 -0.0256
12056DOPC   C1A15008   7.628   5.178  14.203 -0.1020 -0.2614 -0.2728
12056DOPC   D2A15009   7.479   5.041  13.772  0.3912 -0.2057 -0.0000
12056DOPC   C3A15010   7.120   4.860  13.536  0.1291 -0.4360  0.0424
12056DOPC   C4A15011   6.775   4.552  13.374 -0.2053  0.0657  0.3791
12056DOPC   C1B15012   7.668   5.613  14.400  0.4095 -0.3403 -0.0761
12056DOPC   D2B15013   7.552   5.804  13.946  0.3060  0.2331 -0.1084
12056DOPC   C3B15014   7.648   5.958  13.466 -0.1273  0.0317 -0.1446
12056DOPC   C4B15015   7.717   5.976  13.024  0.1846 -0.0415  0.1135
12057DOPC   NC315016   2.447   1.991  15.578 -0.0496  0.0697  0.2960
12057DOPC   PO415017   2.664   2.316  15.702  0.1744  0.1101 -0.0612
12057DOPC   GL115018   2.854   2.524  15.252 -0.2915 -0.0195  0.3695
12057DOPC   GL215019   2.593   2.403  15.252 -0.0454  0.3473  0.0982
12057DOPC   C1A15020   2.947   2.481  14.842 -0.1665  0.1942 -0.1792
12057DOPC   D2A15021   3.149   2.405  14.445  0.1882  0.0932 -0.0915
12057DOPC   C3A15022   3.086   2.194  14.078  0.0154  0.0192  0.0262
12057DOPC   C4A15023   3.028   1.963  13.555 -0.3191  0.0667  0.5481
12057DOPC   C1B15024   2.494   2.368  14.804  0.2110  0.0630 -0.1073
12057DOPC   D2B15025   2.242   2.533  14.418  0.1408 -0.0084  0.0873
12057DOPC   C3B15026   2.120   2.260  14.088 -0.2297 -0.1011  0.0662
12057DOPC   C4B15027   2.105   2.012  13.607  0.1359  0.0265  0.3244
12058DOPC   NC315028  28.302   4.793  15.138  0.3625 -0.0784  0.1603
12058DOPC   PO415029  27.998   4.607  15.024 -0.2016  0.0551  0.0529
12058DOPC   GL115030  28.030   4.701  14.669  0.0327  0.1709  0.1192
12058DOPC   GL215031  27.722   4.782  14.582 -0.1692  0.0012 -0.2899
12058DOPC   C1A15032  28.080   4.902  14.233 -0.0751  0.2924  0.1155
12058DOPC   D2A15033  27.892   4.837  13.777  0.0571  0.1574  0.0364
12058DOPC   C3A15034  27.858   5.037  13.284  0.3212  0.2234 -0.1477
12058DOPC   C4A15035  27.850   4.883  12.746 -0.1546 -0.0287 -0.3297
12058DOPC   C1B15036  27.592   4.965  14.201 -0.2219 -0.2703 -0.0073
12058DOPC   D2B15037  27.402   5.135  13.742 -0.0861 -0.2101  0.0140
12058DOPC   C3B15038  27.246   5.472  13.469 -0.0552 -0.0303  0.0588
12058DOPC   C4B15039  26.918   5.826  13.249 -0.0682  0.2045  0.0749
12059DOPC   NC315040  30.238   2.327  15.248  0.0509 -0.1906  0.0187
12059DOPC   PO415041  30.561   2.589  15.217  0.0711 -0.0454  0.2814
12059DOPC   GL115042  30.817   2.492  14.939  0.0457  0.3150 -0.0798
12059DOPC   GL215043  30.552   2.459  14.776  0.0438 -0.1033  0.1141
12059DOPC   C1A15044  31.050   2.462  14.570  0.0113 -0.0073  0.1343
12059DOPC   D2A15045  31.474   2.602  14.334 -0.1975 -0.0787  0.1062
12059DOPC   C3A15046  31.464   2.733  13.895  0.1470  0.0793  0.1045
12059DOPC   C4A15047  31.458   3.162  13.641 -0.1346 -0.2210 -0.0184
12059DOPC   C1B15048  30.528   2.461  14.363 -0.1198  0.1332 -0.0712
12059DOPC   D2B15049  30.516   2.401  13.891 -0.1208  0.0250  0.1117
12059DOPC   C3B15050  30.864   2.354  13.630  0.0629 -0.0558 -0.0120
12059DOPC   C4B15051  31.108   2.264  13.187 -0.0967 -0.1033  0.0522
12060DOPC   NC315052   8.520   3.725  14.413  0.1095  0.2207  0.0987
12060DOPC   PO415053   8.539   3.381  14.588  0.1046 -0.0197  0.0752
12060DOPC   GL115054   8.721   3.120  14.407 -0.0221 -0.2169 -0.3376
12060DOPC   GL215055   8.449   3.169  14.138 -0.3904 -0.0688 -0.3526
12060DOPC   C1A15056   8.458   2.695  14.340 -0.1531  0.1822 -0.3186
12060DOPC   D2A15057   8.155   2.368  14.168 -0.0937 -0.1272 -0.2017
12060DOPC   C3A15058   7.960   2.290  13.730  0.1001 -0.0416 -0.0511
12060DOPC   C4A15059   7.662   2.369  13.321 -0.5813  0.2188 -0.0647
12060DOPC   C1B15060   8.562   2.925  13.844 -0.0404 -0.2005 -0.0714
12060DOPC   D2B15061   8.495   2.795  13.413 -0.1665 -0.1262  0.2012
12060DOPC   C3B15062   8.531   2.539  13.030 -0.1235  0.2111 -0.3484
12060DOPC   C4B15063   8.708   2.392  12.538  0.0462  0.0730 -0.2074
12061DOPC   NC315064  18.958   5.496  14.525  0.1566 -0.3440 -0.1399
12061DOPC   PO415065  19.177   5.817  14.630 -0.3437 -0.0157  0.1198
12061DOPC   GL115066  19.119   5.880  14.219  0.1037 -0.2889  0.2635
12061DOPC   GL215067  18.838   5.966  14.123  0.0836  0.0508  0.0445
12061DOPC   C1A15068  19.389   5.726  13.834  0.3490  0.1310 -0.0904
12061DOPC   D2A15069  19.652   5.441  13.535 -0.4195 -0.3638  0.3546
12061DOPC   C3A15070  19.380   5.326  13.235  0.0690 -0.1882  0.2777
12061DOPC   C4A15071  18.924   5.149  13.262 -0.0423 -0.3449 -0.2075
12061DOPC   C1B15072  18.843   6.040  13.684  0.2139 -0.1087 -0.1028
12061DOPC   D2B15073  18.669   6.145  13.138  0.1596  0.0334 -0.1436
12061DOPC   C3B15074  18.671   6.603  12.942 -0.2759 -0.1048 -0.1881
12061DOPC   C4B15075  18.661   7.068  12.824 -0.0743  0.1969  0.4062
12062DOPC   NC315076  20.645   4.964  14.799  0.1001 -0.0628  0.2615
12062DOPC   PO415077  20.941   5.224  14.903  0.1870 -0.4159  0.0218
12062DOPC   GL115078  21.173   5.308  14.499 -0.0499  0.0684 -0.0782
12062DOPC   GL215079  21.332   5.062  14.468  0.2592 -0.4285 -0.1094
12062DOPC   C1A15080  20.946   5.425  14.161 -0.0020  0.2007  0.0205
12062DOPC   D2A15081  20.828   5.436  13.691 -0.1935 -0.0833 -0.1376
12062DOPC   C3A15082  21.052   5.180  13.360  0.1391  0.1386 -0.2072
12062DOPC   C4A15083  21.217   5.048  12.919  0.0579 -0.1064 -0.3812
12062DOPC   C1B15084  21.469   4.796  14.151 -0.3202  0.3478  0.2759
12062DOPC   D2B15085  21.614   4.455  13.796  0.0928  0.1969  0.1322
12062DOPC   C3B15086  22.047   4.524  13.563 -0.0651 -0.0217 -0.0468
12062DOPC   C4B15087  22.415   4.592  13.275 -0.2128 -0.1450 -0.0304
12063DOPS   CNO15088   2.481   6.984  16.187  0.0356 -0.0012  0.0200
12063DOPS   PO415089   2.763   7.114  15.916  0.1359  0.0567 -0.1195
12063DOPS   GL115090   2.740   6.941  15.604 -0.1829 -0.2241  0.2727
12063DOPS   GL215091   2.997   6.757  15.486  0.3999 -0.4108 -0.0614
12063DOPS   C1A15092   2.491   7.099  15.254 -0.0785  0.0251 -0.1080
12063DOPS   D2A15093   2.045   7.109  14.979 -0.0960 -0.3773 -0.2101
12063DOPS   C3A15094   2.140   7.366  14.611  0.1709 -0.1274  0.2811
12063DOPS   C4A15095   2.117   7.222  14.114  0.0945  0.1188 -0.2145
12063DOPS   C1B15096   3.150   6.574  15.110  0.1027 -0.2367  0.0523
12063DOPS   D2B15097   3.154   6.362  14.651 -0.0189 -0.0310 -0.0615
12063DOPS   C3B15098   2.983   6.461  14.197 -0.4407  0.1917 -0.1860
12063DOPS   C4B15099   2.817   6.563  13.706  0.2216 -0.1109 -0.1433
12064DOPS   CNO15100  21.349   6.965  14.370 -0.0155 -0.1067 -0.3304
12064DOPS   PO415101  21.112   7.243  14.518 -0.0887 -0.2048  0.0938
12064DOPS   GL115102  20.999   7.225  14.122  0.1635 -0.1657 -0.1233
12064DOPS   GL215103  20.807   7.368  14.139 -0.0716  0.3339  0.1781
12064DOPS   C1A15104  21.114   7.319  13.722 -0.0106  0.1861  0.1673
12064DOPS   D2A15105  21.108   7.243  13.220  0.1470  0.1710 -0.1950
12064DOPS   C3A15106  21.234   7.470  12.854  0.0720  0.2083 -0.1853
12064DOPS   C4A15107  21.080   7.670  12.437  0.0929 -0.1378 -0.0650
12064DOPS   C1B15108  20.616   7.243  13.733  0.0465  0.1070  0.1545
12064DOPS   D2B15109  20.294   7.263  13.359  0.0971  0.1633  0.0388
12064DOPS   C3B15110  19.873   7.456  13.265 -0.0125 -0.2218  0.1849
12064DOPS   C4B15111  19.450   7.677  13.146 -0.0552  0.0901 -0.2100
12065DOPS   CNO15112  19.925   3.226  15.182  0.2328  0.3752  0.3179
12065DOPS   PO415113  20.283   3.326  15.118  0.0844  0.3269  0.1753
12065DOPS   GL115114  20.333   3.108  14.724  0.0283  0.2049 -0.2471
12065DOPS   GL215115  20.105   3.337  14.607 -0.1894  0.1987  0.0195
12065DOPS   C1A15116  20.547   3.021  14.394 -0.2266 -0.2876 -0.1955
12065DOPS   D2A15117  20.619   2.992  13.878  0.0078  0.1211 -0.0834
12065DOPS   C3A15118  20.741   3.077  13.439 -0.1154 -0.4007 -0.0446
12065DOPS   C4A15119  20.822   3.254  13.052 -0.1143  0.1339  0.0486
12065DOPS   C1B15120  20.244   3.310  14.160  0.2328  0.0662  0.1792
12065DOPS   D2B15121  19.973   3.167  13.771  0.2420 -0.2496 -0.0667
12065DOPS   C3B15122  20.210   2.853  13.465  0.1250  0.0385  0.0960
12065DOPS   C4B15123  20.226   2.685  13.051  0.2564 -0.0055 -0.2423
12066DOPS   CNO15124  15.577   5.059  15.402  0.4685  0.0938 -0.2028
12066DOPS   PO415125  15.638   4.741  15.136 -0.0112 -0.2262  0.4159
12066DOPS   GL115126  15.473   4.600  14.836  0.1286 -0.2628  0.0648
12066DOPS   GL215127  15.628   4.325  14.792 -0.2003  0.0327  0.1040
12066DOPS   C1A15128  15.206   4.759  14.452 -0.1085  0.1599  0.1527
12066DOPS   D2A15129  15.112   4.893  13.973  0.1373 -0.2873  0.0570
12066DOPS   C3A15130  15.437   5.264  13.783  0.0510  0.0103 -0.0229
12066DOPS   C4A15131  15.739   5.496  13.423  0.0319  0.3722 -0.2327
12066DOPS   C1B15132  15.571   4.150  14.365  0.0754  0.0737  0.2328
12066DOPS   D2B15133  15.471   3.899  13.911 -0.0219  0.0166 -0.1989
12066DOPS   C3B15134  15.669   3.621  13.685 -0.1345 -0.2427  0.1875
12066DOPS   C4B15135  15.860   3.314  13.312  0.0667 -0.3980  0.0973
12067DOPS   CNO15136  26.234   5.663  14.893 -0.4736 -0.0542  0.1495
12067DOPS   PO415137  26.220   5.909  14.652 -0.1826  0.0444 -0.1851
12067DOPS   GL115138  26.029   5.827  14.245  0.0610  0.4613 -0.1013
12067DOPS   GL215139  26.277   5.782  14.246 -0.2389  0.0567  0.0436
12067DOPS   C1A15140  25.968   5.740  13.804 -0.0787  0.1699  0.1432
12067DOPS   D2A15141  25.981   5.375  13.487  0.0718  0.5189 -0.2122
12067DOPS   C3A15142  25.836   5.012  13.180 -0.3423  0.1253 -0.1015
12067DOPS   C4A15143  25.880   4.547  12.941  0.0159 -0.1986 -0.1655
12067DOPS   C1B15144  26.598   5.966  13.999 -0.0208 -0.0128  0.1063
12067DOPS   D2B15145  26.986   6.105  13.660  0.1845  0.1046 -0.3419
12067DOPS   C3B15146  27.385   5.937  13.719  0.4650  0.0401  0.2075
12067DOPS   C4B15147  27.691   5.687  14.063 -0.0515  0.1221  0.2761
12068DOPS   CNO15148   2.478   5.276  16.296  0.2340  0.2354 -0.2624
12068DOPS   PO415149   2.644   5.370  15.978  0.0222 -0.3813  0.0809
12068DOPS   GL115150   2.481   5.401  15.557  0.1968  0.0907  0.3473
12068DOPS   GL215151   2.572   5.158  15.554 -0.2005  0.1869  0.1839
12068DOPS   C1A15152   2.235   5.628  15.203 -0.1102 -0.0379  0.1160
12068DOPS   D2A15153   2.122   5.580  14.709 -0.2325  0.2557  0.1917
12068DOPS   C3A15154   2.034   5.264  14.394 -0.3859  0.0215  0.1188
12068DOPS   C4A15155   2.038   5.052  13.953  0.0985 -0.0282 -0.1954
12068DOPS   C1B15156   2.493   5.220  15.109  0.0322 -0.0743  0.0970
12068DOPS   D2B15157   2.513   5.204  14.598  0.0551 -0.1815  0.0043
12068DOPS   C3B15158   2.518   5.087  14.163 -0.4351 -0.0470 -0.2480
12068DOPS   C4B15159   2.417   5.021  13.710 -0.0538 -0.3221  0.1967
12069DOPS   CNO15160  15.296   3.129  15.048 -0.1000 -0.0293  0.1668
12069DOPS   PO415161  14.936   3.036  14.998  0.2515 -0.4064  0.1988
12069DOPS   GL115162  14.809   3.073  14.646 -0.1036 -0.0746 -0.1451
12069DOPS   GL215163  14.948   2.712  14.615  0.0594  0.2011  0.0021
12069DOPS   C1A15164  14.724   3.243  14.199  0.1261 -0.1744 -0.0974
12069DOPS   D2A15165  14.650   3.272  13.695  0.2265  0.0220 -0.0336
12069DOPS   C3A15166  14.560   2.951  13.361  0.0714 -0.3180 -0.0969
12069DOPS   C4A15167  14.392   2.828  12.893  0.2458 -0.1890  0.0051
12069DOPS   C1B15168  14.879   2.503  14.221 -0.0290 -0.1117  0.1533
12069DOPS   D2B15169  14.809   2.502  13.724 -0.1029 -0.0280 -0.2463
12069DOPS   C3B15170  14.725   2.472  13.297  0.0096 -0.1732  0.4464
12069DOPS   C4B15171  14.546   2.308  12.849 -0.3450 -0.0164  0.1091
12070DOPS   CNO15172  18.975   2.201  14.798 -0.0292 -0.0626  0.0002
12070DOPS   PO415173  19.035   2.498  14.554  0.2956  0.1651  0.3797
12070DOPS   GL115174  18.734   2.499  14.179 -0.1672 -0.4916 -0.0459
12070DOPS   GL215175  18.845   2.741  14.114  0.0590  0.2934  0.0977
12070DOPS   C1A15176  18.368   2.497  13.898 -0.2293  0.3555  0.2256
12070DOPS   D2A15177  18.218   2.327  13.442 -0.0023  0.1651 -0.2292
12070DOPS   C3A15178  17.834   2.415  13.229 -0.0021  0.4469 -0.1260
12070DOPS   C4A15179  17.461   2.596  12.872 -0.1211 -0.1832 -0.0511
12070DOPS   C1B15180  18.830   2.810  13.686  0.1659 -0.3949 -0.1822
12070DOPS   D2B15181  18.749   2.807  13.213 -0.3430  0.2280  0.0437
12070DOPS   C3B15182  18.870   2.450  12.929 -0.0694  0.0925  0.0618
12070DOPS   C4B15183  18.982   2.081  12.671  0.0804  0.1824 -0.0129
12071DOPS   CNO15184  19.759   0.082  15.073  0.3815 -0.0041  0.0660
12071DOPS   PO415185  19.518  -0.167  14.892  0.1105 -0.1691 -0.1125
12071DOPS   GL115186  19.516  -0.262  14.425  0.2319  0.1536 -0.0752
12071DOPS   GL215187  19.694   0.042  14.507 -0.3792  0.2079  0.0449
12071DOPS   C1A15188  19.256  -0.104  14.202  0.0291 -0.3144 -0.2061
12071DOPS   D2A15189  19.123   0.052  13.725  0.1363  0.2928 -0.1439
12071DOPS   C3A15190  19.013   0.034  13.283 -0.1355  0.0552 -0.1296
12071DOPS   C4A15191  19.097  -0.015  12.791  0.1956  0.0176 -0.2774
12071DOPS   C1B15192  19.684   0.358  14.129  0.4039 -0.0669 -0.0216
12071DOPS   D2B15193  19.718   0.609  13.676  0.0006 -0.0108 -0.1555
12071DOPS   C3B15194  19.622   0.609  13.205 -0.0783 -0.1495  0.2243
12071DOPS   C4B15195  19.899   0.541  12.807 -0.3889 -0.1526  0.0724
12072DOPS   CNO15196  23.849   6.690  15.130 -0.2384  0.2692  0.2918
12072DOPS   PO415197  23.541   6.456  15.084 -0.2722  0.1422  0.1722
12072DOPS   GL115198  23.625   6.323  14.670  0.2806 -0.1128  0.0302
12072DOPS   GL215199  23.780   6.606  14.632 -0.1210  0.1992  0.0774
12072DOPS   C1A15200  23.633   6.001  14.386 -0.0201  0.3525  0.2050
12072DOPS   D2A15201  23.710   5.655  14.071  0.3939  0.2472  0.2203
12072DOPS   C3A15202  23.752   5.787  13.689 -0.0627 -0.0992  0.1319
12072DOPS   C4A15203  23.798   6.029  13.273  0.1039  0.4806  0.4448
12072DOPS   C1B15204  23.987   6.735  14.273  0.1631  0.0224  0.0496
12072DOPS   D2B15205  24.292   6.610  13.847 -0.3105 -0.1703 -0.1392
12072DOPS   C3B15206  24.533   6.521  13.455  0.2118  0.0146 -0.2075
12072DOPS   C4B15207  24.634   6.140  13.224  0.0490  0.1998  0.1228
12073DOPS   CNO15208  18.260   3.706  15.314 -0.3678 -0.1104 -0.2492
12073DOPS   PO415209  17.979   3.689  15.026 -0.3192  0.3135 -0.1611
12073DOPS   GL115210  18.144   3.826  14.712 -0.2808 -0.0633 -0.3807
12073DOPS   GL215211  18.181   3.556  14.624 -0.0459  0.3262 -0.1362
12073DOPS   C1A15212  18.494   3.916  14.488 -0.0364  0.1385  0.0265
12073DOPS   D2A15213  18.929   4.042  14.248 -0.1294 -0.0941 -0.0786
12073DOPS   C3A15214  19.225   4.055  13.910  0.0129 -0.2349  0.1840
12073DOPS   C4A15215  19.592   3.951  13.750  0.2091  0.3102  0.0351
12073DOPS   C1B15216  18.029   3.429  14.232 -0.0938 -0.2919  0.1221
12073DOPS   D2B15217  17.922   3.289  13.760 -0.1422  0.0064 -0.0925
12073DOPS   C3B15218  17.867   2.801  13.693 -0.0570  0.2396 -0.0214
12073DOPS   C4B15219  17.784   2.374  13.887 -0.0811  0.1984  0.0623
12074DOPS   CNO15220   7.794   1.365  15.219  0.2557 -0.1068 -0.0935
12074DOPS   PO415221   7.851   1.134  14.939  0.2944 -0.5219 -0.0173
12074DOPS   GL115222   7.696   1.124  14.478  0.4590  0.2896 -0.1796
12074DOPS   GL215223   7.672   1.418  14.504 -0.0075 -0.1223 -0.0805
12074DOPS   C1A15224   7.660   1.067  14.035  0.0211 -0.0423  0.0970
12074DOPS   D2A15225   7.548   0.949  13.555 -0.0339  0.0541 -0.2011
12074DOPS   C3A15226   7.296   0.617  13.306 -0.2244 -0.0730 -0.0618
12074DOPS   C4A15227   6.928   0.283  13.218  0.1487 -0.0265 -0.0513
12074DOPS   C1B15228   7.585   1.778  14.286  0.0503 -0.3619 -0.3959
12074DOPS   D2B15229   7.565   2.052  13.838  0.0114  0.0771 -0.0830
12074DOPS   C3B15230   7.253   2.013  13.534  0.0304  0.1157  0.1266
12074DOPS   C4B15231   7.000   1.846  13.190  0.1311 -0.2326  0.0518
12075DOPS   CNO15232  15.279   3.821  15.439 -0.0004 -0.2681  0.0205
12075DOPS   PO415233  15.119   3.891  15.091 -0.1302 -0.0584 -0.0664
12075DOPS   GL115234  15.234   4.083  14.744  0.0093  0.1296  0.0620
12075DOPS   GL215235  15.376   3.909  14.692  0.0743 -0.1011 -0.0664
12075DOPS   C1A15236  15.094   4.258  14.365  0.1972  0.3010  0.3214
12075DOPS   D2A15237  15.232   4.418  13.858 -0.3754 -0.2093  0.0784
12075DOPS   C3A15238  15.540   4.324  13.498  0.1643  0.2129  0.0456
12075DOPS   C4A15239  15.637   3.899  13.220  0.0873 -0.0297 -0.0437
12075DOPS   C1B15240  15.444   3.641  14.338 -0.1273 -0.0494 -0.3660
12075DOPS   D2B15241  15.260   3.340  13.957 -0.2314 -0.0551 -0.0309
12075DOPS   C3B15242  15.351   3.327  13.457  0.1277 -0.0783  0.0762
12075DOPS   C4B15243  15.553   3.507  12.988  0.2176 -0.2150  0.4545
12076DOPS   CNO15244   9.444   3.029  15.044 -0.0723  0.0123 -0.0526
12076DOPS   PO415245   9.172   2.885  14.804  0.0339  0.0900  0.1403
12076DOPS   GL115246   9.206   3.091  14.421  0.3469 -0.1900  0.2370
12076DOPS   GL215247   9.523   3.038  14.582 -0.0739  0.2234 -0.0591
12076DOPS   C1A15248   9.275   3.195  13.977 -0.0662 -0.0504 -0.1006
12076DOPS   D2A15249   8.838   3.378  13.882  0.2135 -0.1021  0.1030
12076DOPS   C3A15250   8.438   3.682  13.792  0.0873  0.2011 -0.0007
12076DOPS   C4A15251   8.040   3.858  13.977  0.1034  0.0904 -0.0117
12076DOPS   C1B15252   9.724   3.301  14.247  0.1193  0.3266 -0.3351
12076DOPS   D2B15253   9.803   3.473  13.791  0.3727 -0.2936 -0.3074
12076DOPS   C3B15254   9.619   3.351  13.395  0.0673  0.0081  0.0103
12076DOPS   C4B15255   9.932   3.222  13.051 -0.1306  0.0884  0.3290
12077DOPS   CNO15256   0.389   5.840  15.975 -0.0258 -0.0061  0.1712
12077DOPS   PO415257   0.170   6.051  15.708  0.1652 -0.0144 -0.3725
12077DOPS   GL115258   0.317   6.391  15.462  0.1464  0.3462  0.2786
12077DOPS   GL215259   0.123   6.585  15.561 -0.0401 -0.0786 -0.1597
12077DOPS   C1A15260   0.384   6.407  14.979 -0.1343  0.2055  0.0584
12077DOPS   D2A15261   0.502   6.499  14.489  0.1757 -0.0914  0.1249
12077DOPS   C3A15262   0.361   6.122  14.181 -0.0134 -0.0468 -0.0614
12077DOPS   C4A15263   0.220   5.583  14.107 -0.0853 -0.4571  0.1966
12077DOPS   C1B15264  -0.043   6.620  15.232  0.0408 -0.0000  0.0155
12077DOPS   D2B15265   0.094   6.751  14.729 -0.5562 -0.0654  0.2403
12077DOPS   C3B15266   0.514   6.985  14.656  0.0086  0.0599 -0.0971
12077DOPS   C4B15267   0.892   7.276  14.486  0.0637 -0.0237  0.2401
12078DOPS   CNO15268  29.291   3.618  14.989  0.1519  0.1321 -0.0252
12078DOPS   PO415269  29.424   3.277  15.143  0.2516  0.1460 -0.1065
12078DOPS   GL115270  29.597   3.125  14.681  0.2865  0.0404 -0.1009
12078DOPS   GL215271  29.373   3.343  14.660 -0.1965 -0.3672  0.2848
12078DOPS   C1A15272  29.513   2.746  14.581  0.1377  0.0648  0.2880
12078DOPS   D2A15273  29.560   2.380  14.222 -0.1478 -0.4443  0.0753
12078DOPS   C3A15274  29.681   2.264  13.807 -0.3907  0.0720  0.1911
12078DOPS   C4A15275  29.607   1.942  13.428 -0.0822  0.1148 -0.0680
12078DOPS   C1B15276  29.288   3.628  14.257 -0.0935  0.3154  0.1407
12078DOPS   D2B15277  29.240   3.597  13.805 -0.1796 -0.1831  0.0033
12078DOPS   C3B15278  29.405   3.238  13.546 -0.0492 -0.0327  0.0502
12078DOPS   C4B15279  29.767   2.915  13.562 -0.2269  0.1064 -0.0378
12079DOPS   CNO15280   3.403   6.102  15.931  0.1571 -0.0020  0.0969
12079DOPS   PO415281   3.041   6.059  15.827  0.1211 -0.2793 -0.2375
12079DOPS   GL115282   3.126   6.078  15.390  0.0776  0.1846  0.0992
12079DOPS   GL215283   2.856   6.182  15.352 -0.1515  0.1152 -0.4053
12079DOPS   C1A15284   3.359   6.106  15.054  0.1359 -0.1102  0.0060
12079DOPS   D2A15285   3.613   5.862  14.692 -0.1082 -0.2296  0.1498
12079DOPS   C3A15286   4.020   5.812  14.439 -0.2175  0.2043  0.1289
12079DOPS   C4A15287   4.443   5.699  14.258 -0.0003 -0.3397  0.0950
12079DOPS   C1B15288   2.779   6.167  14.904 -0.1008  0.1767 -0.0436
12079DOPS   D2B15289   2.707   6.031  14.447  0.1108  0.1527 -0.0955
12079DOPS   C3B15290   2.581   6.231  14.084  0.2003  0.1326 -0.2277
12079DOPS   C4B15291   2.349   6.384  13.630 -0.5185  0.1289  0.1307
12080DOPS   CNO15292  28.503   4.271  15.223 -0.1154 -0.3279  0.1007
12080DOPS   PO415293  28.278   4.102  15.011  0.3516 -0.0454 -0.1440
12080DOPS   GL115294  27.973   4.202  14.754  0.2301  0.4378  0.2957
12080DOPS   GL215295  28.000   3.952  14.648  0.1398  0.1037 -0.1169
12080DOPS   C1A15296  27.945   4.378  14.349 -0.0385 -0.1123  0.1453
12080DOPS   D2A15297  27.829   4.211  13.844  0.0788  0.4356  0.0183
12080DOPS   C3A15298  27.744   3.925  13.513  0.0179 -0.1528  0.1079
12080DOPS   C4A15299  27.633   3.634  13.215 -0.0167  0.0362  0.1518
12080DOPS   C1B15300  27.923   3.880  14.168 -0.0128  0.0670 -0.2131
12080DOPS   D2B15301  27.955   3.616  13.796  0.0598 -0.0714 -0.3005
12080DOPS   C3B15302  28.229   3.333  13.687 -0.1172 -0.3649  0.0437
12080DOPS   C4B15303  28.629   2.994  13.691 -0.1167  0.1644 -0.1209
12081DOPS   CNO15304  27.982   6.263  15.349 -0.0960 -0.0751 -0.2109
12081DOPS   PO415305  27.773   5.945  15.221 -0.0123  0.0932 -0.0356
12081DOPS   GL115306  27.765   6.002  14.872  0.1184  0.0031 -0.0661
12081DOPS   GL215307  28.024   6.243  14.884  0.1351 -0.2973 -0.2400
12081DOPS   C1A15308  27.523   5.877  14.527  0.2172 -0.1157  0.1122
12081DOPS   D2A15309  27.243   5.555  14.144  0.0607  0.0258 -0.0604
12081DOPS   C3A15310  26.898   5.625  13.805  0.1523  0.1595 -0.3313
12081DOPS   C4A15311  26.452   5.575  13.689  0.0895  0.2165  0.0026
12081DOPS   C1B15312  28.264   6.254  14.515  0.0749  0.0506  0.0871
12081DOPS   D2B15313  28.596   6.088  14.182 -0.1193 -0.2456  0.2174
12081DOPS   C3B15314  28.704   6.044  13.763 -0.0129  0.0050 -0.0216
12081DOPS   C4B15315  28.718   6.084  13.262 -0.2146 -0.0423  0.1641
12082DOPS   CNO15316   0.342   3.797  15.862  0.0450  0.0494 -0.0389
12082DOPS   PO415317   0.486   3.437  15.829 -0.0437  0.1915 -0.0774
12082DOPS   GL115318   0.745   3.281  15.459  0.2994 -0.3714  0.3188
12082DOPS   GL215319   0.904   3.420  15.516 -0.1351 -0.1330 -0.1881
12082DOPS   C1A15320   0.592   3.459  15.072 -0.1051 -0.0766  0.1098
12082DOPS   D2A15321   0.348   3.779  14.759  0.0197  0.0793  0.1311
12082DOPS   C3A15322   0.042   3.572  14.498 -0.1511  0.0758 -0.2488
12082DOPS   C4A15323  -0.361   3.411  14.385 -0.0929 -0.0107 -0.2986
12082DOPS   C1B15324   1.075   3.334  15.088 -0.4769 -0.1774 -0.1486
12082DOPS   D2B15325   1.251   3.538  14.693  0.0092  0.0390  0.2683
12082DOPS   C3B15326   1.463   3.528  14.262  0.1893 -0.1512 -0.2031
12082DOPS   C4B15327   1.802   3.689  13.988 -0.0956 -0.0429 -0.1032
12083DOPS   CNO15328  19.431   3.749  14.818 -0.1093  0.0860  0.0092
12083DOPS   PO415329  19.527   3.355  14.763 -0.3555 -0.0534  0.1700
12083DOPS   GL115330  19.702   3.422  14.426  0.0226 -0.1804 -0.0228
12083DOPS   GL215331  19.413   3.366  14.302 -0.0514 -0.0990 -0.0029
12083DOPS   C1A15332  19.811   3.060  14.290  0.1800  0.0873 -0.0978
12083DOPS   D2A15333  20.206   2.782  14.075  0.1441  0.2192  0.1497
12083DOPS   C3A15334  20.574   2.583  14.070 -0.1756  0.0750  0.1007
12083DOPS   C4A15335  20.694   2.190  13.859 -0.0563 -0.0834 -0.1367
12083DOPS   C1B15336  19.484   3.177  13.852  0.0203 -0.3454  0.0718
12083DOPS   D2B15337  19.196   3.042  13.502  0.2312 -0.1083 -0.0126
12083DOPS   C3B15338  19.321   3.253  13.101 -0.2521 -0.1007 -0.0267
12083DOPS   C4B15339  19.523   3.455  12.726 -0.1183 -0.2391  0.1539
12084DOPS   CNO15340   9.500   4.616  14.983  0.0279 -0.2446  0.0910
12084DOPS   PO415341   9.759   4.356  14.840  0.2896 -0.2173 -0.3363
12084DOPS   GL115342   9.790   4.345  14.426  0.2061 -0.1171 -0.1300
12084DOPS   GL215343   9.866   4.031  14.429  0.0179  0.1900  0.1648
12084DOPS   C1A15344   9.827   4.564  14.118 -0.0258  0.0875 -0.3323
12084DOPS   D2A15345   9.740   4.703  13.668 -0.2768 -0.1045  0.1542
12084DOPS   C3A15346   9.568   5.026  13.363 -0.0234 -0.2418  0.1922
12084DOPS   C4A15347   9.485   5.524  13.253 -0.2341  0.2221 -0.2324
12084DOPS   C1B15348   9.795   3.925  14.047  0.1847  0.2171  0.1237
12084DOPS   D2B15349   9.875   3.949  13.600  0.0196  0.1245 -0.1055
12084DOPS   C3B15350   9.771   3.806  13.168  0.0985 -0.0784 -0.1117
12084DOPS   C4B15351   9.703   3.568  12.749  0.2948  0.1227  0.1558
12085DOPS   CNO15352  11.455   2.440  15.645 -0.1611 -0.3004  0.0245
12085DOPS   PO415353  11.438   2.288  15.297  0.3461 -0.0948  0.3014
12085DOPS   GL115354  11.485   2.229  14.886  0.0907  0.1700  0.1847
12085DOPS   GL215355  11.803   2.232  14.898  0.0974  0.2883 -0.4056
12085DOPS   C1A15356  11.389   2.460  14.522 -0.1704 -0.1846 -0.5498
12085DOPS   D2A15357  11.490   2.534  14.069  0.0073  0.1081  0.2703
12085DOPS   C3A15358  11.036   2.592  13.889 -0.1653 -0.0433 -0.0738
12085DOPS   C4A15359  10.969   2.724  13.426 -0.1770 -0.0460  0.2166
12085DOPS   C1B15360  11.930   2.432  14.465  0.1018 -0.1909 -0.0239
12085DOPS   D2B15361  11.956   2.569  14.015  0.1915  0.3006  0.0726
12085DOPS   C3B15362  11.738   2.612  13.642 -0.0063  0.0273 -0.0798
12085DOPS   C4B15363  11.437   2.717  13.260  0.0552  0.0633 -0.2435
12086DOPS   CNO15364  18.769   5.247  14.979 -0.0484 -0.0708  0.1569
12086DOPS   PO415365  18.500   5.476  14.763 -0.3116  0.0761 -0.3652
12086DOPS   GL115366  18.278   5.397  14.427  0.2300 -0.1341 -0.1371
12086DOPS   GL215367  18.035   5.458  14.506 -0.1086 -0.1409  0.2648
12086DOPS   C1A15368  18.494   5.222  14.071 -0.1303  0.1678 -0.1215
12086DOPS   D2A15369  18.729   4.843  13.885  0.0588  0.0517 -0.0157
12086DOPS   C3A15370  18.898   4.461  13.752  0.1679 -0.1834 -0.0654
12086DOPS   C4A15371  19.255   4.220  13.452 -0.4615 -0.2564 -0.2290
12086DOPS   C1B15372  17.754   5.596  14.245 -0.1671 -0.2135  0.1045
12086DOPS   D2B15373  17.500   5.479  13.800  0.0952  0.2527  0.2139
12086DOPS   C3B15374  17.504   5.477  13.283  0.2363 -0.1133 -0.3786
12086DOPS   C4B15375  17.385   5.577  12.799  0.0975  0.1537  0.1777
12087DOPS   CNO15376  20.397   6.705  14.823 -0.0995 -0.0521  0.2605
12087DOPS   PO415377  20.720   6.488  14.729 -0.1213 -0.2089 -0.0495
12087DOPS   GL115378  20.731   6.552  14.235 -0.2176 -0.4673 -0.1949
12087DOPS   GL215379  21.052   6.634  14.243 -0.2416  0.3566  0.2635
12087DOPS   C1A15380  20.600   6.437  13.784 -0.0631 -0.2270  0.4279
12087DOPS   D2A15381  20.431   6.452  13.334  0.0643 -0.1218 -0.3977
12087DOPS   C3A15382  20.174   6.364  12.976  0.1735  0.0335 -0.1867
12087DOPS   C4A15383  19.937   6.525  12.601 -0.0584 -0.0670  0.3302
12087DOPS   C1B15384  21.234   6.832  13.876 -0.0507 -0.1522 -0.2130
12087DOPS   D2B15385  21.573   7.153  13.671  0.0460  0.2544 -0.1199
12087DOPS   C3B15386  21.874   6.856  13.318 -0.3179 -0.0154 -0.2024
12087DOPS   C4B15387  22.070   6.724  12.859  0.1256  0.1878 -0.1406
12088DOPC   NC315388  18.611   5.912  10.132  0.0257  0.1519 -0.1730
12088DOPC   PO415389  18.670   6.061  10.484  0.0774 -0.0735 -0.0404
12088DOPC   GL115390  18.901   5.919  10.818  0.0860  0.0389  0.0294
12088DOPC   GL215391  18.712   6.148  10.938  0.1163  0.1498 -0.1637
12088DOPC   C1A15392  19.342   5.852  10.950  0.0798  0.1098 -0.2649
12088DOPC   D2A15393  19.762   5.983  11.136 -0.1167  0.0479  0.1111
12088DOPC   C3A15394  19.847   6.160  11.612  0.2267  0.3691  0.2078
12088DOPC   C4A15395  19.541   6.502  11.763  0.3213 -0.0263 -0.0509
12088DOPC   C1B15396  18.507   6.049  11.255 -0.1960  0.1341  0.1124
12088DOPC   D2B15397  18.256   5.953  11.690  0.2120  0.2159 -0.1480
12088DOPC   C3B15398  18.299   6.041  12.147  0.0276  0.3402  0.0058
12088DOPC   C4B15399  18.263   6.032  12.690 -0.0175  0.0566  0.3643
12089DOPC   NC315400  13.551   2.309  10.677  0.1420  0.1401 -0.3082
12089DOPC   PO415401  13.379   2.629  10.903  0.1621  0.3370  0.1354
12089DOPC   GL115402  13.367   2.582  11.325 -0.1433 -0.1387 -0.1644
12089DOPC   GL215403  13.639   2.403  11.356 -0.0037  0.0339  0.2930
12089DOPC   C1A15404  13.135   2.460  11.665 -0.0253  0.1725  0.0196
12089DOPC   D2A15405  13.007   2.540  12.121  0.2764  0.2679 -0.0536
12089DOPC   C3A15406  13.130   2.545  12.611  0.1059 -0.1880 -0.0350
12089DOPC   C4A15407  13.276   2.699  13.096 -0.0539  0.2980 -0.0909
12089DOPC   C1B15408  13.652   2.418  11.797 -0.1380  0.1079 -0.3107
12089DOPC   D2B15409  13.902   2.618  12.156  0.0735  0.1940  0.0446
12089DOPC   C3B15410  14.256   2.439  12.496  0.0120 -0.0796 -0.1129
12089DOPC   C4B15411  14.488   2.028  12.414  0.1895  0.0984 -0.3230
12090DOPC   NC315412   2.608   4.343  11.649 -0.0867 -0.0640  0.1931
12090DOPC   PO415413   2.504   3.981  11.521 -0.1207 -0.1642 -0.0388
12090DOPC   GL115414   2.619   3.827  11.875  0.0282  0.3077  0.1640
12090DOPC   GL215415   2.328   3.925  12.035 -0.0779 -0.2609 -0.1044
12090DOPC   C1A15416   2.928   3.942  12.176  0.1024 -0.0403 -0.1046
12090DOPC   D2A15417   3.176   4.034  12.635  0.0721 -0.0031  0.0861
12090DOPC   C3A15418   3.041   4.305  12.931 -0.0995 -0.2811  0.0665
12090DOPC   C4A15419   2.811   4.670  13.119  0.0828 -0.0988 -0.1817
12090DOPC   C1B15420   2.143   3.709  12.410  0.0778 -0.3860  0.0846
12090DOPC   D2B15421   1.900   3.630  12.886 -0.0351  0.1127 -0.0659
12090DOPC   C3B15422   1.831   3.846  13.289 -0.0298  0.0814 -0.1046
12090DOPC   C4B15423   1.787   4.116  13.724  0.0547  0.3835 -0.0056
12091DOPC   NC315424  13.313   1.473  11.174 -0.1326  0.1328 -0.0420
12091DOPC   PO415425  13.413   1.139  11.023 -0.0513 -0.1181  0.0705
12091DOPC   GL115426  13.603   0.865  11.332  0.0035  0.0714  0.0853
12091DOPC   GL215427  13.842   1.108  11.245  0.1830  0.0906 -0.0859
12091DOPC   C1A15428  13.526   0.762  11.833  0.3123  0.1624  0.1495
12091DOPC   D2A15429  13.392   0.563  12.273 -0.0852 -0.0470  0.1247
12091DOPC   C3A15430  13.661   0.228  12.344  0.0978  0.3179 -0.2003
12091DOPC   C4A15431  13.749  -0.181  12.119 -0.0178  0.2734  0.1551
12091DOPC   C1B15432  13.750   1.433  11.474 -0.0850  0.0721 -0.0952
12091DOPC   D2B15433  13.691   1.752  11.803  0.0794 -0.2697  0.2026
12091DOPC   C3B15434  13.531   1.756  12.265  0.0825  0.0104 -0.2109
12091DOPC   C4B15435  13.268   1.939  12.637 -0.2436  0.2320  0.2453
12092DOPC   NC315436   3.711   1.573  11.741  0.1128  0.5227  0.0051
12092DOPC   PO415437   4.017   1.422  11.567  0.0095  0.1339  0.3776
12092DOPC   GL115438   4.297   1.532  11.813 -0.1944  0.1946 -0.0147
12092DOPC   GL215439   4.116   1.399  12.015 -0.1979  0.2901 -0.4876
12092DOPC   C1A15440   4.602   1.753  12.045  0.0985 -0.2116  0.0855
12092DOPC   D2A15441   4.848   1.929  12.427 -0.1577 -0.3293  0.0122
12092DOPC   C3A15442   4.954   1.830  12.839 -0.4248 -0.4148  0.1063
12092DOPC   C4A15443   5.013   1.540  13.255 -0.1020 -0.0432 -0.0380
12092DOPC   C1B15444   4.230   1.490  12.427  0.0814 -0.1970  0.1552
12092DOPC   D2B15445   4.347   1.977  12.541 -0.1679  0.1493  0.1607
12092DOPC   C3B15446   4.618   2.167  12.813  0.2142 -0.1620  0.0383
12092DOPC   C4B15447   4.803   2.362  13.218  0.0404 -0.0917 -0.1227
12093DOPC   NC315448  18.042   3.246  10.857 -0.0096 -0.1626 -0.2259
12093DOPC   PO415449  17.724   3.367  10.694 -0.1378  0.2105  0.0213
12093DOPC   GL115450  17.481   3.155  10.997 -0.1104  0.1182 -0.2723
12093DOPC   GL215451  17.220   3.120  10.850  0.0098  0.0247 -0.5076
12093DOPC   C1A15452  17.384   3.031  11.379 -0.3754 -0.1726 -0.1963
12093DOPC   D2A15453  17.160   2.887  11.814 -0.1337 -0.3449  0.1943
12093DOPC   C3A15454  17.318   2.633  12.150  0.2496 -0.2240  0.1301
12093DOPC   C4A15455  17.338   2.245  12.465 -0.0438  0.1590  0.2295
12093DOPC   C1B15456  16.893   3.080  11.195  0.2205 -0.2328 -0.1807
12093DOPC   D2B15457  16.617   2.719  11.495 -0.5672 -0.5119 -0.0153
12093DOPC   C3B15458  16.322   2.968  11.805 -0.0278 -0.0319  0.3283
12093DOPC   C4B15459  16.061   2.986  12.203 -0.2658  0.3657  0.0295
12094DOPC   NC315460  12.185   1.920  10.920 -0.3369  0.0714  0.1164
12094DOPC   PO415461  11.927   1.757  11.182 -0.0021  0.1417  0.0441
12094DOPC   GL115462  11.815   1.446  11.557  0.2013 -0.0527 -0.1040
12094DOPC   GL215463  11.988   1.564  11.691  0.1464 -0.1411  0.1086
12094DOPC   C1A15464  11.700   1.090  11.587  0.0655  0.2568  0.1170
12094DOPC   D2A15465  11.352   0.893  11.833 -0.0690 -0.0317  0.1648
12094DOPC   C3A15466  11.128   1.157  12.132  0.2872  0.0215 -0.0040
12094DOPC   C4A15467  11.057   1.438  12.559 -0.0492 -0.2287  0.1848
12094DOPC   C1B15468  11.817   1.689  12.096  0.0187 -0.0912 -0.1508
12094DOPC   D2B15469  11.691   1.527  12.614 -0.0625 -0.2554  0.2933
12094DOPC   C3B15470  11.408   1.496  12.956 -0.1909  0.1942  0.0619
12094DOPC   C4B15471  10.994   1.753  13.060  0.1088 -0.0083  0.0610
12095DOPC   NC315472  28.689   2.695  11.223 -0.0903  0.0556 -0.0461
12095DOPC   PO415473  28.560   3.098  11.283  0.1563  0.2358 -0.1755
12095DOPC   GL115474  28.529   3.144  11.721  0.2590  0.0709 -0.2601
12095DOPC   GL215475  28.261   3.038  11.790  0.1379 -0.1883 -0.1629
12095DOPC   C1A15476  28.393   3.374  12.099 -0.1161  0.0897 -0.2571
12095DOPC   D2A15477  28.367   3.775  12.444  0.1095 -0.0103  0.1285
12095DOPC   C3A15478  28.280   3.671  12.881  0.1655  0.0087  0.3626
12095DOPC   C4A15479  28.111   3.647  13.335  0.1242 -0.2767  0.0422
12095DOPC   C1B15480  28.173   2.855  12.197  0.1943 -0.1914  0.1734
12095DOPC   D2B15481  27.908   2.904  12.612 -0.2285  0.1354 -0.3966
12095DOPC   C3B15482  27.595   2.675  12.844  0.0477 -0.1114  0.5341
12095DOPC   C4B15483  27.394   2.213  12.900  0.0451  0.0292 -0.0622
12096DOPC   NC315484  17.702   0.238  10.911  0.1487 -0.2295 -0.2328
12096DOPC   PO415485  18.086   0.283  10.852 -0.0748  0.0733  0.0549
12096DOPC   GL115486  18.239   0.372  11.145  0.1232  0.2931 -0.0602
12096DOPC   GL215487  18.459   0.238  11.281 -0.0820  0.0263  0.0298
12096DOPC   C1A15488  18.047   0.582  11.428  0.0076  0.1519  0.2538
12096DOPC   D2A15489  17.832   0.850  11.785  0.0748  0.2804 -0.1889
12096DOPC   C3A15490  17.493   0.796  12.133  0.1444  0.4713  0.1178
12096DOPC   C4A15491  17.361   0.792  12.628  0.0443 -0.1138  0.0087
12096DOPC   C1B15492  18.325   0.286  11.704 -0.1554 -0.2238 -0.0825
12096DOPC   D2B15493  18.092   0.135  12.146 -0.0222 -0.0970  0.2619
12096DOPC   C3B15494  17.624   0.150  12.343  0.3062  0.2840  0.0690
12096DOPC   C4B15495  17.274  -0.199  12.457  0.1422  0.1231 -0.2838
12097DOPC   NC315496  15.198   3.216  11.018 -0.2032 -0.2133  0.2474
12097DOPC   PO415497  14.827   3.034  10.991 -0.0781 -0.1356  0.1575
12097DOPC   GL115498  14.813   3.060  11.329 -0.1356 -0.0602  0.0408
12097DOPC   GL215499  15.133   2.906  11.419 -0.0771 -0.4469 -0.0354
12097DOPC   C1A15500  14.953   3.335  11.640 -0.0343  0.0735  0.1494
12097DOPC   D2A15501  15.290   3.684  11.841  0.0185  0.0199  0.1127
12097DOPC   C3A15502  15.379   4.128  11.947 -0.1248 -0.0732  0.0322
12097DOPC   C4A15503  15.339   4.641  12.075 -0.1452 -0.0231 -0.1840
12097DOPC   C1B15504  15.115   2.631  11.698  0.3758  0.2601 -0.3611
12097DOPC   D2B15505  15.250   2.778  12.135 -0.0375  0.0944 -0.1451
12097DOPC   C3B15506  15.160   3.076  12.513 -0.1258  0.0214 -0.0645
12097DOPC   C4B15507  15.392   3.058  12.985  0.1365 -0.2662  0.3760
12098DOPC   NC315508  25.081   0.765  11.200  0.1999  0.0595 -0.1751
12098DOPC   PO415509  25.035   1.064  10.939  0.2543  0.0487 -0.1676
12098DOPC   GL115510  25.040   1.253  11.350 -0.0422  0.0206 -0.3110
12098DOPC   GL215511  24.858   1.474  11.306 -0.2513  0.1851  0.1771
12098DOPC   C1A15512  24.785   1.255  11.682 -0.0496 -0.2029  0.0438
12098DOPC   D2A15513  24.697   1.325  12.194  0.1855 -0.1408  0.1589
12098DOPC   C3A15514  24.414   1.272  12.543 -0.1819 -0.1148 -0.1755
12098DOPC   C4A15515  24.114   1.254  12.917 -0.1869 -0.1485 -0.2009
12098DOPC   C1B15516  24.810   1.793  11.611  0.1567 -0.0362  0.0426
12098DOPC   D2B15517  24.635   1.818  12.116 -0.0958  0.3115  0.0003
12098DOPC   C3B15518  24.575   1.708  12.536  0.0311  0.4244 -0.1436
12098DOPC   C4B15519  24.581   1.469  12.988 -0.0031  0.2680 -0.1505
12099DOPC   NC315520  17.110   4.126  10.538  0.1262  0.1170  0.1166
12099DOPC   PO415521  17.083   4.515  10.663  0.1187 -0.1747  0.2696
12099DOPC   GL115522  17.164   4.579  11.041  0.1355  0.3832 -0.0781
12099DOPC   GL215523  16.914   4.629  11.195  0.4281  0.2751  0.3011
12099DOPC   C1A15524  17.481   4.703  11.377  0.1977  0.2199 -0.0371
12099DOPC   D2A15525  17.912   4.704  11.640  0.0186 -0.0866 -0.0284
12099DOPC   C3A15526  17.996   4.416  11.961 -0.1773  0.1643 -0.0530
12099DOPC   C4A15527  18.061   4.113  12.355  0.0725  0.0261  0.0883
12099DOPC   C1B15528  16.916   4.807  11.580 -0.0506  0.4648  0.0852
12099DOPC   D2B15529  17.071   4.932  12.036 -0.3166  0.1236 -0.3088
12099DOPC   C3B15530  17.116   4.563  12.266  0.0439  0.0478  0.3221
12099DOPC   C4B15531  17.293   4.152  12.515  0.1848  0.2472 -0.0134
12100DOPC   NC315532  29.957   2.318  11.134  0.1233  0.3521  0.1863
12100DOPC   PO415533  30.326   2.289  11.232  0.0512 -0.2876  0.1905
12100DOPC   GL115534  30.555   2.163  11.592 -0.2379 -0.0972 -0.0396
12100DOPC   GL215535  30.364   2.216  11.749 -0.2473  0.1332  0.0097
12100DOPC   C1A15536  30.925   2.251  11.824 -0.0861  0.0605 -0.1510
12100DOPC   D2A15537  31.270   2.387  12.236  0.2928  0.1332  0.1689
12100DOPC   C3A15538  31.655   2.620  12.418  0.2376  0.0578  0.0218
12100DOPC   C4A15539  31.728   3.053  12.754  0.0191 -0.1139 -0.4058
12100DOPC   C1B15540  30.543   2.087  12.187  0.0594 -0.1121 -0.1337
12100DOPC   D2B15541  30.924   2.119  12.463  0.3187  0.0793 -0.0201
12100DOPC   C3B15542  31.264   2.315  12.714 -0.2018 -0.2823 -0.1488
12100DOPC   C4B15543  31.581   2.600  12.949  0.0576  0.1336 -0.0046
12101DOPC   NC315544  12.075   6.743  11.089  0.0670  0.1204  0.1515
12101DOPC   PO415545  12.406   6.892  10.882 -0.0471  0.1618  0.0465
12101DOPC   GL115546  12.450   6.804  11.311  0.0233 -0.2228  0.3771
12101DOPC   GL215547  12.556   7.083  11.302  0.4080  0.1019  0.1988
12101DOPC   C1A15548  12.712   6.546  11.533  0.0359 -0.2190  0.3844
12101DOPC   D2A15549  12.792   6.348  11.988 -0.2264 -0.1187  0.0011
12101DOPC   C3A15550  12.932   6.000  12.299 -0.0922  0.0031 -0.0658
12101DOPC   C4A15551  13.001   5.589  12.626 -0.0568  0.1156  0.1324
12101DOPC   C1B15552  12.386   7.442  11.613  0.1326  0.1135  0.1830
12101DOPC   D2B15553  12.192   7.771  11.975  0.2318  0.1784 -0.0391
12101DOPC   C3B15554  12.172   8.183  12.268  0.1835 -0.0104 -0.1916
12101DOPC   C4B15555  12.265   8.255  12.778  0.0764 -0.0812  0.0413
12102DOPC   NC315556   5.071   2.401  11.099  0.1652  0.1406 -0.1238
12102DOPC   PO415557   4.927   2.729  11.311 -0.2343 -0.0958 -0.0549
12102DOPC   GL115558   4.871   2.705  11.678 -0.1322  0.1074  0.2783
12102DOPC   GL215559   4.699   2.444  11.766  0.1817  0.3151  0.0432
12102DOPC   C1A15560   4.936   2.786  12.126  0.2706  0.0826 -0.0997
12102DOPC   D2A15561   5.071   3.095  12.573  0.0482 -0.0435  0.1667
12102DOPC   C3A15562   5.315   3.444  12.840 -0.3628 -0.1534  0.3987
12102DOPC   C4A15563   5.731   3.628  13.121  0.0605  0.1379  0.0208
12102DOPC   C1B15564   4.724   2.326  12.215  0.0738 -0.2721 -0.0074
12102DOPC   D2B15565   4.901   2.532  12.614  0.0752  0.0650 -0.4344
12102DOPC   C3B15566   4.761   2.847  12.950  0.2569 -0.0163  0.1157
12102DOPC   C4B15567   4.605   2.845  13.435  0.0325  0.1283 -0.1012
12103DOPC   NC315568  22.851   2.410  10.967 -0.2099 -0.1135  0.0730
12103DOPC   PO415569  22.602   2.660  10.786  0.0026 -0.1734  0.0922
12103DOPC   GL115570  22.429   2.766  11.138  0.1594  0.0887  0.1893
12103DOPC   GL215571  22.731   2.830  11.253 -0.0150  0.3964 -0.0662
12103DOPC   C1A15572  22.264   2.311  11.265  0.1868 -0.1690 -0.1444
12103DOPC   D2A15573  22.262   1.829  11.315 -0.1801  0.1581  0.0809
12103DOPC   C3A15574  22.440   1.509  11.609 -0.3797 -0.1201  0.5145
12103DOPC   C4A15575  22.458   1.223  12.015 -0.0439 -0.4263  0.1020
12103DOPC   C1B15576  22.858   2.823  11.722 -0.4052  0.1166 -0.1609
12103DOPC   D2B15577  23.065   3.108  12.110 -0.2030  0.1201  0.1141
12103DOPC   C3B15578  23.004   3.148  12.544  0.0935  0.0472 -0.1239
12103DOPC   C4B15579  23.033   3.031  13.022  0.4043  0.0010  0.1904
12104DOPC   NC315580  19.877   7.075  10.440  0.1582  0.1385  0.0820
12104DOPC   PO415581  19.670   7.280  10.691 -0.0712 -0.2035  0.0510
12104DOPC   GL115582  19.767   7.320  11.109 -0.0186 -0.1188  0.1652
12104DOPC   GL215583  19.685   7.023  11.073 -0.0980 -0.1399  0.1490
12104DOPC   C1A15584  19.843   7.458  11.567 -0.1549  0.2608  0.3911
12104DOPC   D2A15585  20.050   7.616  11.993 -0.1750  0.1931 -0.0038
12104DOPC   C3A15586  19.871   7.787  12.414 -0.1118 -0.1024 -0.1026
12104DOPC   C4A15587  19.868   7.813  12.901  0.1457 -0.0151  0.1582
12104DOPC   C1B15588  19.367   6.760  11.233 -0.4828 -0.2879 -0.0709
12104DOPC   D2B15589  19.061   6.591  11.665 -0.2941 -0.3783  0.1475
12104DOPC   C3B15590  18.757   6.802  11.956  0.1629 -0.0938  0.2246
12104DOPC   C4B15591  18.446   6.915  12.324 -0.3052  0.1175 -0.1012
12105DOPC   NC315592  15.494   4.908  11.240  0.3663  0.2588  0.0193
12105DOPC   PO415593  15.596   4.475  11.157 -0.0888  0.0665  0.1006
12105DOPC   GL115594  15.714   4.185  11.460  0.3349 -0.0342 -0.2466
12105DOPC   GL215595  16.000   4.160  11.250 -0.3890 -0.0075 -0.0689
12105DOPC   C1A15596  15.768   3.855  11.794 -0.3698  0.2007  0.1049
12105DOPC   D2A15597  15.762   3.934  12.247 -0.1015 -0.1348  0.1225
12105DOPC   C3A15598  15.469   3.761  12.577 -0.2706  0.2356 -0.1321
12105DOPC   C4A15599  15.120   3.479  12.769  0.1730 -0.4926  0.1530
12105DOPC   C1B15600  16.205   4.325  11.612  0.1183 -0.0520  0.0042
12105DOPC   D2B15601  16.606   4.567  11.895 -0.2121 -0.1831  0.4040
12105DOPC   C3B15602  16.554   4.819  12.242  0.0523 -0.1308 -0.0672
12105DOPC   C4B15603  16.568   4.875  12.751  0.2103 -0.2820  0.3150
12106DOPC   NC315604   0.436   7.714  11.778  0.1230 -0.2408  0.2273
12106DOPC   PO415605   0.785   7.582  11.910  0.1244 -0.1761 -0.0121
12106DOPC   GL115606   0.765   7.344  12.289  0.2232  0.2253 -0.0979
12106DOPC   GL215607   0.549   7.174  12.261  0.0522 -0.0215  0.3460
12106DOPC   C1A15608   0.957   7.154  12.635  0.4353  0.0618 -0.0933
12106DOPC   D2A15609   1.307   6.865  12.894  0.0092 -0.1075  0.0718
12106DOPC   C3A15610   1.502   7.265  13.026  0.3437  0.0335 -0.0154
12106DOPC   C4A15611   1.504   7.379  13.521  0.2295  0.1818 -0.0121
12106DOPC   C1B15612   0.499   6.955  12.682 -0.0332 -0.0354  0.1927
12106DOPC   D2B15613   0.773   6.839  13.128 -0.2593 -0.1133  0.3630
12106DOPC   C3B15614   1.148   6.959  13.350 -0.0002 -0.3136 -0.3458
12106DOPC   C4B15615   1.593   6.860  13.498  0.0712 -0.0232  0.2104
12107DOPC   NC315616   9.951   0.207  10.352 -0.1215  0.1493 -0.2675
12107DOPC   PO415617   9.715   0.384  10.598 -0.2792  0.0792  0.3626
12107DOPC   GL115618   9.817   0.377  11.029 -0.0298  0.0153  0.2433
12107DOPC   GL215619   9.597   0.126  11.103  0.0029 -0.3410  0.2237
12107DOPC   C1A15620  10.067   0.117  11.313  0.3062 -0.0228 -0.1714
12107DOPC   D2A15621  10.251   0.017  11.774 -0.2213 -0.0085  0.3235
12107DOPC   C3A15622   9.893  -0.045  12.050  0.2213  0.0110  0.1195
12107DOPC   C4A15623   9.635  -0.164  12.415  0.1363  0.0289  0.1071
12107DOPC   C1B15624   9.628   0.018  11.558 -0.0388 -0.2828  0.3329
12107DOPC   D2B15625   9.570   0.316  11.963  0.0572  0.1505 -0.2744
12107DOPC   C3B15626   9.391   0.322  12.446  0.2178  0.1789  0.0687
12107DOPC   C4B15627   9.158   0.210  12.803  0.1305  0.4261  0.1056
12108DOPC   NC315628  28.975   3.757  11.102 -0.0069 -0.3031 -0.0565
12108DOPC   PO415629  28.683   3.902  11.319  0.2802 -0.2437  0.2825
12108DOPC   GL115630  28.434   3.887  11.732 -0.0793  0.2854  0.0760
12108DOPC   GL215631  28.696   3.825  11.868 -0.0617 -0.0136  0.2520
12108DOPC   C1A15632  28.037   3.910  12.066 -0.2779  0.0314  0.0833
12108DOPC   D2A15633  27.556   3.896  12.225  0.0296 -0.0589  0.3229
12108DOPC   C3A15634  27.220   3.791  11.977 -0.1870 -0.2208  0.1182
12108DOPC   C4A15635  26.936   3.448  11.709 -0.3358  0.2593 -0.2886
12108DOPC   C1B15636  28.840   3.924  12.223  0.2675  0.1271  0.0440
12108DOPC   D2B15637  28.773   3.983  12.654  0.0314  0.1216 -0.0186
12108DOPC   C3B15638  28.700   3.877  13.080 -0.0390 -0.2008  0.0058
12108DOPC   C4B15639  28.875   3.970  13.527  0.3150 -0.3807  0.4308
12109DOPC   NC315640  22.463   0.154  10.585  0.0551 -0.1699  0.2109
12109DOPC   PO415641  22.826   0.008  10.635  0.2404 -0.0520  0.0629
12109DOPC   GL115642  22.974  -0.063  10.979  0.1045 -0.0226 -0.1439
12109DOPC   GL215643  22.842   0.201  11.127  0.2208  0.1238  0.0242
12109DOPC   C1A15644  22.896  -0.262  11.345  0.0954 -0.0764 -0.0757
12109DOPC   D2A15645  22.881  -0.208  11.826  0.1282 -0.3213  0.2331
12109DOPC   C3A15646  22.706   0.057  12.219 -0.2267 -0.0110 -0.1368
12109DOPC   C4A15647  22.640   0.206  12.690 -0.1400 -0.1422  0.1639
12109DOPC   C1B15648  22.521   0.081  11.337  0.1493 -0.0437  0.2893
12109DOPC   D2B15649  22.129  -0.137  11.292  0.0661 -0.0821  0.0469
12109DOPC   C3B15650  21.913  -0.284  11.659  0.0200  0.1079 -0.0006
12109DOPC   C4B15651  21.570  -0.486  11.995 -0.1569 -0.2534 -0.3331
12110DOPC   NC315652  19.704   5.998  10.317  0.3432 -0.0752 -0.0609
12110DOPC   PO415653  20.031   6.209  10.497  0.2268  0.0735  0.1859
12110DOPC   GL115654  20.054   6.253  10.920 -0.2165 -0.1543 -0.2733
12110DOPC   GL215655  20.239   5.974  10.919  0.1058 -0.1008 -0.0912
12110DOPC   C1A15656  19.835   6.537  11.226 -0.0267  0.1018  0.1378
12110DOPC   D2A15657  19.720   6.893  11.567  0.2887 -0.3294  0.1415
12110DOPC   C3A15658  20.015   6.673  11.812 -0.0528  0.0285 -0.1687
12110DOPC   C4A15659  20.053   6.305  12.078  0.1525 -0.1305  0.1751
12110DOPC   C1B15660  20.231   5.709  11.198  0.1788 -0.0289 -0.0659
12110DOPC   D2B15661  20.165   5.276  11.382 -0.2172  0.2653  0.0365
12110DOPC   C3B15662  19.874   5.308  11.754  0.0893 -0.0294  0.1991
12110DOPC   C4B15663  19.610   5.376  12.216  0.0509  0.3231  0.2169
12111DOPC   NC315664  23.489   1.240  10.886  0.0600 -0.2003  0.1983
12111DOPC   PO415665  23.133   1.491  10.915  0.2047  0.0544  0.1860
12111DOPC   GL115666  22.942   1.463  11.228  0.2081  0.0938  0.0051
12111DOPC   GL215667  22.630   1.359  11.077 -0.1824  0.1607 -0.2335
12111DOPC   C1A15668  22.967   1.439  11.686 -0.0500 -0.2160 -0.1446
12111DOPC   D2A15669  22.975   1.228  12.145 -0.2160  0.0632  0.1959
12111DOPC   C3A15670  22.743   0.897  12.262  0.3376 -0.0602  0.0676
12111DOPC   C4A15671  22.411   0.632  12.560  0.2003  0.0570  0.0486
12111DOPC   C1B15672  22.654   1.098  11.460 -0.0097 -0.0470 -0.0739
12111DOPC   D2B15673  22.887   0.836  11.791  0.0565  0.1878 -0.0078
12111DOPC   C3B15674  23.079   0.570  12.145  0.0746 -0.0214 -0.1036
12111DOPC   C4B15675  22.974   0.664  12.625 -0.2509 -0.0449  0.3984
12112DOPC   NC315676   5.009   5.537  11.631  0.0931 -0.1339 -0.0532
12112DOPC   PO415677   4.922   5.159  11.593 -0.0079 -0.1761 -0.0552
12112DOPC   GL115678   5.064   5.142  11.969 -0.1022 -0.3517  0.4676
12112DOPC   GL215679   5.336   5.244  11.930 -0.2220 -0.0316  0.0491
12112DOPC   C1A15680   4.980   5.411  12.303  0.0621  0.0970 -0.1919
12112DOPC   D2A15681   4.479   5.537  12.478  0.0435 -0.0248 -0.0742
12112DOPC   C3A15682   4.611   5.232  12.859 -0.1563 -0.2108 -0.0125
12112DOPC   C4A15683   4.281   5.040  13.192 -0.0238 -0.0248  0.2502
12112DOPC   C1B15684   5.477   5.300  12.390  0.2725 -0.0313  0.3469
12112DOPC   D2B15685   5.564   5.496  12.854 -0.0074 -0.0109 -0.0310
12112DOPC   C3B15686   5.373   5.822  13.057  0.2131 -0.2094  0.0471
12112DOPC   C4B15687   5.078   6.135  13.175  0.0571  0.0624 -0.1902
12113DOPC   NC315688   1.081   4.819  11.308 -0.1125  0.1243 -0.0100
12113DOPC   PO415689   1.430   4.860  11.503  0.0182  0.0081  0.0196
12113DOPC   GL115690   1.429   4.795  11.913  0.1470 -0.0497  0.1219
12113DOPC   GL215691   1.502   5.069  11.982 -0.3900 -0.3340  0.3823
12113DOPC   C1A15692   1.650   4.575  12.233  0.0498 -0.2960  0.0612
12113DOPC   D2A15693   1.867   4.673  12.674 -0.0351 -0.1033 -0.1541
12113DOPC   C3A15694   1.746   4.602  13.133 -0.1056 -0.1155 -0.1320
12113DOPC   C4A15695   1.445   4.275  13.398 -0.2265  0.0524  0.0698
12113DOPC   C1B15696   1.844   5.094  12.241  0.1675  0.0645  0.1307
12113DOPC   D2B15697   2.287   4.941  12.509  0.1375  0.0664 -0.1349
12113DOPC   C3B15698   2.708   4.702  12.500 -0.0606  0.0323  0.0550
12113DOPC   C4B15699   3.139   4.541  12.291  0.1820 -0.0925 -0.0812
12114DOPC   NC315700  25.288   2.488  10.791 -0.0248 -0.0324  0.1364
12114DOPC   PO415701  24.976   2.253  10.880  0.0433  0.0043  0.1020
12114DOPC   GL115702  24.605   2.322  11.020  0.2277  0.2004  0.1269
12114DOPC   GL215703  24.658   2.593  11.042  0.1005 -0.0182  0.2162
12114DOPC   C1A15704  24.535   2.181  11.432 -0.0485  0.0417  0.2744
12114DOPC   D2A15705  24.213   2.047  11.783  0.2072  0.1659 -0.1971
12114DOPC   C3A15706  24.155   1.974  12.217 -0.1182 -0.0610 -0.2110
12114DOPC   C4A15707  24.157   1.855  12.673  0.1700  0.0556 -0.3975
12114DOPC   C1B15708  24.665   2.874  11.424  0.1692  0.0839  0.0482
12114DOPC   D2B15709  24.471   3.128  11.863 -0.1931 -0.2113  0.1435
12114DOPC   C3B15710  24.369   2.906  12.188 -0.0981 -0.0803  0.0759
12114DOPC   C4B15711  24.434   2.816  12.640  0.0215  0.0464  0.1183
12115DOPC   NC315712  27.489   5.781  11.263 -0.4318  0.1061  0.2220
12115DOPC   PO415713  27.800   6.066  11.198 -0.0419 -0.0786  0.0369
12115DOPC   GL115714  27.899   6.180  11.519 -0.0258  0.0376  0.0198
12115DOPC   GL215715  28.005   6.495  11.473 -0.2027  0.1091  0.2549
12115DOPC   C1A15716  27.854   6.246  11.917  0.1793  0.1474  0.0659
12115DOPC   D2A15717  27.724   6.269  12.382  0.3974  0.1011  0.1285
12115DOPC   C3A15718  27.940   5.939  12.627  0.0765 -0.0851  0.1581
12115DOPC   C4A15719  27.853   5.527  12.929 -0.0016  0.0084  0.2390
12115DOPC   C1B15720  27.904   6.713  11.786  0.0742  0.0066  0.2082
12115DOPC   D2B15721  27.971   7.054  12.083 -0.0499 -0.2050 -0.0493
12115DOPC   C3B15722  27.994   7.037  12.507  0.0917  0.1245 -0.1247
12115DOPC   C4B15723  28.193   6.942  13.011  0.0973  0.2252 -0.2355
12116DOPC   NC315724  30.667   4.996  11.437 -0.0009  0.1555 -0.3058
12116DOPC   PO415725  30.568   4.630  11.410  0.1539 -0.0167  0.3513
12116DOPC   GL115726  30.343   4.698  11.776 -0.0472 -0.0124 -0.2165
12116DOPC   GL215727  30.441   4.906  11.850 -0.2740 -0.3805  0.0331
12116DOPC   C1A15728  30.286   4.483  12.148 -0.2592  0.0456 -0.0839
12116DOPC   D2A15729  30.064   4.245  12.477 -0.0884 -0.0777  0.1635
12116DOPC   C3A15730  29.599   4.168  12.565 -0.5401 -0.0930  0.1033
12116DOPC   C4A15731  29.138   4.296  12.622 -0.0137 -0.1806 -0.3251
12116DOPC   C1B15732  30.404   5.134  12.223  0.2450  0.0322 -0.1606
12116DOPC   D2B15733  30.285   5.404  12.648  0.2031 -0.1989 -0.0627
12116DOPC   C3B15734  30.021   5.203  12.963  0.0486  0.0200 -0.0075
12116DOPC   C4B15735  29.589   5.040  13.069 -0.1445  0.1555  0.1649
12117DOPC   NC315736  11.524   0.150  10.385  0.1974  0.1221  0.4438
12117DOPC   PO415737  11.338   0.100  10.755 -0.1378 -0.4042  0.1469
12117DOPC   GL115738  11.432   0.102  11.116  0.4689  0.1593  0.0457
12117DOPC   GL215739  11.164   0.271  11.150 -0.2621  0.0647 -0.2824
12117DOPC   C1A15740  11.714   0.300  11.300 -0.0593 -0.1298 -0.1661
12117DOPC   D2A15741  11.903   0.621  11.664  0.4770  0.0682 -0.0662
12117DOPC   C3A15742  11.853   0.682  12.147 -0.0672  0.1109 -0.0686
12117DOPC   C4A15743  11.857   0.736  12.632 -0.0571 -0.0204 -0.1287
12117DOPC   C1B15744  10.973   0.130  11.454  0.2750 -0.4546 -0.0060
12117DOPC   D2B15745  11.016   0.235  11.923  0.1366  0.4062  0.0713
12117DOPC   C3B15746  11.200   0.196  12.278  0.0734  0.0939 -0.1195
12117DOPC   C4B15747  11.227   0.128  12.777 -0.0591 -0.0326  0.2260
12118DOPC   NC315748  14.960   7.422  10.334 -0.2889 -0.1749  0.2643
12118DOPC   PO415749  15.102   7.725  10.510 -0.0299 -0.0267  0.0312
12118DOPC   GL115750  15.183   7.811  10.876 -0.1298 -0.2658  0.0505
12118DOPC   GL215751  14.937   7.875  10.998  0.0980  0.4034  0.2416
12118DOPC   C1A15752  15.239   7.861  11.339 -0.0927 -0.1810 -0.1919
12118DOPC   D2A15753  15.389   8.088  11.800  0.2863 -0.2461  0.0287
12118DOPC   C3A15754  15.121   8.172  12.109 -0.0970  0.3217  0.0930
12118DOPC   C4A15755  15.048   8.219  12.591 -0.1537 -0.2477 -0.2277
12118DOPC   C1B15756  14.760   7.951  11.396 -0.1471 -0.1265 -0.1835
12118DOPC   D2B15757  14.712   8.051  11.843 -0.2273 -0.4121 -0.0834
12118DOPC   C3B15758  14.727   7.800  12.280 -0.1104 -0.0793  0.2940
12118DOPC   C4B15759  14.687   7.548  12.669 -0.0677  0.1379  0.0097
12119DOPC   NC315760   7.220   7.563  11.069 -0.1039  0.1729  0.0997
12119DOPC   PO415761   6.993   7.836  11.239 -0.1211  0.0588  0.0278
12119DOPC   GL115762   6.829   7.808  11.596 -0.1037  0.1069  0.2111
12119DOPC   GL215763   7.153   7.715  11.684 -0.1978 -0.3786  0.2515
12119DOPC   C1A15764   6.758   8.137  11.915 -0.1282  0.0704  0.1473
12119DOPC   D2A15765   6.615   8.480  12.250  0.1003 -0.2192 -0.2187
12119DOPC   C3A15766   6.707   8.566  12.712  0.2634  0.2049 -0.0680
12119DOPC   C4A15767   6.739   8.547  13.263  0.0904  0.1492  0.3848
12119DOPC   C1B15768   7.355   8.076  11.782  0.1598 -0.0501 -0.0399
12119DOPC   D2B15769   7.122   8.504  12.137  0.2467  0.0327  0.1815
12119DOPC   C3B15770   7.019   8.792  12.462  0.2379 -0.0830  0.0849
12119DOPC   C4B15771   7.261   9.211  12.701  0.0978 -0.0039  0.3132
12120DOPC   NC315772  25.118   6.935  10.863 -0.0875 -0.0844  0.0636
12120DOPC   PO415773  24.967   6.708  11.175 -0.4739 -0.0586  0.0296
12120DOPC   GL115774  25.099   6.715  11.511  0.2663 -0.0921  0.0951
12120DOPC   GL215775  24.925   6.460  11.636  0.0411  0.1593 -0.0276
12120DOPC   C1A15776  25.190   6.902  11.936 -0.3911  0.0651  0.3122
12120DOPC   D2A15777  25.133   7.132  12.415 -0.1752  0.1198  0.0109
12120DOPC   C3A15778  25.072   7.069  12.916  0.0103 -0.0536 -0.1205
12120DOPC   C4A15779  24.921   7.342  13.320  0.1355  0.1989 -0.2915
12120DOPC   C1B15780  24.675   6.555  11.982  0.3720 -0.0466  0.0555
12120DOPC   D2B15781  24.373   6.717  12.365 -0.0401 -0.0218  0.0316
12120DOPC   C3B15782  23.971   6.966  12.469  0.4284 -0.0690  0.0137
12120DOPC   C4B15783  23.554   7.135  12.752 -0.0563 -0.3104  0.1686
12121DOPC   NC315784   4.330   6.463  11.533  0.1946 -0.0094  0.1335
12121DOPC   PO415785   4.095   6.151  11.608 -0.2322  0.0002  0.2775
12121DOPC   GL115786   4.024   6.218  11.990  0.2666 -0.1131  0.3291
12121DOPC   GL215787   4.215   6.430  12.026 -0.2319 -0.0442 -0.0944
12121DOPC   C1A15788   3.748   6.065  12.268 -0.1091  0.1283 -0.0603
12121DOPC   D2A15789   3.638   5.876  12.761 -0.1046 -0.1178 -0.1685
12121DOPC   C3A15790   3.698   5.458  12.853 -0.1860 -0.0981  0.1869
12121DOPC   C4A15791   3.767   5.034  13.110 -0.0903  0.1491 -0.1741
12121DOPC   C1B15792   4.364   6.369  12.434  0.3345  0.0547  0.2496
12121DOPC   D2B15793   4.722   6.280  12.756  0.4693 -0.0519  0.1704
12121DOPC   C3B15794   4.649   6.435  13.202  0.2637  0.1296  0.0762
12121DOPC   C4B15795   4.692   6.356  13.658 -0.1822  0.0761 -0.0372
12122DOPC   NC315796   7.474   0.835  11.162  0.0637  0.2143  0.2016
12122DOPC   PO415797   7.872   0.796  11.056  0.1150  0.0727  0.3194
12122DOPC   GL115798   7.979   0.592  11.368  0.2307 -0.0121 -0.4184
12122DOPC   GL215799   7.727   0.448  11.448  0.1003  0.0324  0.4183
12122DOPC   C1A15800   8.227   0.562  11.718 -0.2259 -0.1730 -0.1039
12122DOPC   D2A15801   8.580   0.784  11.899 -0.1841 -0.0023  0.0649
12122DOPC   C3A15802   8.674   0.981  12.250 -0.2771 -0.0498 -0.2944
12122DOPC   C4A15803   9.100   1.322  12.412  0.0398  0.0254 -0.2488
12122DOPC   C1B15804   7.780   0.486  11.926  0.1407  0.4100  0.0377
12122DOPC   D2B15805   7.879   0.360  12.393 -0.0735 -0.1102 -0.0281
12122DOPC   C3B15806   7.692   0.119  12.693 -0.1159 -0.1720 -0.1665
12122DOPC   C4B15807   7.476   0.165  13.140  0.3154 -0.0782  0.2947
12123DOPC   NC315808  16.669   5.873  10.621  0.1340  0.1862  0.0656
12123DOPC   PO415809  16.616   6.247  10.740 -0.3245  0.0071  0.1250
12123DOPC   GL115810  16.732   6.210  11.155 -0.1591 -0.1376  0.0727
12123DOPC   GL215811  16.737   5.967  11.190  0.1401 -0.0268 -0.1778
12123DOPC   C1A15812  16.793   6.447  11.446  0.2982  0.2743 -0.0106
12123DOPC   D2A15813  16.849   6.653  11.884  0.1575  0.0225 -0.2176
12123DOPC   C3A15814  16.963   6.837  12.329 -0.0680 -0.0415 -0.1898
12123DOPC   C4A15815  17.056   6.945  12.831  0.2054 -0.1035 -0.2177
12123DOPC   C1B15816  16.464   5.809  11.588  0.0848 -0.0640 -0.3110
12123DOPC   D2B15817  16.108   5.913  11.922 -0.0258 -0.3577 -0.2069
12123DOPC   C3B15818  16.039   5.798  12.372 -0.1078  0.0249  0.0787
12123DOPC   C4B15819  15.965   5.670  12.850  0.2727  0.2011  0.2889
12124DOPC   NC315820  20.540   6.229  10.040 -0.0416  0.1316  0.3042
12124DOPC   PO415821  20.705   6.538  10.246 -0.1913  0.0999 -0.2503
12124DOPC   GL115822  20.964   6.697  10.607  0.2483 -0.1228  0.0908
12124DOPC   GL215823  20.900   6.372  10.624 -0.1312 -0.3098  0.1094
12124DOPC   C1A15824  21.064   6.992  10.867  0.0282 -0.1362 -0.0741
12124DOPC   D2A15825  21.120   7.356  11.221 -0.0540 -0.4084 -0.0943
12124DOPC   C3A15826  20.796   7.495  11.409  0.0785 -0.0674  0.0369
12124DOPC   C4A15827  20.413   7.739  11.653 -0.0957  0.1402 -0.0897
12124DOPC   C1B15828  20.860   6.353  11.083  0.0694 -0.1152 -0.1068
12124DOPC   D2B15829  20.872   6.437  11.545 -0.1294  0.0560  0.1865
12124DOPC   C3B15830  20.934   6.523  12.009  0.1407  0.3150 -0.1312
12124DOPC   C4B15831  21.100   6.595  12.453 -0.0250  0.2536  0.2514
12125DOPC   NC315832  30.013   6.567  11.287 -0.1587 -0.0441  0.1918
12125DOPC   PO415833  30.086   6.811  11.571  0.3563 -0.1648 -0.1760
12125DOPC   GL115834  29.996   6.773  11.941 -0.0379 -0.2808  0.0815
12125DOPC   GL215835  29.724   6.979  11.873  0.1885 -0.0441 -0.0223
12125DOPC   C1A15836  29.913   6.360  12.180  0.0605 -0.0410 -0.0295
12125DOPC   D2A15837  30.022   6.032  12.505  0.0291  0.2305 -0.1245
12125DOPC   C3A15838  30.187   6.172  12.913  0.1113  0.1429 -0.4830
12125DOPC   C4A15839  30.467   6.277  13.304 -0.0517  0.0820  0.1499
12125DOPC   C1B15840  29.590   6.828  12.229  0.0596  0.0418 -0.2303
12125DOPC   D2B15841  29.295   6.778  12.656 -0.1794 -0.1389 -0.1784
12125DOPC   C3B15842  29.471   6.718  13.050 -0.2586 -0.1027  0.0633
12125DOPC   C4B15843  29.466   6.955  13.487 -0.0955  0.1188 -0.0141
12126DOPC   NC315844   6.761   2.702  11.064  0.2341  0.2120 -0.1838
12126DOPC   PO415845   7.123   2.568  10.932 -0.3530 -0.0487  0.1168
12126DOPC   GL115846   7.418   2.460  11.287 -0.1628 -0.2051 -0.1404
12126DOPC   GL215847   7.180   2.261  11.414  0.0007 -0.1348  0.0794
12126DOPC   C1A15848   7.593   2.813  11.441  0.1282 -0.0597  0.2581
12126DOPC   D2A15849   7.535   3.153  11.806  0.0122  0.0017  0.1230
12126DOPC   C3A15850   7.566   3.105  12.290  0.2568 -0.0281 -0.0798
12126DOPC   C4A15851   7.566   3.140  12.737  0.1411 -0.0923  0.0081
12126DOPC   C1B15852   7.004   2.227  11.859  0.4270  0.0276  0.2570
12126DOPC   D2B15853   7.204   2.252  12.342  0.0570 -0.1707  0.2769
12126DOPC   C3B15854   7.444   2.638  12.504  0.1254  0.0332  0.0269
12126DOPC   C4B15855   7.771   2.736  12.880  0.0875 -0.1062 -0.3352
12127DOPC   NC315856   9.090   4.051  11.307 -0.0233 -0.2172 -0.1230
12127DOPC   PO415857   9.197   3.744  11.061 -0.0348  0.3002 -0.0679
12127DOPC   GL115858   9.335   3.563  11.384  0.0145  0.0761  0.2749
12127DOPC   GL215859   9.013   3.637  11.431 -0.1614  0.5130 -0.3953
12127DOPC   C1A15860   9.327   3.749  11.782 -0.1620 -0.2476 -0.2260
12127DOPC   D2A15861   9.358   3.744  12.268  0.1098 -0.0021 -0.0406
12127DOPC   C3A15862   9.174   3.617  12.638 -0.1104  0.0442  0.0187
12127DOPC   C4A15863   9.094   3.220  12.879 -0.0086  0.1756  0.0284
12127DOPC   C1B15864   8.863   3.526  11.824  0.0612 -0.1719 -0.2657
12127DOPC   D2B15865   8.975   3.308  12.219  0.0428  0.1956 -0.1351
12127DOPC   C3B15866   8.654   3.357  12.575 -0.0174 -0.1604 -0.1546
12127DOPC   C4B15867   8.192   3.153  12.523  0.2075  0.1114 -0.2835
12128DOPC   NC315868  15.768   7.425  10.778  0.0838  0.0472 -0.0434
12128DOPC   PO415869  16.099   7.336  11.055 -0.0270  0.0334 -0.0079
12128DOPC   GL115870  16.100   7.340  11.509  0.0011 -0.2297 -0.0885
12128DOPC   GL215871  16.267   7.579  11.441 -0.0462 -0.1655 -0.0381
12128DOPC   C1A15872  16.212   7.453  11.879 -0.2284 -0.4176 -0.2691
12128DOPC   D2A15873  16.446   7.704  12.253  0.2398  0.0988 -0.1039
12128DOPC   C3A15874  16.451   7.632  12.692 -0.1768  0.0101 -0.3200
12128DOPC   C4A15875  16.210   7.627  13.171  0.0692  0.0263  0.2848
12128DOPC   C1B15876  16.649   7.550  11.645 -0.1758 -0.1240  0.1333
12128DOPC   D2B15877  16.899   7.780  12.033 -0.0441  0.0807  0.0295
12128DOPC   C3B15878  17.260   8.132  11.962 -0.2662  0.2893 -0.1586
12128DOPC   C4B15879  17.732   8.196  11.867  0.0464 -0.0723 -0.1347
12129DOPC   NC315880   4.971   4.689  11.380 -0.0698  0.1267  0.0055
12129DOPC   PO415881   4.736   4.379  11.416  0.0464  0.5078 -0.2640
12129DOPC   GL115882   4.568   4.419  11.798 -0.3405 -0.2285 -0.2259
12129DOPC   GL215883   4.370   4.210  11.839 -0.0057 -0.2499  0.1972
12129DOPC   C1A15884   4.590   4.552  12.219 -0.0448 -0.0090  0.1147
12129DOPC   D2A15885   4.517   4.719  12.701 -0.1271  0.1445 -0.4749
12129DOPC   C3A15886   4.729   4.799  13.046  0.0760  0.3022  0.2826
12129DOPC   C4A15887   5.014   4.792  13.469  0.0406  0.1813 -0.2073
12129DOPC   C1B15888   4.374   3.774  12.046 -0.3752  0.4219  0.3535
12129DOPC   D2B15889   4.253   3.513  12.439  0.4036  0.0006  0.3078
12129DOPC   C3B15890   4.320   3.687  12.911 -0.0817  0.1911 -0.0069
12129DOPC   C4B15891   4.565   3.940  13.273 -0.1576  0.3224  0.0979
12130DOPC   NC315892  12.410   0.179  10.648  0.0259 -0.2034 -0.0977
12130DOPC   PO415893  12.551  -0.173  10.818 -0.1052 -0.0354 -0.1840
12130DOPC   GL115894  12.505  -0.182  11.218  0.0331 -0.0704 -0.1071
12130DOPC   GL215895  12.771  -0.321  11.230 -0.0451  0.2255 -0.0549
12130DOPC   C1A15896  12.527   0.142  11.546 -0.0132 -0.3652  0.1028
12130DOPC   D2A15897  12.609   0.318  11.998  0.0663 -0.3292  0.1799
12130DOPC   C3A15898  12.675   0.194  12.451 -0.0039 -0.0499  0.0024
12130DOPC   C4A15899  12.512  -0.119  12.775 -0.0787  0.0161  0.0138
12130DOPC   C1B15900  12.893  -0.632  11.555  0.3095  0.0479  0.0123
12130DOPC   D2B15901  12.929  -0.644  12.090  0.1218 -0.0610  0.1852
12130DOPC   C3B15902  12.825  -1.078  12.248 -0.1361 -0.6571  0.3165
12130DOPC   C4B15903  12.578  -1.450  12.447 -0.0422  0.1254  0.0136
12131DOPC   NC315904  23.168   0.377  10.812  0.0396  0.1071 -0.1780
12131DOPC   PO415905  22.802   0.514  10.729  0.2313 -0.1802  0.1911
12131DOPC   GL115906  22.538   0.433  10.941 -0.1243  0.0529 -0.0574
12131DOPC   GL215907  22.342   0.261  11.008 -0.2617  0.0470 -0.2279
12131DOPC   C1A15908  22.477   0.574  11.349  0.1018  0.2916  0.0887
12131DOPC   D2A15909  22.460   0.575  11.854 -0.0825  0.0711 -0.1620
12131DOPC   C3A15910  22.115   0.858  12.004  0.1721  0.1313 -0.1656
12131DOPC   C4A15911  21.840   0.806  12.431 -0.2570  0.2151 -0.0411
12131DOPC   C1B15912  21.988   0.509  11.139  0.0021  0.0372 -0.0313
12131DOPC   D2B15913  21.709   0.685  11.527  0.0521  0.0462 -0.2311
12131DOPC   C3B15914  21.563   0.682  11.987  0.0941  0.5105 -0.0819
12131DOPC   C4B15915  21.327   0.716  12.468 -0.0304 -0.0164  0.1090
12132DOPC   NC315916  18.535   6.463  10.687  0.2504 -0.3136 -0.2402
12132DOPC   PO415917  18.906   6.617  10.641 -0.3185 -0.0006  0.1307
12132DOPC   GL115918  18.746   6.779  11.037 -0.1778  0.0731 -0.2193
12132DOPC   GL215919  18.967   6.695  11.012  0.4494 -0.0555 -0.1267
12132DOPC   C1A15920  18.685   6.980  11.435  0.2537 -0.0953  0.0437
12132DOPC   D2A15921  18.665   7.287  11.809  0.2254 -0.0131  0.1392
12132DOPC   C3A15922  18.672   7.323  12.272  0.1334 -0.1751  0.3472
12132DOPC   C4A15923  18.546   7.560  12.716 -0.1039 -0.1966 -0.2281
12132DOPC   C1B15924  19.048   6.255  11.217  0.0186 -0.0507 -0.1817
12132DOPC   D2B15925  19.132   5.924  11.590 -0.1677 -0.0329  0.1828
12132DOPC   C3B15926  19.207   6.154  12.019  0.3330  0.3069 -0.1783
12132DOPC   C4B15927  19.381   6.112  12.532 -0.1981 -0.1099 -0.0498
12133DOPC   NC315928  28.658   1.238  11.066  0.2899 -0.3539 -0.2677
12133DOPC   PO415929  28.722   1.503  11.382  0.0640  0.2297 -0.1654
12133DOPC   GL115930  28.513   1.464  11.786  0.2022 -0.1559 -0.2716
12133DOPC   GL215931  28.859   1.531  11.820  0.0010 -0.3720 -0.0202
12133DOPC   C1A15932  28.440   1.518  12.217 -0.1488 -0.3207  0.0977
12133DOPC   D2A15933  28.298   1.331  12.598 -0.1184 -0.0334  0.2583
12133DOPC   C3A15934  28.149   1.412  13.078 -0.3081 -0.0912  0.2306
12133DOPC   C4A15935  28.170   1.257  13.550  0.0903  0.0727  0.1423
12133DOPC   C1B15936  29.061   1.399  12.177  0.2769  0.0459 -0.0879
12133DOPC   D2B15937  29.060   1.108  12.554  0.3224  0.1846 -0.0309
12133DOPC   C3B15938  29.305   1.284  12.927  0.1630 -0.0484 -0.0695
12133DOPC   C4B15939  29.486   1.213  13.404 -0.0576  0.4037 -0.2714
12134DOPC   NC315940  16.954   7.414  11.139  0.0742 -0.2213  0.0181
12134DOPC   PO415941  16.963   7.175  10.788  0.3519 -0.1408 -0.2130
12134DOPC   GL115942  16.974   6.929  11.108  0.0739 -0.0736  0.2755
12134DOPC   GL215943  17.212   6.786  11.186  0.3755 -0.3191  0.1856
12134DOPC   C1A15944  16.729   7.053  11.507 -0.1380 -0.2027 -0.2473
12134DOPC   D2A15945  16.537   7.105  11.960 -0.0029  0.1583 -0.2112
12134DOPC   C3A15946  16.404   6.763  12.294 -0.2643 -0.1488  0.2427
12134DOPC   C4A15947  16.360   6.496  12.706 -0.1172  0.1094 -0.0630
12134DOPC   C1B15948  17.215   6.871  11.609 -0.0572 -0.1063 -0.1405
12134DOPC   D2B15949  17.326   6.698  12.082 -0.0647 -0.0398 -0.0870
12134DOPC   C3B15950  17.382   6.460  12.519 -0.0790  0.2784  0.1821
12134DOPC   C4B15951  17.761   6.214  12.715 -0.0532  0.3563 -0.2077
12135DOPC   NC315952   5.871   5.908  11.127 -0.2303  0.0504 -0.0101
12135DOPC   PO415953   6.227   6.069  11.105 -0.0445  0.0592  0.0821
12135DOPC   GL115954   6.256   6.107  11.501 -0.3348 -0.2163  0.4011
12135DOPC   GL215955   6.139   6.380  11.610  0.0634  0.0187  0.3640
12135DOPC   C1A15956   6.527   6.035  11.784 -0.1090  0.0529  0.0884
12135DOPC   D2A15957   6.748   5.974  12.292  0.1279 -0.2158 -0.0684
12135DOPC   C3A15958   6.759   6.069  12.698  0.0609 -0.2777 -0.1832
12135DOPC   C4A15959   6.824   6.169  13.196 -0.1842  0.0048 -0.2257
12135DOPC   C1B15960   6.128   6.528  11.960  0.0254  0.1304  0.0367
12135DOPC   D2B15961   6.135   6.609  12.467  0.1912  0.2108  0.0342
12135DOPC   C3B15962   6.058   6.391  12.856  0.3015 -0.1055  0.2211
12135DOPC   C4B15963   5.990   6.230  13.351 -0.0902  0.0267  0.1112
12136DOPC   NC315964  16.181   3.100  10.688  0.3307  0.0586  0.0378
12136DOPC   PO415965  15.821   3.009  10.741 -0.0930  0.3366 -0.2245
12136DOPC   GL115966  15.707   3.169  11.148 -0.1187 -0.1221 -0.0311
12136DOPC   GL215967  15.986   3.308  11.161 -0.0910  0.4477 -0.0773
12136DOPC   C1A15968  15.733   2.918  11.545  0.0521  0.1564  0.1928
12136DOPC   D2A15969  15.711   2.653  11.976  0.1982  0.0920 -0.0851
12136DOPC   C3A15970  15.620   2.853  12.408 -0.0487 -0.0712 -0.0510
12136DOPC   C4A15971  15.826   3.100  12.766 -0.2103  0.1547  0.0122
12136DOPC   C1B15972  16.012   3.317  11.598 -0.1747 -0.0132 -0.3590
12136DOPC   D2B15973  16.266   3.420  12.015 -0.1885  0.1847 -0.1848
12136DOPC   C3B15974  16.533   3.210  12.338 -0.0230  0.1510  0.1959
12136DOPC   C4B15975  16.806   3.192  12.775 -0.3306  0.1227 -0.0001
12137DOPC   NC315976  22.833   4.884  10.940  0.1482 -0.1653  0.0386
12137DOPC   PO415977  23.136   4.825  11.185 -0.1179 -0.1369 -0.0759
12137DOPC   GL115978  22.958   4.498  11.355  0.3196  0.0986 -0.0606
12137DOPC   GL215979  22.671   4.639  11.282  0.0158 -0.4932 -0.0512
12137DOPC   C1A15980  22.864   4.194  11.674  0.0348 -0.1356 -0.1108
12137DOPC   D2A15981  22.397   4.042  11.897  0.1288 -0.2793  0.2586
12137DOPC   C3A15982  22.185   3.986  12.325 -0.2379  0.0179 -0.1208
12137DOPC   C4A15983  21.781   3.982  12.634  0.1017  0.1660  0.0224
12137DOPC   C1B15984  22.376   4.576  11.565 -0.1239  0.1887 -0.1713
12137DOPC   D2B15985  22.148   4.481  11.975  0.0811  0.2874 -0.0138
12137DOPC   C3B15986  22.261   4.618  12.369  0.1269 -0.2088  0.1211
12137DOPC   C4B15987  22.308   4.804  12.851 -0.0212  0.2585 -0.1307
12138DOPC   NC315988   9.353   5.418  10.431  0.4944  0.1023  0.0132
12138DOPC   PO415989   9.203   5.200  10.729  0.1634  0.0727 -0.1016
12138DOPC   GL115990   9.087   5.362  11.101 -0.2378  0.4808 -0.0265
12138DOPC   GL215991   9.265   5.164  11.233 -0.0899  0.0709  0.0966
12138DOPC   C1A15992   8.883   5.520  11.459 -0.0764 -0.3371  0.1075
12138DOPC   D2A15993   8.606   5.688  11.875 -0.0203  0.0913 -0.0508
12138DOPC   C3A15994   8.830   5.597  12.359  0.0730  0.0317  0.0404
12138DOPC   C4A15995   8.971   5.663  12.801 -0.0602  0.1319  0.2321
12138DOPC   C1B15996   9.332   5.401  11.620  0.4698  0.3448  0.0062
12138DOPC   D2B15997   9.397   5.566  12.021 -0.0757  0.0424 -0.0142
12138DOPC   C3B15998   9.478   5.300  12.426  0.5439 -0.0910 -0.1716
12138DOPC   C4B15999   9.478   5.075  12.826  0.1904  0.0722 -0.0368
12139DOPC   NC316000  20.975   3.378  11.010 -0.1296 -0.1410 -0.0293
12139DOPC   PO416001  21.299   3.348  10.804 -0.1383 -0.1736 -0.0302
12139DOPC   GL116002  21.529   3.153  11.089  0.1234  0.0710  0.3683
12139DOPC   GL216003  21.300   3.244  11.279  0.5222  0.0946  0.0484
12139DOPC   C1A16004  21.506   2.712  11.246  0.2742  0.0562 -0.2089
12139DOPC   D2A16005  21.325   2.256  11.469  0.0095  0.3754 -0.1701
12139DOPC   C3A16006  21.509   2.166  11.892 -0.0367  0.0500  0.1283
12139DOPC   C4A16007  21.573   1.905  12.291 -0.1317  0.0960  0.0189
12139DOPC   C1B16008  21.551   3.025  11.618  0.0550  0.1308 -0.1565
12139DOPC   D2B16009  21.971   2.940  11.936  0.0965  0.1519  0.0981
12139DOPC   C3B16010  22.204   3.066  12.321 -0.1525 -0.0927  0.0597
12139DOPC   C4B16011  22.240   3.237  12.792  0.1320  0.0643 -0.0653
12140DOPC   NC316012   6.252   3.725  10.740 -0.0656 -0.2466 -0.0632
12140DOPC   PO416013   5.963   3.666  11.016  0.3327  0.1536  0.5024
12140DOPC   GL116014   5.944   3.474  11.372  0.1439  0.1153 -0.0321
12140DOPC   GL216015   6.006   3.200  11.372  0.1570 -0.1655  0.0173
12140DOPC   C1A16016   5.927   3.726  11.778 -0.1921  0.1775 -0.1950
12140DOPC   D2A16017   5.688   3.982  12.150  0.2142 -0.0252 -0.2460
12140DOPC   C3A16018   5.821   4.224  12.515  0.2707 -0.1113 -0.0598
12140DOPC   C4A16019   6.040   4.085  12.918  0.0390  0.1368  0.2996
12140DOPC   C1B16020   6.385   3.308  11.654 -0.2863 -0.0170  0.0623
12140DOPC   D2B16021   6.786   3.413  11.981 -0.0834 -0.0412 -0.0529
12140DOPC   C3B16022   6.959   3.377  12.407 -0.0502 -0.0932  0.0019
12140DOPC   C4B16023   7.129   3.421  12.887 -0.0915 -0.1891 -0.2490
12141DOPC   NC316024  28.913   3.366  11.528  0.0399  0.1194 -0.3567
12141DOPC   PO416025  29.267   3.589  11.477  0.2587 -0.0301 -0.1159
12141DOPC   GL116026  29.059   3.649  11.828  0.0420 -0.0634 -0.2744
12141DOPC   GL216027  29.267   3.817  11.944 -0.1599 -0.2122 -0.0624
12141DOPC   C1A16028  28.885   3.431  12.146  0.1845  0.0368  0.1897
12141DOPC   D2A16029  28.658   3.038  12.343 -0.1114 -0.4187  0.0051
12141DOPC   C3A16030  28.805   2.918  12.732  0.2178  0.1349 -0.1197
12141DOPC   C4A16031  29.016   2.592  13.033 -0.2829  0.0083  0.3002
12141DOPC   C1B16032  29.275   3.725  12.374  0.0961 -0.0622 -0.0557
12141DOPC   D2B16033  29.133   3.671  12.818  0.0672 -0.0345  0.0641
12141DOPC   C3B16034  28.693   3.410  12.699 -0.1288 -0.2104  0.1851
12141DOPC   C4B16035  28.264   3.249  12.684  0.2196 -0.1557  0.2494
12142DOPC   NC316036  14.618   3.811  10.823  0.2194 -0.0193  0.0007
12142DOPC   PO416037  14.297   3.872  11.087  0.0946  0.1280  0.2608
12142DOPC   GL116038  14.472   4.113  11.416 -0.0343  0.4401 -0.4502
12142DOPC   GL216039  14.602   3.828  11.476  0.1105  0.2938 -0.2993
12142DOPC   C1A16040  14.810   4.363  11.594  0.1825 -0.0832  0.2131
12142DOPC   D2A16041  15.096   4.844  11.543  0.2300  0.0088 -0.1938
12142DOPC   C3A16042  14.955   5.174  11.913 -0.1385  0.1994  0.2870
12142DOPC   C4A16043  14.729   5.400  12.204 -0.3478  0.2906 -0.2822
12142DOPC   C1B16044  14.829   3.821  11.819  0.0279 -0.1341  0.2465
12142DOPC   D2B16045  14.916   3.870  12.296  0.1809  0.1095  0.0860
12142DOPC   C3B16046  14.593   3.832  12.657  0.2783  0.1046 -0.1378
12142DOPC   C4B16047  14.229   3.873  12.994 -0.1196  0.2106  0.1463
12143DOPC   NC316048  15.602   1.402  10.530 -0.0467  0.1725 -0.1387
12143DOPC   PO416049  15.965   1.213  10.658 -0.0476  0.2859 -0.0447
12143DOPC   GL116050  16.113   1.291  11.067 -0.0464 -0.1546  0.2692
12143DOPC   GL216051  16.180   0.957  11.077  0.0793 -0.0838 -0.0150
12143DOPC   C1A16052  15.800   1.330  11.429 -0.0672  0.1839 -0.1087
12143DOPC   D2A16053  15.538   1.365  11.796 -0.0239 -0.1490 -0.1364
12143DOPC   C3A16054  15.442   1.697  12.103 -0.2928 -0.0602  0.0181
12143DOPC   C4A16055  15.437   1.867  12.548 -0.0948 -0.0079  0.1400
12143DOPC   C1B16056  16.381   1.153  11.430  0.0101 -0.3759 -0.0587
12143DOPC   D2B16057  16.413   1.295  11.918  0.2126 -0.1870  0.0034
12143DOPC   C3B16058  16.679   1.354  12.287  0.0065 -0.1572 -0.2118
12143DOPC   C4B16059  16.999   1.286  12.699  0.1367  0.2766 -0.2377
12144DOPC   NC316060   4.104   3.450  10.680  0.0884  0.0592  0.0006
12144DOPC   PO416061   3.861   3.344  10.996  0.0057  0.0357  0.1347
12144DOPC   GL116062   3.866   3.309  11.413 -0.0414  0.2119  0.2002
12144DOPC   GL216063   3.555   3.252  11.390  0.0979  0.0265 -0.2106
12144DOPC   C1A16064   4.118   3.061  11.632  0.1611  0.0679 -0.2024
12144DOPC   D2A16065   4.434   2.745  11.994  0.2084  0.0528 -0.1167
12144DOPC   C3A16066   4.359   2.668  12.435  0.1164  0.0852 -0.1421
12144DOPC   C4A16067   4.313   2.648  13.007 -0.3914  0.0926 -0.0301
12144DOPC   C1B16068   3.502   3.519  11.758 -0.2716 -0.0499  0.0579
12144DOPC   D2B16069   3.297   3.657  12.259 -0.0971  0.0619  0.0836
12144DOPC   C3B16070   3.366   3.582  12.715 -0.0764 -0.2062 -0.1102
12144DOPC   C4B16071   3.425   3.520  13.172  0.0435  0.0234  0.2278
12145DOPC   NC316072  15.704   6.151  10.830 -0.1914 -0.0182  0.1812
12145DOPC   PO416073  15.737   5.750  10.863 -0.0283 -0.0352 -0.0076
12145DOPC   GL116074  15.930   5.638  11.225 -0.0351  0.1585  0.0066
12145DOPC   GL216075  16.039   5.426  11.146  0.1453  0.8092  0.0316
12145DOPC   C1A16076  15.788   5.741  11.614 -0.1534  0.2561 -0.0657
12145DOPC   D2A16077  15.661   5.554  12.097 -0.1048 -0.0453 -0.1968
12145DOPC   C3A16078  15.695   5.452  12.523  0.1138 -0.0958 -0.1121
12145DOPC   C4A16079  15.690   5.237  13.010  0.1275 -0.0596 -0.0897
12145DOPC   C1B16080  16.350   5.294  11.456 -0.1467 -0.1258 -0.1268
12145DOPC   D2B16081  16.534   5.144  11.917  0.0958 -0.0178  0.3381
12145DOPC   C3B16082  16.703   5.260  12.344  0.0921 -0.0173 -0.1257
12145DOPC   C4B16083  16.893   5.494  12.729 -0.1640  0.0257  0.2817
12146DOPC   NC316084   7.786   3.528  11.081 -0.0653 -0.0757 -0.0533
12146DOPC   PO416085   7.862   3.936  11.117 -0.2277 -0.0338 -0.1297
12146DOPC   GL116086   7.919   4.117  11.565 -0.1147 -0.0396  0.0276
12146DOPC   GL216087   8.113   3.918  11.519 -0.5253  0.2944  0.2235
12146DOPC   C1A16088   7.824   4.136  12.005 -0.1177  0.3305 -0.1759
12146DOPC   D2A16089   7.792   4.019  12.453  0.0918 -0.1794 -0.0184
12146DOPC   C3A16090   7.411   4.177  12.717  0.1958 -0.0967  0.1225
12146DOPC   C4A16091   7.570   4.199  13.132 -0.0746 -0.1960 -0.0922
12146DOPC   C1B16092   8.285   3.912  11.946 -0.2291 -0.2809  0.1272
12146DOPC   D2B16093   8.248   3.896  12.444  0.0228  0.1170 -0.1048
12146DOPC   C3B16094   8.588   4.013  12.705 -0.1943  0.1412  0.0755
12146DOPC   C4B16095   9.095   4.140  12.905 -0.0422  0.2677  0.2253
12147DOPC   NC316096  20.531   5.205  10.716 -0.0542  0.2338 -0.2053
12147DOPC   PO416097  20.547   4.805  10.682  0.2734  0.0519 -0.2956
12147DOPC   GL116098  20.464   4.863  11.149 -0.0114 -0.2207  0.0499
12147DOPC   GL216099  20.446   4.649  11.194  0.2727 -0.0702 -0.2252
12147DOPC   C1A16100  20.667   4.974  11.519  0.1343  0.0751 -0.1635
12147DOPC   D2A16101  20.324   5.099  11.882 -0.0779 -0.1122  0.3137
12147DOPC   C3A16102  20.099   5.274  12.184  0.0662  0.0865 -0.0711
12147DOPC   C4A16103  20.092   5.615  12.528  0.1987 -0.1480 -0.0186
12147DOPC   C1B16104  20.157   4.777  11.511 -0.0123 -0.5255  0.2395
12147DOPC   D2B16105  19.793   4.732  11.829  0.1934  0.2399 -0.2608
12147DOPC   C3B16106  19.763   4.837  12.285 -0.2187  0.1506  0.0147
12147DOPC   C4B16107  19.767   5.186  12.687  0.0183 -0.0275 -0.1063
12148DOPC   NC316108   9.626   5.021  10.853  0.0523  0.0412  0.2926
12148DOPC   PO416109   9.880   4.813  10.585 -0.0234  0.0326  0.0396
12148DOPC   GL116110  10.044   4.800  10.977 -0.4365  0.0942 -0.1038
12148DOPC   GL216111   9.918   4.584  11.054 -0.1076  0.0329  0.0888
12148DOPC   C1A16112  10.452   4.823  11.159  0.1942 -0.2195 -0.0648
12148DOPC   D2A16113  10.933   4.970  11.194  0.1660 -0.0580 -0.0527
12148DOPC   C3A16114  10.969   5.446  11.318  0.0108  0.1235 -0.1914
12148DOPC   C4A16115  10.976   5.622  11.742  0.0338 -0.2825  0.0528
12148DOPC   C1B16116   9.900   4.608  11.514 -0.2254  0.2669  0.2568
12148DOPC   D2B16117   9.876   4.573  11.945  0.3695  0.3998 -0.1602
12148DOPC   C3B16118   9.846   4.412  12.397  0.0945 -0.1623 -0.2344
12148DOPC   C4B16119   9.822   4.182  12.855  0.1423  0.2024 -0.0256
12149DOPC   NC316120   4.884   1.641  11.537 -0.1756  0.0113  0.0254
12149DOPC   PO416121   5.007   1.268  11.648 -0.1556 -0.1523  0.1925
12149DOPC   GL116122   5.215   1.406  11.982 -0.1662 -0.2114 -0.1211
12149DOPC   GL216123   5.012   1.494  12.173  0.0029  0.0813  0.4215
12149DOPC   C1A16124   5.558   1.655  12.087 -0.0664 -0.2873 -0.1221
12149DOPC   D2A16125   5.841   1.787  12.499 -0.0766 -0.1849  0.1184
12149DOPC   C3A16126   6.186   1.502  12.749 -0.1260 -0.0420 -0.0296
12149DOPC   C4A16127   6.375   1.135  12.953  0.0096 -0.0864 -0.0080
12149DOPC   C1B16128   4.956   1.090  12.347  0.0436  0.0470 -0.1423
12149DOPC   D2B16129   4.930   0.792  12.765  0.1080 -0.0961 -0.1593
12149DOPC   C3B16130   4.667   1.174  12.963  0.2604  0.0141 -0.0606
12149DOPC   C4B16131   4.384   1.364  13.284 -0.1234 -0.0117  0.0673
12150DOPC   NC316132  16.360   3.895  11.078  0.1079 -0.0082  0.1579
12150DOPC   PO416133  16.373   3.547  10.881 -0.0335 -0.0547 -0.1190
12150DOPC   GL116134  16.461   3.129  11.044  0.2329 -0.0628 -0.1595
12150DOPC   GL216135  16.432   3.384  11.336 -0.3293  0.2623  0.2182
12150DOPC   C1A16136  16.215   2.919  11.257 -0.2651 -0.1385 -0.0033
12150DOPC   D2A16137  16.089   2.609  11.625  0.0580 -0.0264  0.2742
12150DOPC   C3A16138  16.289   2.499  12.064 -0.4639 -0.2112 -0.0249
12150DOPC   C4A16139  16.031   2.496  12.467 -0.0492 -0.1386 -0.0788
12150DOPC   C1B16140  16.711   3.194  11.614 -0.1512 -0.1384 -0.1595
12150DOPC   D2B16141  16.716   2.840  12.061 -0.1473 -0.1000  0.2910
12150DOPC   C3B16142  16.480   2.704  12.501  0.0120  0.1261  0.0100
12150DOPC   C4B16143  16.206   2.557  12.928  0.1197  0.1974 -0.2079
12151DOPC   NC316144   2.994   7.615  11.778 -0.1619  0.1095 -0.0662
12151DOPC   PO416145   2.769   7.962  11.900  0.2993  0.0864 -0.1242
12151DOPC   GL116146   2.669   8.055  12.312 -0.0106 -0.1729 -0.1551
12151DOPC   GL216147   2.733   8.344  12.281 -0.1780 -0.1512  0.3992
12151DOPC   C1A16148   2.985   7.878  12.659  0.1011  0.0059 -0.2818
12151DOPC   D2A16149   3.193   7.534  12.888 -0.0793 -0.0860  0.5259
12151DOPC   C3A16150   3.079   7.150  13.106  0.2294  0.2480 -0.2221
12151DOPC   C4A16151   2.631   7.001  13.248 -0.0234 -0.0558  0.0115
12151DOPC   C1B16152   2.779   8.482  12.693  0.0115  0.1496  0.3071
12151DOPC   D2B16153   2.545   8.762  12.971  0.0635  0.0399  0.0819
12151DOPC   C3B16154   2.199   8.965  12.815  0.0729 -0.2740 -0.0531
12151DOPC   C4B16155   1.967   8.918  12.365 -0.0170 -0.1315 -0.3417
12152DOPC   NC316156  27.931   1.213  10.843 -0.1014  0.0926  0.0005
12152DOPC   PO416157  28.180   1.029  11.077  0.1011  0.1441  0.1681
12152DOPC   GL116158  28.242   1.202  11.498 -0.2135 -0.0206 -0.1328
12152DOPC   GL216159  28.147   0.957  11.580  0.0590 -0.0605  0.1197
12152DOPC   C1A16160  28.062   1.565  11.726  0.0833  0.4056 -0.0015
12152DOPC   D2A16161  28.068   1.846  12.218  0.1332 -0.1732  0.0233
12152DOPC   C3A16162  28.341   1.961  12.573  0.1020  0.0365 -0.0113
12152DOPC   C4A16163  28.445   1.828  13.032 -0.1665 -0.1404  0.1366
12152DOPC   C1B16164  28.273   1.014  11.959  0.1778 -0.0135 -0.1120
12152DOPC   D2B16165  28.635   1.017  12.322  0.1621 -0.5468  0.2205
12152DOPC   C3B16166  28.564   0.925  12.703  0.0732 -0.1792 -0.0129
12152DOPC   C4B16167  28.296   0.655  13.012 -0.0548  0.0816  0.0264
12153DOPC   NC316168   0.635   5.553  11.299  0.2697 -0.1169  0.1450
12153DOPC   PO416169   0.672   5.157  11.405 -0.0802  0.2390 -0.1483
12153DOPC   GL116170   0.821   5.018  11.805  0.0325  0.3358  0.1730
12153DOPC   GL216171   1.114   5.110  11.746  0.0004 -0.1305 -0.1418
12153DOPC   C1A16172   0.702   5.024  12.223 -0.0161  0.1264 -0.0422
12153DOPC   D2A16173   0.555   5.006  12.656 -0.0317  0.0588  0.0912
12153DOPC   C3A16174   0.415   4.719  12.978  0.1208 -0.0461  0.2414
12153DOPC   C4A16175   0.267   4.315  13.064 -0.1076 -0.0749 -0.0351
12153DOPC   C1B16176   1.138   5.345  12.131  0.3074  0.2181 -0.1981
12153DOPC   D2B16177   1.248   5.701  12.509 -0.2468 -0.3122  0.0941
12153DOPC   C3B16178   1.409   5.931  12.878  0.0358 -0.3196 -0.0241
12153DOPC   C4B16179   1.404   6.395  13.057  0.1744  0.2276 -0.3114
12154DOPC   NC316180  26.305   0.239  11.308 -0.2538 -0.3732  0.1341
12154DOPC   PO416181  26.415  -0.119  11.156 -0.0737 -0.0625  0.2439
12154DOPC   GL116182  26.652  -0.378  11.436  0.1384 -0.1214  0.0068
12154DOPC   GL216183  26.917  -0.186  11.413 -0.2215  0.4935  0.1832
12154DOPC   C1A16184  26.500  -0.557  11.785 -0.0112 -0.2678  0.2095
12154DOPC   D2A16185  26.121  -0.551  12.147 -0.1091  0.2320 -0.3619
12154DOPC   C3A16186  26.338  -0.368  12.495  0.0789 -0.2477  0.0637
12154DOPC   C4A16187  26.460  -0.324  12.962  0.0503 -0.2149  0.1720
12154DOPC   C1B16188  26.839   0.039  11.767  0.1930  0.3847  0.3596
12154DOPC   D2B16189  26.934   0.382  12.154  0.0325  0.0556  0.0929
12154DOPC   C3B16190  26.743   0.424  12.559  0.0010 -0.1009  0.0122
12154DOPC   C4B16191  26.674   0.263  12.981  0.0429 -0.3051 -0.2946
12155DOPC   NC316192   3.594   5.070  11.259  0.2165 -0.0773 -0.2106
12155DOPC   PO416193   3.190   5.142  11.258 -0.0749 -0.0510 -0.1928
12155DOPC   GL116194   3.303   4.964  11.654  0.1262  0.0547 -0.0053
12155DOPC   GL216195   2.963   4.816  11.612  0.0659 -0.5000 -0.2582
12155DOPC   C1A16196   3.199   5.068  12.108  0.1604 -0.0653 -0.0383
12155DOPC   D2A16197   3.191   5.254  12.590  0.2245 -0.2603  0.0138
12155DOPC   C3A16198   3.305   5.198  13.037 -0.0363 -0.0468 -0.5567
12155DOPC   C4A16199   3.358   5.260  13.508  0.3018 -0.0697  0.1605
12155DOPC   C1B16200   2.767   4.844  12.003  0.2173  0.0556 -0.0767
12155DOPC   D2B16201   2.699   5.280  12.358 -0.1652 -0.1049  0.2127
12155DOPC   C3B16202   2.683   5.128  12.751  0.0964  0.1014  0.0247
12155DOPC   C4B16203   2.649   5.224  13.256  0.0450  0.0594 -0.2264
12156DOPC   NC316204  29.970   1.045  11.733  0.0418  0.0455 -0.1036
12156DOPC   PO416205  29.775   1.346  11.534 -0.3020 -0.2296  0.0889
12156DOPC   GL116206  29.526   1.551  11.826  0.0014  0.2905 -0.3465
12156DOPC   GL216207  29.450   1.223  11.893  0.0485  0.0420 -0.3317
12156DOPC   C1A16208  29.226   1.839  11.985 -0.0592 -0.3989 -0.2929
12156DOPC   D2A16209  29.002   2.290  11.921  0.0236  0.0626 -0.1175
12156DOPC   C3A16210  28.960   2.569  12.350  0.1751  0.0843 -0.2312
12156DOPC   C4A16211  29.319   2.653  12.660  0.1488 -0.2677  0.1655
12156DOPC   C1B16212  29.597   1.303  12.282 -0.1611 -0.0452  0.2226
12156DOPC   D2B16213  29.766   1.460  12.679 -0.2261 -0.0471  0.0404
12156DOPC   C3B16214  29.490   1.749  12.963 -0.3904  0.1606  0.0979
12156DOPC   C4B16215  29.304   2.158  13.034 -0.1145 -0.0349 -0.2282
12157DOPC   NC316216  27.702   1.740  10.625  0.2309  0.2647 -0.0461
12157DOPC   PO416217  27.804   1.686  10.966  0.0212  0.0443 -0.1367
12157DOPC   GL116218  27.856   1.837  11.413  0.2863  0.1556  0.0335
12157DOPC   GL216219  27.661   1.633  11.486  0.0586 -0.2218 -0.0826
12157DOPC   C1A16220  28.112   2.135  11.657  0.1858  0.0381  0.0604
12157DOPC   D2A16221  27.880   2.462  11.970 -0.0316  0.0102  0.2477
12157DOPC   C3A16222  27.913   2.385  12.436 -0.3788  0.1195 -0.0222
12157DOPC   C4A16223  28.016   2.352  12.881 -0.2320 -0.1320 -0.4259
12157DOPC   C1B16224  27.569   1.587  11.898  0.1397  0.3033 -0.2235
12157DOPC   D2B16225  27.540   1.533  12.393 -0.2396  0.0353  0.0378
12157DOPC   C3B16226  27.789   1.380  12.758 -0.0636  0.0079  0.2037
12157DOPC   C4B16227  27.809   1.017  13.065 -0.1389  0.3829 -0.1019
12158DOPC   NC316228  16.297   5.129  10.902  0.0201  0.0128  0.2392
12158DOPC   PO416229  16.628   5.281  10.746  0.0330 -0.3323 -0.1904
12158DOPC   GL116230  16.953   5.491  11.011  0.0916 -0.1585  0.5180
12158DOPC   GL216231  17.128   5.364  10.947  0.0738 -0.0669  0.0720
12158DOPC   C1A16232  16.867   5.472  11.457  0.0815 -0.0220  0.0375
12158DOPC   D2A16233  16.824   5.628  11.922  0.0496 -0.0051  0.4771
12158DOPC   C3A16234  16.524   5.804  12.190 -0.2095  0.2106  0.0230
12158DOPC   C4A16235  16.447   5.993  12.632 -0.0608 -0.0846 -0.4102
12158DOPC   C1B16236  17.126   5.090  11.267  0.2122  0.0113 -0.0831
12158DOPC   D2B16237  17.401   5.049  11.672 -0.3410 -0.3276  0.0398
12158DOPC   C3B16238  17.573   5.283  12.018  0.0851  0.2870  0.2141
12158DOPC   C4B16239  17.748   5.275  12.460 -0.2939 -0.1580 -0.1797
12159DOPC   NC316240   9.596   3.418  11.056  0.0975 -0.0329 -0.0695
12159DOPC   PO416241   9.274   3.266  10.922  0.0671  0.1609  0.0685
12159DOPC   GL116242   9.006   3.166  11.262 -0.4522  0.2685 -0.1517
12159DOPC   GL216243   9.031   2.970  10.932  0.0568 -0.0993 -0.0705
12159DOPC   C1A16244   8.651   3.117  11.523 -0.1198 -0.0244 -0.1231
12159DOPC   D2A16245   8.386   2.919  11.910 -0.1107  0.0703 -0.1821
12159DOPC   C3A16246   8.578   2.883  12.300 -0.1065  0.3373 -0.1487
12159DOPC   C4A16247   8.886   2.837  12.648 -0.1963  0.0139 -0.0535
12159DOPC   C1B16248   9.079   2.752  11.398  0.0222 -0.0523 -0.0403
12159DOPC   D2B16249   9.264   2.537  11.841 -0.1238  0.0455  0.0987
12159DOPC   C3B16250   9.395   2.856  12.200  0.0366 -0.0920 -0.0951
12159DOPC   C4B16251   9.387   3.176  12.536 -0.2435 -0.0867  0.0362
12160DOPC   NC316252  11.075   5.399  10.272  0.0955 -0.0127  0.4517
12160DOPC   PO416253  10.718   5.273  10.396 -0.1744 -0.0364 -0.0441
12160DOPC   GL116254  10.718   5.200  10.875 -0.0462  0.0131 -0.2542
12160DOPC   GL216255  11.003   5.303  10.834 -0.2440  0.0102 -0.1999
12160DOPC   C1A16256  10.501   5.332  11.249  0.4254 -0.0402 -0.0313
12160DOPC   D2A16257  10.495   5.569  11.706 -0.0282 -0.1459 -0.2180
12160DOPC   C3A16258  10.485   5.443  12.142  0.2591 -0.0610 -0.0516
12160DOPC   C4A16259  10.610   5.268  12.563  0.0602 -0.0171  0.2135
12160DOPC   C1B16260  11.331   5.193  11.164 -0.1048 -0.1774 -0.3396
12160DOPC   D2B16261  11.607   5.201  11.568 -0.0402 -0.0420 -0.3422
12160DOPC   C3B16262  11.239   5.215  11.822 -0.0396  0.0932  0.1286
12160DOPC   C4B16263  10.799   5.107  11.707 -0.1395  0.1741  0.0095
12161DOPC   NC316264   7.879   5.063  11.276  0.0484 -0.0945  0.0106
12161DOPC   PO416265   7.493   4.973  11.206 -0.2496 -0.1541 -0.0944
12161DOPC   GL116266   7.153   4.804  11.490  0.4583  0.2813 -0.4050
12161DOPC   GL216267   7.109   5.054  11.579 -0.2575  0.2880  0.1243
12161DOPC   C1A16268   7.032   4.604  11.830  0.2037  0.1648 -0.0226
12161DOPC   D2A16269   6.894   4.524  12.218  0.0470  0.1511 -0.0391
12161DOPC   C3A16270   7.202   4.645  12.511 -0.0049 -0.0450  0.1702
12161DOPC   C4A16271   7.383   4.735  12.915 -0.1544  0.2269 -0.0210
12161DOPC   C1B16272   7.189   5.101  11.998  0.0052 -0.1006  0.1745
12161DOPC   D2B16273   7.530   5.007  12.415 -0.1776  0.0255 -0.1169
12161DOPC   C3B16274   7.677   5.283  12.723  0.1035  0.1448  0.0520
12161DOPC   C4B16275   7.660   5.476  13.164 -0.2021  0.2930 -0.2649
12162DOPC   NC316276  21.535   6.962  10.385  0.4344  0.1212 -0.0583
12162DOPC   PO416277  21.446   6.598  10.489  0.1366 -0.0667 -0.1072
12162DOPC   GL116278  21.272   6.519  10.840  0.0660  0.0292 -0.1031
12162DOPC   GL216279  21.222   6.228  10.874 -0.0594 -0.0224 -0.1427
12162DOPC   C1A16280  21.138   6.726  11.240 -0.4294  0.0470 -0.0343
12162DOPC   D2A16281  21.008   6.952  11.656  0.2205  0.2986 -0.0945
12162DOPC   C3A16282  20.803   7.001  12.060 -0.3234 -0.0036  0.0148
12162DOPC   C4A16283  20.895   7.076  12.552 -0.1550  0.0770 -0.0721
12162DOPC   C1B16284  21.310   6.197  11.334 -0.1780  0.2498  0.0283
12162DOPC   D2B16285  21.231   6.173  11.779  0.0426 -0.1498  0.1894
12162DOPC   C3B16286  21.170   6.130  12.280 -0.0154 -0.0869 -0.0861
12162DOPC   C4B16287  20.939   5.973  12.664  0.1092 -0.2651 -0.4393
12163DOPS   CNO16288   8.155   5.776  10.905 -0.0549 -0.0063  0.0420
12163DOPS   PO416289   8.143   5.392  10.883 -0.0192 -0.3280  0.0581
12163DOPS   GL116290   8.287   5.349  11.250 -0.0329  0.1673 -0.2512
12163DOPS   GL216291   8.055   5.506  11.361 -0.3192  0.1703 -0.0781
12163DOPS   C1A16292   8.462   5.299  11.601 -0.0260 -0.0140 -0.2911
12163DOPS   D2A16293   8.373   5.347  12.144 -0.0456 -0.1109  0.1644
12163DOPS   C3A16294   8.246   5.761  12.268 -0.1191 -0.1204 -0.2435
12163DOPS   C4A16295   8.093   6.151  12.612  0.1032 -0.2813  0.0315
12163DOPS   C1B16296   8.076   5.604  11.783  0.0715 -0.0271  0.0255
12163DOPS   D2B16297   7.777   5.925  12.094  0.0867  0.1837  0.1469
12163DOPS   C3B16298   7.757   5.718  12.576  0.0807 -0.1588 -0.0781
12163DOPS   C4B16299   7.294   5.631  12.739  0.1009 -0.2996  0.1461
12164DOPS   CNO16300  11.514   2.567  10.862 -0.0850  0.0044 -0.0544
12164DOPS   PO416301  11.731   2.813  11.034  0.1986  0.1401  0.0709
12164DOPS   GL116302  11.681   2.870  11.437 -0.1018 -0.1461  0.1447
12164DOPS   GL216303  11.375   2.838  11.451  0.2679  0.1131  0.0063
12164DOPS   C1A16304  11.727   3.173  11.749 -0.0171 -0.1931  0.0156
12164DOPS   D2A16305  11.939   3.307  12.123  0.0517 -0.0750 -0.1771
12164DOPS   C3A16306  12.208   3.358  12.486  0.1441 -0.1069 -0.0490
12164DOPS   C4A16307  12.520   3.273  12.916 -0.0107  0.1618 -0.0889
12164DOPS   C1B16308  11.201   3.029  11.785 -0.2121 -0.0789 -0.0390
12164DOPS   D2B16309  11.100   3.238  12.236  0.5525  0.1121 -0.0289
12164DOPS   C3B16310  11.290   3.322  12.590  0.1542  0.1151 -0.1608
12164DOPS   C4B16311  11.472   3.311  13.052  0.1170  0.0140  0.2995
12165DOPS   CNO16312  18.712   4.416  10.325 -0.0007 -0.0183 -0.1046
12165DOPS   PO416313  18.959   4.513  10.597 -0.2036  0.1620  0.2372
12165DOPS   GL116314  18.810   4.570  11.059  0.4759  0.1352 -0.0581
12165DOPS   GL216315  18.954   4.783  11.126  0.2443  0.2164  0.1644
12165DOPS   C1A16316  18.747   4.343  11.433 -0.1844 -0.0021 -0.0993
12165DOPS   D2A16317  18.901   3.953  11.693  0.0401 -0.3756 -0.1267
12165DOPS   C3A16318  19.196   3.842  12.124  0.2365 -0.1495  0.0875
12165DOPS   C4A16319  19.683   3.758  12.272  0.0758  0.0325  0.0190
12165DOPS   C1B16320  18.867   4.927  11.524 -0.2635 -0.1544  0.1477
12165DOPS   D2B16321  18.941   5.172  11.948  0.1117  0.1648  0.4098
12165DOPS   C3B16322  19.212   5.105  12.267  0.3073 -0.0267  0.0844
12165DOPS   C4B16323  19.024   5.107  12.791 -0.0472 -0.1016  0.4665
12166DOPS   CNO16324   6.736   5.031  11.310  0.0058 -0.1356  0.1510
12166DOPS   PO416325   6.387   5.020  11.176 -0.1271 -0.2193 -0.1177
12166DOPS   GL116326   6.348   5.190  11.588 -0.0572 -0.0223  0.1260
12166DOPS   GL216327   6.448   5.480  11.452 -0.0788 -0.3170  0.0835
12166DOPS   C1A16328   6.661   5.181  11.846  0.1452 -0.0946 -0.0203
12166DOPS   D2A16329   6.707   5.119  12.340  0.0686  0.1946  0.1670
12166DOPS   C3A16330   7.109   5.172  12.629 -0.1365 -0.0215  0.2827
12166DOPS   C4A16331   7.243   5.209  13.087 -0.2084  0.0166  0.4195
12166DOPS   C1B16332   6.825   5.610  11.674  0.1689 -0.0949 -0.1162
12166DOPS   D2B16333   7.215   5.809  11.847 -0.3000 -0.1281 -0.2153
12166DOPS   C3B16334   7.223   6.039  12.339  0.1547 -0.0938  0.0610
12166DOPS   C4B16335   7.252   6.212  12.805 -0.1109 -0.0414 -0.2691
12167DOPS   CNO16336  13.919   0.100  11.113  0.0412 -0.0473  0.1465
12167DOPS   PO416337  14.163  -0.151  10.912 -0.0055  0.0343 -0.0141
12167DOPS   GL116338  14.205  -0.229  11.249 -0.1413 -0.0336 -0.1134
12167DOPS   GL216339  13.879  -0.296  11.377  0.1344 -0.1992 -0.1535
12167DOPS   C1A16340  14.458  -0.200  11.665  0.0817 -0.0630  0.0345
12167DOPS   D2A16341  14.616  -0.483  12.032 -0.2062  0.1925  0.0981
12167DOPS   C3A16342  14.396  -0.666  12.412 -0.2003 -0.3142 -0.0340
12167DOPS   C4A16343  14.246  -0.619  12.886 -0.1237 -0.1217  0.3245
12167DOPS   C1B16344  13.674  -0.077  11.584  0.0027 -0.1494 -0.1240
12167DOPS   D2B16345  13.355   0.213  11.856 -0.0660  0.0715 -0.3535
12167DOPS   C3B16346  13.077   0.072  12.165 -0.0509 -0.0944 -0.0033
12167DOPS   C4B16347  13.051  -0.257  12.535  0.3093 -0.0764 -0.1874
12168DOPS   CNO16348  23.877   1.572  10.882 -0.0008 -0.2358  0.1580
12168DOPS   PO416349  24.207   1.526  11.003 -0.6908 -0.1364 -0.1172
12168DOPS   GL116350  24.210   1.350  11.411 -0.0140 -0.1245 -0.0892
12168DOPS   GL216351  24.446   1.528  11.520  0.3720  0.0354 -0.0489
12168DOPS   C1A16352  23.813   1.271  11.727 -0.2262 -0.2129 -0.0488
12168DOPS   D2A16353  23.599   1.140  12.158 -0.0637 -0.0511  0.3455
12168DOPS   C3A16354  23.327   1.061  12.573  0.0154  0.0085 -0.4385
12168DOPS   C4A16355  22.898   1.320  12.580  0.3589  0.0934 -0.1863
12168DOPS   C1B16356  24.179   1.590  11.865  0.0695  0.2215  0.1397
12168DOPS   D2B16357  23.983   1.437  12.280 -0.3588 -0.0076 -0.1264
12168DOPS   C3B16358  23.765   1.387  12.668 -0.0185  0.2057  0.1609
12168DOPS   C4B16359  23.641   1.183  13.075 -0.1767 -0.1128 -0.2834
12169DOPS   CNO16360   7.296   6.317  11.135  0.0047  0.0399 -0.2521
12169DOPS   PO416361   7.602   6.548  11.117  0.0611 -0.1691  0.0911
12169DOPS   GL116362   7.717   6.648  11.465  0.6405  0.3522 -0.2098
12169DOPS   GL216363   7.529   6.852  11.464 -0.1026 -0.1562 -0.1200
12169DOPS   C1A16364   8.120   6.589  11.610  0.1842  0.1541  0.0300
12169DOPS   D2A16365   8.461   6.574  11.963  0.1440  0.0424  0.2444
12169DOPS   C3A16366   8.397   6.574  12.412 -0.1691 -0.2290  0.1307
12169DOPS   C4A16367   8.772   6.461  12.661 -0.2794  0.0129  0.0359
12169DOPS   C1B16368   7.262   6.806  11.862  0.1677  0.1851  0.0065
12169DOPS   D2B16369   6.913   6.944  12.204  0.2831  0.0892 -0.2744
12169DOPS   C3B16370   6.888   7.317  12.589 -0.0921 -0.0372  0.0345
12169DOPS   C4B16371   7.006   7.789  12.782 -0.1501  0.0910  0.0793
12170DOPS   CNO16372  30.931   7.631  11.522 -0.0079  0.2301  0.0488
12170DOPS   PO416373  30.606   7.609  11.673  0.2140  0.1480  0.2268
12170DOPS   GL116374  30.531   7.637  12.089 -0.2447  0.0348 -0.0549
12170DOPS   GL216375  30.304   7.526  12.211  0.1708  0.3534  0.0551
12170DOPS   C1A16376  30.957   7.545  12.310  0.4270 -0.2674  0.0995
12170DOPS   D2A16377  31.090   7.131  12.418 -0.3168  0.1585  0.2007
12170DOPS   C3A16378  31.282   7.080  12.776  0.0321 -0.0645  0.1746
12170DOPS   C4A16379  31.594   6.930  13.204  0.2255  0.3295  0.3188
12170DOPS   C1B16380  30.202   7.521  12.644 -0.0884 -0.2368 -0.1493
12170DOPS   D2B16381  30.093   7.502  13.105 -0.0846  0.0045 -0.3510
12170DOPS   C3B16382  30.367   7.383  13.470 -0.0790  0.1571 -0.0506
12170DOPS   C4B16383  30.177   7.261  13.953  0.1227 -0.0428 -0.0684
12171DOPS   CNO16384  19.908   3.087  10.367  0.0628  0.2748  0.1275
12171DOPS   PO416385  19.860   3.316  10.662  0.1324 -0.3608  0.1179
12171DOPS   GL116386  20.074   3.399  11.009  0.1185  0.2948 -0.2691
12171DOPS   GL216387  19.901   3.271  11.181  0.0729  0.1619  0.2434
12171DOPS   C1A16388  20.222   3.741  11.301  0.1342  0.0587 -0.1589
12171DOPS   D2A16389  20.323   3.887  11.719 -0.2529  0.0196  0.0839
12171DOPS   C3A16390  20.440   3.826  12.162  0.0063 -0.3010  0.1352
12171DOPS   C4A16391  20.516   3.578  12.577 -0.1707 -0.2588  0.0598
12171DOPS   C1B16392  19.928   3.313  11.621  0.1513  0.1991  0.1390
12171DOPS   D2B16393  20.093   3.527  11.986  0.1184 -0.0392 -0.1022
12171DOPS   C3B16394  20.103   3.540  12.393 -0.0065  0.2596  0.2492
12171DOPS   C4B16395  20.040   3.609  12.830  0.1852 -0.0280 -0.3159
12172DOPS   CNO16396  11.894   3.268  10.774 -0.1408  0.0276 -0.0637
12172DOPS   PO416397  11.728   3.581  10.929 -0.2983  0.0617  0.0004
12172DOPS   GL116398  11.790   3.759  11.325 -0.2694 -0.0526  0.0325
12172DOPS   GL216399  12.060   3.757  11.358 -0.1776 -0.0845 -0.2165
12172DOPS   C1A16400  11.546   3.615  11.649  0.0897 -0.0547  0.0619
12172DOPS   D2A16401  11.477   3.458  12.126  0.0384 -0.2007  0.1964
12172DOPS   C3A16402  11.744   3.650  12.414  0.0122 -0.0783 -0.1267
12172DOPS   C4A16403  12.028   3.746  12.778  0.3186  0.0917 -0.2055
12172DOPS   C1B16404  12.305   3.975  11.689  0.2918  0.1376  0.0026
12172DOPS   D2B16405  12.583   4.220  12.071  0.0528  0.1868 -0.3122
12172DOPS   C3B16406  12.649   4.468  12.414  0.0580  0.0264  0.0511
12172DOPS   C4B16407  12.607   4.831  12.720 -0.2400 -0.1889 -0.1726
12173DOPS   CNO16408  26.469   1.857  10.728  0.0318 -0.0271  0.0170
12173DOPS   PO416409  26.407   2.071  11.051  0.1151  0.3680 -0.1657
12173DOPS   GL116410  26.635   2.047  11.367 -0.4175 -0.0637  0.2528
12173DOPS   GL216411  26.516   2.295  11.465 -0.0220 -0.3998 -0.2127
12173DOPS   C1A16412  26.901   1.876  11.668  0.1058  0.0838  0.4064
12173DOPS   D2A16413  27.114   1.627  12.061 -0.2899 -0.0552 -0.0716
12173DOPS   C3A16414  27.048   1.450  12.452 -0.0732  0.1550 -0.0762
12173DOPS   C4A16415  27.305   1.151  12.764 -0.3105  0.3274  0.0059
12173DOPS   C1B16416  26.318   2.429  11.829 -0.0902  0.0461 -0.1632
12173DOPS   D2B16417  26.191   2.497  12.258  0.1476 -0.0873  0.3041
12173DOPS   C3B16418  26.393   2.632  12.660 -0.0532  0.0250  0.1535
12173DOPS   C4B16419  26.503   2.678  13.175 -0.2478  0.2942 -0.0316
12174DOPS   CNO16420  18.774   3.814  10.540  0.1471  0.0890  0.1533
12174DOPS   PO416421  18.996   3.612  10.791 -0.0229  0.0309 -0.2131
12174DOPS   GL116422  19.094   3.735  11.203  0.1018  0.2491 -0.0920
12174DOPS   GL216423  18.988   3.490  11.275 -0.0847 -0.1544 -0.3138
12174DOPS   C1A16424  19.164   4.139  11.328 -0.0677  0.2882  0.0781
12174DOPS   D2A16425  19.115   4.465  11.714  0.0228 -0.0880  0.1373
12174DOPS   C3A16426  18.845   4.293  12.055 -0.1612  0.4771 -0.2402
12174DOPS   C4A16427  18.577   4.060  12.420 -0.0770 -0.1366  0.2491
12174DOPS   C1B16428  19.066   3.458  11.681  0.2491  0.0206  0.1825
12174DOPS   D2B16429  19.177   3.281  12.159 -0.4068 -0.0993  0.0978
12174DOPS   C3B16430  19.204   3.074  12.510 -0.0703  0.1269  0.0214
12174DOPS   C4B16431  19.166   2.800  12.985 -0.0733  0.1823  0.1549
12175DOPS   CNO16432   5.120   3.700  11.084 -0.0525  0.3008  0.0538
12175DOPS   PO416433   5.473   3.830  11.024  0.0823  0.0804  0.2560
12175DOPS   GL116434   5.601   3.739  11.442  0.3273 -0.3396 -0.2476
12175DOPS   GL216435   5.427   4.022  11.438  0.0658  0.0625 -0.2641
12175DOPS   C1A16436   5.598   3.398  11.766 -0.2584 -0.3046  0.0232
12175DOPS   D2A16437   5.424   3.087  12.134  0.3190 -0.1799  0.1460
12175DOPS   C3A16438   5.692   3.179  12.486  0.3101 -0.0455 -0.0714
12175DOPS   C4A16439   5.918   3.051  12.899 -0.0590  0.1740 -0.0837
12175DOPS   C1B16440   5.223   3.749  11.778 -0.0953  0.1074  0.3372
12175DOPS   D2B16441   4.968   3.471  12.104  0.0835 -0.1139 -0.0365
12175DOPS   C3B16442   4.912   3.612  12.494 -0.1333  0.1982 -0.1118
12175DOPS   C4B16443   4.910   3.670  12.972  0.0736  0.2262 -0.0023
12176DOPS   CNO16444  15.249   6.317  10.853 -0.3114 -0.0417 -0.0768
12176DOPS   PO416445  15.187   6.670  10.955 -0.1899 -0.2722 -0.1509
12176DOPS   GL116446  14.984   6.590  11.317  0.1569  0.1381  0.2153
12176DOPS   GL216447  14.867   6.452  11.161  0.0038  0.0945 -0.0488
12176DOPS   C1A16448  14.945   6.317  11.713 -0.1451  0.1820 -0.1071
12176DOPS   D2A16449  15.055   6.230  12.202  0.1742 -0.2097 -0.1263
12176DOPS   C3A16450  15.225   5.967  12.602 -0.0319 -0.0792 -0.0862
12176DOPS   C4A16451  15.510   5.813  12.987 -0.0241 -0.2593  0.3054
12176DOPS   C1B16452  14.565   6.430  11.494 -0.0515  0.0691  0.0805
12176DOPS   D2B16453  14.491   6.381  11.992  0.1485 -0.2968  0.2262
12176DOPS   C3B16454  14.306   6.126  12.347  0.0473 -0.0868  0.3826
12176DOPS   C4B16455  14.240   5.952  12.810 -0.2018 -0.2013 -0.0657
12177DOPS   CNO16456  19.720   4.029  10.481 -0.0273  0.0977 -0.1610
12177DOPS   PO416457  19.758   4.243  10.793 -0.1395  0.1060  0.1507
12177DOPS   GL116458  19.591   4.221  11.192 -0.2241 -0.1751  0.0179
12177DOPS   GL216459  19.889   4.143  11.267 -0.1095 -0.2406  0.2312
12177DOPS   C1A16460  19.589   4.471  11.475  0.3981 -0.1354 -0.1322
12177DOPS   D2A16461  19.567   4.215  11.903  0.0710 -0.1931  0.0982
12177DOPS   C3A16462  19.650   4.357  12.304 -0.0788  0.1544  0.1099
12177DOPS   C4A16463  19.821   4.522  12.710 -0.4256  0.0954  0.5138
12177DOPS   C1B16464  20.025   4.311  11.637  0.0007 -0.0371  0.1010
12177DOPS   D2B16465  20.219   4.547  12.089 -0.0552  0.1187  0.1299
12177DOPS   C3B16466  20.504   4.380  12.347  0.3190 -0.0092 -0.1229
12177DOPS   C4B16467  20.786   4.299  12.711  0.1816  0.0637  0.0358
12178DOPS   CNO16468  21.013   5.072  10.585  0.0110  0.1498  0.0495
12178DOPS   PO416469  21.322   5.248  10.763 -0.1693 -0.1368  0.0176
12178DOPS   GL116470  21.128   5.115  11.080 -0.1770 -0.0817  0.3113
12178DOPS   GL216471  20.882   4.947  11.034 -0.1593  0.1652  0.3161
12178DOPS   C1A16472  21.108   5.374  11.464 -0.0583  0.0451  0.2231
12178DOPS   D2A16473  20.897   5.275  11.918 -0.1289 -0.1514  0.0948
12178DOPS   C3A16474  21.048   5.645  12.178 -0.0560  0.0459 -0.1905
12178DOPS   C4A16475  21.351   5.715  12.505 -0.0801  0.2454  0.2291
12178DOPS   C1B16476  20.918   4.602  11.304 -0.2922  0.2078 -0.0927
12178DOPS   D2B16477  20.909   4.098  11.424  0.0260 -0.1851  0.0036
12178DOPS   C3B16478  20.918   3.798  11.731 -0.1415 -0.1861 -0.1224
12178DOPS   C4B16479  20.928   3.422  12.094 -0.2564 -0.3323 -0.1345
12179DOPS   CNO16480  23.937   0.396  10.460 -0.1488  0.1595  0.0890
12179DOPS   PO416481  23.994   0.566  10.763  0.1006  0.1746 -0.0756
12179DOPS   GL116482  24.127   0.502  11.106  0.1158 -0.1018  0.2196
12179DOPS   GL216483  23.994   0.302  11.292 -0.1566  0.0887 -0.1363
12179DOPS   C1A16484  24.216   0.832  11.454 -0.1847 -0.2143 -0.1832
12179DOPS   D2A16485  24.317   1.094  11.867 -0.2219 -0.2002 -0.0513
12179DOPS   C3A16486  24.082   0.955  12.267 -0.1140 -0.0128 -0.2001
12179DOPS   C4A16487  23.805   0.895  12.655  0.1640  0.0219  0.0121
12179DOPS   C1B16488  23.883   0.206  11.713 -0.4049  0.1670  0.0042
12179DOPS   D2B16489  23.589   0.118  12.150 -0.0687  0.1431 -0.1663
12179DOPS   C3B16490  23.198   0.116  12.427 -0.1960  0.2162  0.1322
12179DOPS   C4B16491  23.114   0.144  12.907  0.1336 -0.0705  0.2271
12180DOPS   CNO16492  14.520   4.306  10.754 -0.0111 -0.0586  0.0651
12180DOPS   PO416493  14.185   4.310  10.904  0.3020 -0.0791 -0.0584
12180DOPS   GL116494  14.116   4.324  11.316  0.0748 -0.0040 -0.2402
12180DOPS   GL216495  14.030   4.064  11.444 -0.2823 -0.1511  0.1508
12180DOPS   C1A16496  14.265   4.478  11.711 -0.2905  0.0725 -0.0857
12180DOPS   D2A16497  14.298   4.596  12.172  0.0948  0.1606  0.1147
12180DOPS   C3A16498  14.120   4.699  12.587  0.0851  0.2985 -0.0602
12180DOPS   C4A16499  13.907   4.743  13.055  0.0885 -0.0480  0.0481
12180DOPS   C1B16500  13.813   3.881  11.771 -0.3005 -0.0162 -0.1854
12180DOPS   D2B16501  13.526   3.782  12.124  0.1542 -0.0275 -0.3321
12180DOPS   C3B16502  13.637   3.933  12.584 -0.1533 -0.0960 -0.1344
12180DOPS   C4B16503  13.762   3.988  13.083  0.0349  0.1320  0.0079
12181DOPS   CNO16504  16.561   4.321  10.565  0.1411 -0.1435  0.2984
12181DOPS   PO416505  16.328   4.340  10.838 -0.4081 -0.0480  0.1439
12181DOPS   GL116506  16.526   4.346  11.242 -0.0511 -0.0834  0.0051
12181DOPS   GL216507  16.504   4.629  11.190  0.1455  0.0739 -0.1165
12181DOPS   C1A16508  16.755   4.180  11.586 -0.2701  0.3655  0.0087
12181DOPS   D2A16509  16.821   4.144  12.073  0.0141 -0.1355 -0.4113
12181DOPS   C3A16510  16.707   4.354  12.479 -0.0966  0.0540  0.0105
12181DOPS   C4A16511  16.585   4.393  12.954  0.0694  0.2614  0.2247
12181DOPS   C1B16512  16.353   4.799  11.527 -0.1328 -0.0205 -0.0418
12181DOPS   D2B16513  16.164   4.793  11.998  0.0583 -0.1361  0.3272
12181DOPS   C3B16514  15.771   4.888  12.208 -0.1641  0.0602  0.0918
12181DOPS   C4B16515  15.674   4.866  12.709  0.1428  0.1353  0.0178
12182DOPS   CNO16516   7.101   1.069  10.562  0.0179  0.0604 -0.0749
12182DOPS   PO416517   7.133   1.072  10.979  0.0490  0.2441 -0.0954
12182DOPS   GL116518   7.012   1.383  11.275 -0.2639  0.0716 -0.4797
12182DOPS   GL216519   7.271   1.270  11.403 -0.2951 -0.3078  0.3512
12182DOPS   C1A16520   6.708   1.397  11.622 -0.2335 -0.1186  0.1242
12182DOPS   D2A16521   6.421   1.490  11.891 -0.1980 -0.0515 -0.0877
12182DOPS   C3A16522   6.402   1.661  12.267  0.1868  0.2756 -0.0420
12182DOPS   C4A16523   6.662   1.641  12.701  0.2172 -0.0351 -0.2296
12182DOPS   C1B16524   7.229   1.267  11.822  0.2064 -0.2153 -0.0481
12182DOPS   D2B16525   7.472   1.339  12.228 -0.2082 -0.2047  0.2601
12182DOPS   C3B16526   7.821   1.155  12.540 -0.0062  0.0043 -0.0039
12182DOPS   C4B16527   7.756   1.000  12.991  0.2304  0.1142  0.0844
12183DOPS   CNO16528  26.116   7.257  10.532 -0.0052 -0.0513 -0.2282
12183DOPS   PO416529  26.209   6.997  10.786 -0.0619 -0.3539  0.2466
12183DOPS   GL116530  26.313   7.052  11.202 -0.2712  0.0555 -0.0643
12183DOPS   GL216531  26.444   6.764  11.161 -0.0091  0.3866  0.2429
12183DOPS   C1A16532  26.028   7.116  11.547  0.0165  0.2205 -0.1201
12183DOPS   D2A16533  25.712   7.424  11.776 -0.1268  0.0221  0.1191
12183DOPS   C3A16534  25.553   7.305  12.205 -0.0411  0.1387  0.1387
12183DOPS   C4A16535  25.537   7.203  12.744 -0.1914  0.0414 -0.2405
12183DOPS   C1B16536  26.283   6.597  11.545  0.0233 -0.1056 -0.1617
12183DOPS   D2B16537  26.179   6.577  12.091 -0.1232 -0.0065 -0.0369
12183DOPS   C3B16538  25.694   6.406  12.139 -0.3143 -0.1317  0.0618
12183DOPS   C4B16539  25.341   6.365  11.847 -0.0501 -0.1508 -0.2961
12184DOPS   CNO16540  18.751   2.494  10.576 -0.1574  0.3017  0.0124
12184DOPS   PO416541  18.399   2.599  10.603  0.0721  0.2744 -0.1865
12184DOPS   GL116542  18.309   2.420  10.949  0.3249  0.0585 -0.0477
12184DOPS   GL216543  18.017   2.626  10.862 -0.0174  0.3157  0.0754
12184DOPS   C1A16544  18.499   2.545  11.317 -0.2074 -0.1081 -0.0108
12184DOPS   D2A16545  18.714   2.625  11.771 -0.1575  0.2541 -0.0128
12184DOPS   C3A16546  18.816   2.787  12.161 -0.0111 -0.0496 -0.2439
12184DOPS   C4A16547  18.731   2.763  12.622 -0.0016 -0.3130 -0.0315
12184DOPS   C1B16548  17.965   2.926  11.233  0.0713  0.1060  0.1548
12184DOPS   D2B16549  17.792   3.245  11.558 -0.0711 -0.0130 -0.3183
12184DOPS   C3B16550  17.406   3.290  11.879  0.3584  0.2248 -0.0752
12184DOPS   C4B16551  17.160   3.095  12.324  0.3508 -0.2385  0.1441
12185DOPS   CNO16552  20.403   0.760  10.619 -0.0203 -0.1382  0.0773
12185DOPS   PO416553  20.729   0.705  10.583  0.2247  0.0410  0.2802
12185DOPS   GL116554  20.865   0.462  10.884 -0.1187 -0.0268  0.1913
12185DOPS   GL216555  21.108   0.527  10.735  0.1654  0.0515 -0.2439
12185DOPS   C1A16556  20.811   0.433  11.322 -0.1680  0.0227  0.0312
12185DOPS   D2A16557  20.565   0.448  11.761 -0.0928  0.0295 -0.1999
12185DOPS   C3A16558  20.444   0.284  12.244  0.1433 -0.0063  0.3209
12185DOPS   C4A16559  20.250   0.211  12.665 -0.1498  0.0455 -0.1548
12185DOPS   C1B16560  21.376   0.828  11.028 -0.0681 -0.0346  0.1653
12185DOPS   D2B16561  21.720   1.110  11.316 -0.0849  0.0474  0.2214
12185DOPS   C3B16562  21.445   1.095  11.653 -0.0717 -0.1518  0.2044
12185DOPS   C4B16563  21.262   1.078  12.084  0.1368  0.0352 -0.2149
12186DOPS   CNO16564   6.675   3.645  10.937 -0.0793 -0.0502 -0.1216
12186DOPS   PO416565   6.789   3.952  11.090 -0.1727  0.2457 -0.0488
12186DOPS   GL116566   6.687   3.984  11.418 -0.0763  0.0422  0.0189
12186DOPS   GL216567   6.441   4.228  11.371 -0.1094  0.0464 -0.1152
12186DOPS   C1A16568   6.454   3.818  11.786  0.0131 -0.0343 -0.0247
12186DOPS   D2A16569   6.361   3.486  12.171 -0.0823 -0.0527  0.3700
12186DOPS   C3A16570   6.238   3.363  12.603  0.2916  0.0622  0.1350
12186DOPS   C4A16571   6.286   3.396  13.094 -0.0320 -0.5054  0.3132
12186DOPS   C1B16572   6.073   4.235  11.656 -0.0390 -0.1995 -0.0903
12186DOPS   D2B16573   5.748   4.412  12.032  0.0935 -0.0311 -0.1548
12186DOPS   C3B16574   5.908   4.746  12.343  0.0661  0.0492  0.0459
12186DOPS   C4B16575   5.904   5.043  12.667  0.1523  0.1670 -0.0371
12187DOPS   CNO16576  20.162   1.636  10.460 -0.1387  0.0051  0.0005
12187DOPS   PO416577  20.098   1.295  10.609 -0.1431  0.0430 -0.1552
12187DOPS   GL116578  20.314   1.242  11.011  0.1930  0.4847  0.0328
12187DOPS   GL216579  20.192   0.967  10.950 -0.0669  0.3425  0.1577
12187DOPS   C1A16580  20.641   1.288  11.302  0.2465  0.1383 -0.0851
12187DOPS   D2A16581  20.961   1.325  11.660 -0.1741 -0.0199 -0.2234
12187DOPS   C3A16582  21.114   1.575  12.012 -0.0104  0.0056  0.0352
12187DOPS   C4A16583  21.253   1.586  12.476  0.1339 -0.2453  0.2828
12187DOPS   C1B16584  20.036   1.023  11.287  0.2853 -0.1533  0.0228
12187DOPS   D2B16585  19.727   1.250  11.634 -0.0200  0.4649 -0.2033
12187DOPS   C3B16586  19.513   1.046  11.961 -0.1615  0.2454 -0.1639
12187DOPS   C4B16587  19.352   0.632  12.258 -0.0200 -0.0116 -0.1306
12188W        W16588   6.756   2.174  16.395  0.1057 -0.1673  0.0021
12189W        W16589   5.661   2.114   8.269  0.1518  0.1422 -0.1749
12190W        W16590  20.047   7.545  14.800  0.0354 -0.0358  0.4524
12191W        W16591   6.521   0.054   3.753 -0.1989  0.1491 -0.0520
12192W        W16592  12.020   5.716  19.792 -0.0983  0.3249 -0.1352
12193W        W16593  26.793   6.426   6.496 -0.2470  0.1779 -0.0169
12194W        W16594  20.738   3.315   2.283  0.3671  0.0941 -0.0454
12195W        W16595  30.039   1.136  22.226  0.0069  0.1037  0.2727
12196W        W16596   9.545   2.013  18.620  0.0493 -0.1018 -0.1041
12197W        W16597  10.585   0.701  15.193  0.0070 -0.0737  0.0101
12198W        W16598   0.060   4.760  20.750 -0.1601  0.1313 -0.0418
12199W        W16599  14.855   3.645   3.371  0.1927  0.1966  0.1598
12200W        W16600  29.152   7.190  18.791 -0.0544  0.2094 -0.0839
12201W        W16601  13.187   1.494  24.978 -0.2539 -0.1761  0.0962
12202W        W16602   1.122   6.290   3.369  0.0756  0.0193  0.0953
12203W        W16603  28.010   1.799  20.009  0.1620  0.1401 -0.3593
12204W        W16604  26.307   4.167   6.247 -0.0971  0.0810 -0.3113
12205W        W16605  21.347   3.149  10.348  0.0014 -0.2625 -0.0791
12206W        W16606  13.572   0.157   7.626 -0.2930 -0.0231 -0.0582
12207W        W16607   9.356   6.382   5.756 -0.0775 -0.0560  0.1373
12208W        W16608   5.027   7.730   8.293 -0.0057 -0.0899 -0.1209
12209W        W16609  16.259   5.967  24.093 -0.1821 -0.1970 -0.1839
12210W        W16610  23.781   2.204  23.918 -0.0236  0.3179 -0.0745
12211W        W16611  18.530   7.258   5.301 -0.0950 -0.2151 -0.2660
12212W        W16612  29.012   1.917  25.959  0.0491 -0.2649  0.0185
12213W        W16613   4.584   6.207  18.170 -0.4172 -0.2704 -0.0160
12214W        W16614  14.792   3.270   6.803 -0.0307 -0.0055  0.4407
12215W        W16615  22.003   6.674   9.069  0.0434 -0.0956 -0.0043
12216W        W16616  20.366   4.839  18.856 -0.0836 -0.2584  0.0567
12217W        W16617   7.998   0.837  23.420 -0.0099  0.2243  0.0095
12218W        W16618   6.892   1.198  20.256  0.0196  0.0844  0.3391
12219W        W16619  25.265   4.894   1.814 -0.0200 -0.0089 -0.1509
12220W        W16620  29.361   6.426  16.399 -0.2877  0.1894  0.0964
12221W        W16621  26.688   3.019   8.063 -0.1104 -0.0986 -0.1320
12222W        W16622   2.687   3.103  23.628 -0.1361  0.1762  0.0345
12223W        W16623  15.639   3.908  21.128  0.1487 -0.0186  0.0279
12224W        W16624  17.391   1.496   6.151 -0.2201  0.2407 -0.0400
12225W        W16625  16.137   5.355  21.802 -0.0951 -0.1424  0.3011
12226W        W16626   0.379   6.704   0.346 -0.2221  0.1822 -0.0264
12227W        W16627   9.363   3.101  24.764  0.0407 -0.2368  0.1187
12228W        W16628   9.086   2.364   8.710  0.0043  0.0696 -0.2167
12229W        W16629  28.622   2.032  22.185  0.0169  0.1570 -0.2525
12230W        W16630  13.239   1.104   3.610  0.0963  0.0139 -0.0336
12231W        W16631  17.691   1.610   0.082  0.1955 -0.1170 -0.1970
12232W        W16632  13.093   1.482  24.477  0.0596  0.1960  0.0249
12233W        W16633   0.528   1.674   4.997  0.1055  0.2377 -0.0641
12234W        W16634  15.668   5.948  10.390  0.1908 -0.2054 -0.2790
12235W        W16635  28.406   4.999   4.646 -0.0753  0.1241 -0.0013
12236W        W16636   0.465   6.511   0.948  0.2585 -0.0226 -0.1566
12237W        W16637  19.013   0.196  17.657  0.0178 -0.1103 -0.0064
12238W        W16638  11.390   7.301  24.740 -0.2190 -0.0150  0.2289
12239W        W16639   9.505   6.186   9.075  0.3319 -0.0046  0.0044
12240W        W16640   2.163   5.286  22.868  0.0217 -0.1088  0.0406
12241W        W16641  18.520   0.876  18.252 -0.0186  0.1548  0.0690
12242W        W16642  17.383   3.787  22.798  0.0399 -0.0648  0.0529
12243W        W16643   0.026   5.097   9.864  0.0506 -0.1191  0.2370
12244W        W16644  19.400   5.891  20.074 -0.0239  0.1038 -0.2238
12245W        W16645  23.688   5.996   0.008 -0.0027 -0.4130 -0.1946
12246W        W16646  16.220   3.890   3.130 -0.0390 -0.2406  0.0665
12247W        W16647  13.401   1.761   4.285 -0.1385 -0.0827 -0.3388
12248W        W16648  11.932   4.352   8.293 -0.2854  0.3402 -0.1511
12249W        W16649   0.895   3.792   8.697 -0.0264  0.2630  0.2591
12250W        W16650   2.079   6.364  20.094 -0.3340  0.0522 -0.2493
12251W        W16651  25.915   6.808  15.539  0.0178 -0.1280  0.1769
12252W        W16652  17.273   6.097  24.016  0.0192  0.0913 -0.0550
12253W        W16653   0.965   3.005  19.804 -0.2706  0.0344 -0.0218
12254W        W16654  18.678   6.058   4.994  0.0854  0.1787  0.0326
12255W        W16655  26.785   7.331   9.610 -0.1325 -0.1945 -0.2816
12256W        W16656  23.316   2.241   4.778 -0.0528  0.0130 -0.0671
12257W        W16657  11.964   7.341   8.778 -0.1513  0.1136 -0.1038
12258W        W16658  26.881   7.697  21.352  0.3056  0.2253 -0.0149
12259W        W16659  10.326   3.149   6.318  0.1344 -0.1157  0.0348
12260W        W16660  14.320   7.818   6.818  0.1871 -0.0776 -0.0018
12261W        W16661  12.559   0.057   0.744  0.3616  0.0006 -0.0409
12262W        W16662  19.578   3.524   1.552  0.0792 -0.1403  0.0159
12263W        W16663  21.717   6.747   2.961  0.2634  0.1041 -0.1435
12264W        W16664  13.562   7.660  19.391 -0.1406 -0.0665  0.0097
12265W        W16665   0.898   4.295  22.638  0.2218  0.1072  0.0395
12266W        W16666   9.363   0.852  24.100 -0.1342  0.1838  0.1890
12267W        W16667   9.860   4.799   8.248  0.0068 -0.0726  0.0655
12268W        W16668  20.154   7.729  15.385  0.0551  0.2077  0.4552
12269W        W16669  21.478   0.256   2.153 -0.1880  0.2111  0.2031
12270W        W16670  27.685   6.929  19.278  0.2039 -0.0015 -0.0538
12271W        W16671  24.261   4.857  21.132  0.1165 -0.0712 -0.2965
12272W        W16672  23.464   3.451   5.892  0.1941 -0.3573  0.0608
12273W        W16673   5.919   3.034  17.245 -0.0614  0.2935  0.4346
12274W        W16674  17.105   4.526   5.083  0.1107 -0.0078  0.0123
12275W        W16675  17.276   1.482   7.358 -0.1366 -0.1723  0.1752
12276W        W16676   4.630   5.305  18.442  0.1698 -0.2353 -0.0588
12277W        W16677  18.063   6.624  22.668  0.1527 -0.0772 -0.3007
12278W        W16678  31.025   2.254   3.324  0.2012 -0.2574  0.0830
12279W        W16679  30.194   4.790  16.689  0.2354 -0.0676 -0.1370
12280W        W16680   3.336   2.764   0.600  0.4936 -0.0487 -0.0537
12281W        W16681   3.733   6.416  21.623 -0.0642 -0.1319  0.2083
12282W        W16682  27.040   5.337   4.409  0.1307  0.2418 -0.0271
12283W        W16683  13.267   6.191   4.048  0.3022  0.0345  0.2659
12284W        W16684  15.793   6.772   3.272 -0.2293 -0.1292  0.0452
12285W        W16685   1.771   3.688  17.889 -0.1552  0.3938 -0.0056
12286W        W16686   4.636   3.480  25.337 -0.0431  0.0252 -0.0519
12287W        W16687  21.617   5.772  17.099 -0.0661  0.0803 -0.0584
12288W        W16688   9.444   6.519   1.758  0.0136 -0.1590  0.3288
12289W        W16689  23.056   4.182   4.154  0.1171  0.0701 -0.0452
12290W        W16690  24.717   5.629  19.071 -0.0742  0.0660  0.3863
12291W        W16691   5.430   5.565  19.234  0.3736  0.0291  0.1897
12292W        W16692   9.989   1.952  19.775 -0.0114 -0.0270  0.3172
12293W        W16693  28.847   3.569  18.479 -0.3506 -0.2182 -0.1987
12294W        W16694   2.839   0.603  23.023 -0.1525  0.0678  0.2275
12295W        W16695   1.622   0.321   0.602  0.1952 -0.1706  0.0351
12296W        W16696  10.348   5.115  23.081 -0.0261  0.1981 -0.3291
12297W        W16697  30.837   6.626  20.924 -0.0294  0.0251 -0.0162
12298W        W16698  25.472   7.671  19.955  0.2111 -0.1775  0.2053
12299W        W16699  29.292   2.930   1.198 -0.1784 -0.1694 -0.5181
12300W        W16700  28.789   6.546  20.765 -0.0441  0.1623 -0.0204
12301W        W16701  26.367   4.521  25.285  0.0506 -0.1308 -0.2756
12302W        W16702  11.507   2.509   8.901 -0.0593  0.2512 -0.0214
12303W        W16703  15.978   6.565   7.869  0.1751 -0.1104  0.1857
12304W        W16704  12.635   6.704   0.072 -0.1614 -0.3186  0.2245
12305W        W16705  17.310   2.891  21.326  0.0046 -0.2241  0.3912
12306W        W16706  15.988   2.583  10.906 -0.1266 -0.1489  0.1083
12307W        W16707   0.827   1.934   6.991  0.0161 -0.2394  0.1244
12308W        W16708  19.294   1.425  21.627  0.0948 -0.0668 -0.1007
12309W        W16709  20.806   5.287   6.998 -0.1299 -0.0245 -0.2055
12310W        W16710  29.399   3.656  17.277  0.3499 -0.0554 -0.1615
12311W        W16711  13.210   5.193  16.803 -0.0556 -0.3316  0.0009
12312W        W16712   8.459   2.387  21.871 -0.1306 -0.1673 -0.1785
12313W        W16713   3.895   3.194   4.943 -0.2016 -0.0314 -0.1851
12314W        W16714  25.770   1.488   1.876 -0.0530  0.1110 -0.0563
12315W        W16715   4.410   0.614   6.593 -0.1952 -0.0935 -0.1319
12316W        W16716  20.050   5.854  25.697  0.3820 -0.1035  0.1532
12317W        W16717   1.612   3.959   8.431  0.1419  0.0621 -0.0676
12318W        W16718  23.206   5.623   1.608 -0.2007  0.0236  0.0517
12319W        W16719  14.306   0.532  19.313  0.0362 -0.1891  0.0284
12320W        W16720   6.229   2.858  16.457  0.3672 -0.1841 -0.1725
12321W        W16721  17.155   4.261  19.944 -0.1494  0.0033 -0.0216
12322W        W16722  29.236   1.048   6.710 -0.1366  0.1212  0.0910
12323W        W16723  15.147   5.687   1.373  0.0303 -0.3335  0.0241
12324W        W16724   6.888   5.099  24.876 -0.0028 -0.1203 -0.0203
12325W        W16725  20.536   6.018  17.590  0.2415  0.0138 -0.1849
12326W        W16726  18.326   5.108  10.856 -0.2684  0.0689 -0.2579
12327W        W16727  21.619   6.997  18.132  0.1058  0.2624 -0.0419
12328W        W16728   2.224   2.924  10.259  0.3590  0.1775 -0.0556
12329W        W16729   5.929   0.723  17.726 -0.4415 -0.1368 -0.0450
12330W        W16730  20.416   5.753   9.140 -0.1479  0.1817 -0.1558
12331W        W16731  23.361   1.525  21.787  0.0032  0.1444 -0.1719
12332W        W16732   0.881   3.040  23.667 -0.1413 -0.0093  0.1919
12333W        W16733  13.944   2.449  10.990 -0.1057  0.3415  0.3424
12334W        W16734   2.234   2.486  18.672  0.1295  0.2810 -0.2087
12335W        W16735  13.931   7.461  23.582  0.0295  0.2163  0.0333
12336W        W16736   7.398   3.735  22.978 -0.2596  0.0975  0.0083
12337W        W16737  14.403   5.625   2.334  0.0795 -0.1545 -0.1784
12338W        W16738   0.571   6.057   1.183  0.1499  0.0332 -0.1405
12339W        W16739  12.978   5.579  21.171  0.0273  0.1790 -0.2731
12340W        W16740  17.473   2.389   9.872 -0.2644  0.0536 -0.3143
12341W        W16741   6.551   7.792   6.101 -0.0811  0.4412  0.0046
12342W        W16742  27.325   0.419  20.428  0.0501  0.0290  0.3502
12343W        W16743   1.196   0.441   9.907  0.1718 -0.0844  0.1606
12344W        W16744  21.255   2.390  24.967  0.0954 -0.0087 -0.0912
12345W        W16745  22.356   7.280   2.852  0.2195 -0.0625  0.1129
12346W        W16746   1.820   7.752   2.758  0.0741  0.4001 -0.0405
12347W        W16747   4.909   6.508  10.285 -0.0534  0.0269  0.2561
12348W        W16748  27.667   2.257  11.369  0.2559  0.0833  0.0082
12349W        W16749  14.967   7.442   8.249  0.0436 -0.2783 -0.0978
12350W        W16750  14.775   3.166  19.509 -0.4735  0.3432  0.1744
12351W        W16751   6.878   4.614   8.330 -0.0575  0.0492 -0.4013
12352W        W16752  30.033   5.386  25.381  0.1603 -0.0771  0.1475
12353W        W16753  23.564   4.254  21.878 -0.1753 -0.1518  0.2385
12354W        W16754  17.860   7.776  18.567 -0.2424  0.0685 -0.1339
12355W        W16755   3.468   5.199   0.725  0.3502 -0.1343  0.2442
12356W        W16756   7.917   4.462  17.756 -0.1211 -0.1060 -0.0549
12357W        W16757  26.759   4.542   0.048 -0.3371  0.1436 -0.4183
12358W        W16758   1.500   1.840   4.961  0.1830  0.0569  0.3130
12359W        W16759  16.898   4.166  23.827 -0.4815  0.0252  0.0592
12360W        W16760  25.645   3.452  25.592  0.2175 -0.2034 -0.0024
12361W        W16761  19.550   6.079   3.259 -0.0055 -0.0141  0.2396
12362W        W16762  17.368   2.513  17.207 -0.1299  0.0729 -0.0652
12363W        W16763   0.211   4.209  17.156 -0.0724  0.0808  0.2469
12364W        W16764   7.022   7.406   5.525  0.1787  0.1361 -0.2277
12365W        W16765  15.686   2.748   7.628 -0.0672 -0.1065 -0.1991
12366W        W16766   6.868   3.227  21.530  0.1514 -0.3772  0.0312
12367W        W16767  28.355   3.540   6.526 -0.3509 -0.1216  0.0107
12368W        W16768   9.860   1.696  18.813 -0.0756 -0.1493  0.1745
12369W        W16769  14.423   0.809  22.303 -0.3373 -0.1777  0.1393
12370W        W16770  19.236   7.428  19.080 -0.0750 -0.3137 -0.0574
12371W        W16771  14.142   1.738   9.538 -0.1637 -0.0731 -0.1610
12372W        W16772  19.738   6.347   8.809 -0.2007 -0.0146  0.2621
12373W        W16773  23.709   1.747   6.385 -0.0758  0.4944 -0.0553
12374W        W16774  11.103   3.782   9.685  0.4657 -0.2113  0.3051
12375W        W16775  18.825   7.128  15.070 -0.1851  0.2836  0.1651
12376W        W16776   2.447   0.008   1.883  0.1402  0.1667  0.3336
12377W        W16777  28.726   4.244   7.243 -0.3674  0.0629 -0.0722
12378W        W16778  18.582   1.736   6.732  0.1995 -0.0410  0.3749
12379W        W16779  10.938   5.106   7.970  0.0176 -0.1446 -0.2111
12380W        W16780  24.575   7.447   3.837  0.0419  0.1349  0.1421
12381W        W16781   4.182   4.118   3.868 -0.0381 -0.0569  0.0864
12382W        W16782  11.449   7.536  19.895  0.3751  0.0414 -0.4484
12383W        W16783  30.788   4.415   6.045 -0.1048  0.0963 -0.1318
12384W        W16784  23.894   7.264  16.157 -0.0903 -0.2325 -0.0116
12385W        W16785   5.456   7.043   1.867  0.2271 -0.1856  0.3025
12386W        W16786  29.276   6.618  17.211  0.2687 -0.3253  0.0178
12387W        W16787  27.027   1.420   4.191  0.1331 -0.3637 -0.0177
12388W        W16788  19.533   1.159   0.858  0.0407  0.1216  0.0776
12389W        W16789  30.342   5.067   6.928 -0.2525  0.2497 -0.0826
12390W        W16790  17.326   4.221  21.229  0.3159 -0.1309  0.2525
12391W        W16791  11.135   4.300  18.335 -0.0335  0.0746  0.0366
12392W        W16792  22.643   4.022  17.883 -0.1571  0.1429  0.0013
12393W        W16793  26.069   6.017  20.323  0.2789 -0.0871  0.1623
12394W        W16794  13.583   7.826   5.109 -0.0575 -0.1535 -0.1321
12395W        W16795  10.278   2.316   5.159 -0.2298 -0.0531 -0.1737
12396W        W16796  19.128   2.674  22.637  0.4304 -0.2485  0.0853
12397W        W16797   9.225   5.623  15.208 -0.0456  0.4342 -0.0869
12398W        W16798  22.901   6.612   3.576  0.1037  0.0444  0.2816
12399W        W16799  23.825   5.601  24.321 -0.2802  0.1868  0.0772
12400W        W16800  24.870   4.637  16.447 -0.0146 -0.2372 -0.1621
12401W        W16801  16.965   0.676   5.629  0.3104 -0.3558  0.0305
12402W        W16802  12.073   2.458  16.894  0.1896  0.0284  0.0805
12403W        W16803   5.260   0.688  19.973 -0.1200 -0.0746 -0.4144
12404W        W16804  27.168   3.681  19.125 -0.2509  0.2275 -0.0614
12405W        W16805   4.704   4.303  17.509 -0.0139  0.2188  0.0323
12406W        W16806  10.526   6.161  23.823 -0.0962 -0.0930  0.0775
12407W        W16807  23.160   7.286   4.576 -0.1580 -0.1148 -0.1875
12408W        W16808   6.969   1.783  10.113 -0.2144 -0.0943 -0.0677
12409W        W16809  25.348   4.187   1.309  0.1622 -0.1968 -0.0867
12410W        W16810   2.753   4.298  19.189  0.0700  0.0920  0.0907
12411W        W16811  11.880   2.890  22.247 -0.0468  0.0275  0.0697
12412W        W16812   3.856   7.449   8.953  0.0989 -0.1182 -0.0117
12413W        W16813   3.100   0.418  21.846  0.0322 -0.2584 -0.0497
12414W        W16814  26.353   7.008   5.193  0.1143 -0.1985 -0.2982
12415W        W16815   3.451   6.060   6.248 -0.1730  0.2250  0.0433
12416W        W16816  13.091   7.041   0.973  0.1059  0.1449 -0.1994
12417W        W16817  15.343   4.562  24.745  0.0011 -0.0677 -0.1613
12418W        W16818   8.908   4.949  19.577  0.2812 -0.2622 -0.1326
12419W        W16819  10.191   4.581  14.660 -0.1629  0.0883  0.2022
12420W        W16820  15.384   0.346  25.694 -0.0916  0.1691 -0.0845
12421W        W16821  24.573   5.147  25.151 -0.2257  0.2508  0.0737
12422W        W16822  14.809   6.880   9.829  0.2194 -0.2445 -0.0939
12423W        W16823  10.361   7.444   1.929 -0.1086  0.0925  0.0015
12424W        W16824   6.876   3.958  20.195 -0.0381 -0.2158 -0.2263
12425W        W16825  13.578   5.862   1.463  0.2952  0.3635 -0.1883
12426W        W16826  16.497   4.565   7.241  0.0489 -0.0392  0.1505
12427W        W16827  10.238   5.091  17.632 -0.0084  0.2191 -0.1022
12428W        W16828  24.292   3.260  20.373 -0.3400 -0.1440  0.0308
12429W        W16829  18.927   0.795   6.708  0.4266 -0.1029 -0.1926
12430W        W16830   3.411   5.277   0.207  0.0227 -0.3160  0.1780
12431W        W16831   8.504   5.567   3.461  0.1120  0.0929  0.4536
12432W        W16832   3.168   3.517  21.679  0.2352  0.0559  0.0016
12433W        W16833   5.755   1.010  25.458 -0.0371 -0.2646 -0.0229
12434W        W16834  23.481   5.662  18.526 -0.4076  0.0921  0.0533
12435W        W16835   8.023   4.141   5.275  0.2000  0.0116 -0.0251
12436W        W16836   2.496   5.530  24.454  0.0287 -0.0815 -0.1674
12437W        W16837  16.637   0.257  24.570 -0.0177 -0.1135 -0.1702
12438W        W16838   0.787   1.976  15.687 -0.0292  0.2387  0.0818
12439W        W16839  13.434   2.335  23.472  0.1212 -0.1992  0.2005
12440W        W16840  19.705   4.655   9.980  0.1160 -0.4503  0.2186
12441W        W16841  12.954   3.127   9.269  0.2574 -0.0217  0.1751
12442W        W16842  15.393   2.110   5.056  0.1362 -0.2239 -0.2491
12443W        W16843  20.671   0.813  21.127 -0.0458 -0.1136  0.0900
12444W        W16844   2.963   5.811   6.160  0.1450 -0.1828 -0.2272
12445W        W16845  20.492   3.976  18.563  0.0520  0.2458  0.1391
12446W        W16846  18.143   6.963   1.468 -0.1493 -0.0454 -0.2685
12447W        W16847   0.478   2.621   3.793  0.2203  0.1725  0.0421
12448W        W16848  30.906   2.113  20.044  0.2879  0.2538 -0.0310
12449W        W16849   2.099   0.907  22.944  0.0231  0.0785  0.1207
12450W        W16850  14.927   5.086   1.023  0.0143 -0.0584  0.2479
12451W        W16851  25.075   7.770   7.440  0.3907 -0.0787 -0.1206
12452W        W16852  19.400   0.612  25.774  0.1694  0.0496 -0.0241
12453W        W16853  30.041   3.534   4.980  0.3025 -0.1185 -0.2082
12454W        W16854  15.888   3.247   2.822  0.2613  0.0661  0.1576
12455W        W16855  11.375   4.461   1.729  0.1006 -0.1983 -0.0912
12456W        W16856  20.155   0.467   4.938 -0.2000 -0.1409 -0.2968
12457W        W16857  11.941   7.380  20.740 -0.0283 -0.0345 -0.0455
12458W        W16858  20.378   0.480  18.490  0.3378 -0.0684  0.1891
12459W        W16859   0.603   7.042   0.015 -0.0195  0.4336 -0.2180
12460W        W16860   4.677   1.918   8.954 -0.1270  0.0249 -0.1587
12461W        W16861  14.330   0.365   8.153  0.1247 -0.1576  0.2590
12462W        W16862   3.833   4.111  25.331  0.0068 -0.3632  0.1605
12463W        W16863   7.546   5.885   2.037  0.1577  0.2295 -0.4383
12464W        W16864   3.597   6.658   9.607  0.0027  0.0882 -0.0601
12465W        W16865  14.674   2.223  25.651 -0.1408 -0.0957 -0.0551
12466W        W16866  23.384   3.346  22.358 -0.2163 -0.0730 -0.2184
12467W        W16867  22.534   0.542  23.875 -0.4174  0.4131  0.1040
12468W        W16868  21.069   4.157  25.995 -0.1159 -0.0976  0.2421
12469W        W16869  26.817   4.876   1.729  0.2173  0.3496  0.3280
12470W        W16870  20.493   4.617  20.616 -0.0420  0.1465 -0.1944
12471W        W16871   0.148   6.922   2.895 -0.4985  0.0568 -0.0608
12472W        W16872  18.822   5.341   2.078  0.1882  0.0194 -0.3182
12473W        W16873  16.579   2.125  26.075 -0.2058 -0.1716  0.3729
12474W        W16874  21.763   4.828  17.435 -0.0734  0.2198  0.0054
12475W        W16875  13.950   4.764  21.064 -0.0790  0.0997 -0.0677
12476W        W16876  12.561   3.871   3.966 -0.0248  0.1708 -0.1110
12477W        W16877  29.609   1.076   1.959 -0.0428 -0.0226  0.0694
12478W        W16878   6.991   2.832  10.076  0.1129 -0.0884 -0.3168
12479W        W16879  30.722   4.845   2.350  0.0236 -0.2063 -0.2696
12480W        W16880   6.507   5.246  22.483  0.1697 -0.0136 -0.1415
12481W        W16881   8.660   1.467   8.028 -0.1737 -0.0452 -0.0856
12482W        W16882  27.686   0.042  23.036 -0.0720 -0.0476 -0.0528
12483W        W16883  27.654   7.725  16.749 -0.2663 -0.3604  0.0500
12484W        W16884  30.198   2.762  11.408  0.0494  0.3635  0.1086
12485W        W16885  30.928   6.137   3.339 -0.0981  0.1944 -0.0155
12486W        W16886  25.479   6.234  20.292  0.0436 -0.0200  0.0022
12487W        W16887  21.215   3.329  23.152  0.2410 -0.3666 -0.2555
12488W        W16888  28.484   5.671  20.548  0.0230 -0.0538  0.0741
12489W        W16889   2.816   6.584  24.356  0.1221  0.0613 -0.0507
12490W        W16890   2.166   1.370  18.870  0.1315 -0.1755  0.0059
12491W        W16891  22.313   6.374   8.708  0.0872  0.1926 -0.1467
12492W        W16892  24.623   0.162  25.206  0.2983  0.0644  0.0647
12493W        W16893  23.550   6.485   8.536  0.0377 -0.1269 -0.1166
12494W        W16894  13.627   0.587  20.644 -0.0394  0.0729 -0.3021
12495W        W16895  16.044   4.704   3.288 -0.0996  0.0865  0.0143
12496W        W16896  22.415   6.299   1.395 -0.0109 -0.0243 -0.0030
12497W        W16897  23.731   4.419  18.976  0.2570 -0.1179 -0.0938
12498W        W16898  22.277   6.470   8.235 -0.1768 -0.0433 -0.3625
12499W        W16899   0.954   0.615  11.132  0.0108 -0.0857 -0.1151
12500W        W16900  29.377   6.055   3.185 -0.0906 -0.5547  0.0478
12501W        W16901  25.895   5.671   6.853  0.1828 -0.0265  0.2511
12502W        W16902  28.844   0.489  16.092 -0.1327  0.1060 -0.1476
12503W        W16903  10.979   0.125  26.021 -0.1857 -0.4432  0.0369
12504W        W16904  11.091   2.120   5.965 -0.2435 -0.0771 -0.1565
12505W        W16905  12.930   1.962   5.602  0.0981  0.3626  0.0146
12506W        W16906   8.636   6.357  24.909 -0.1100  0.0333 -0.1001
12507W        W16907  17.123   3.361  22.477  0.1867 -0.1593 -0.1978
12508W        W16908  28.560   2.308  16.408 -0.0933  0.0413  0.1763
12509W        W16909   9.808   0.953   3.971  0.0749 -0.3058  0.2889
12510W        W16910  21.995   5.655  19.536  0.0261  0.2533 -0.0533
12511W        W16911  21.042   4.164   2.245 -0.0063 -0.0572  0.0934
12512W        W16912  22.362   1.720  10.503 -0.2830 -0.2424 -0.1477
12513W        W16913  23.441   4.079  17.418 -0.4251  0.0682  0.2222
12514W        W16914   0.881   1.759   2.344 -0.0053 -0.5405 -0.1177
12515W        W16915  20.888   0.732   6.976  0.1950 -0.1977  0.0991
12516W        W16916   4.239   3.760  23.412  0.1352  0.2486  0.3158
12517W        W16917  25.260   4.717   6.439 -0.1703 -0.2290  0.1386
12518W        W16918  23.409   3.676  21.121 -0.0282 -0.0250 -0.1480
12519W        W16919  22.518   2.572  16.724  0.0143  0.0614 -0.2362
12520W        W16920   2.661   1.654  18.866  0.0656  0.2591  0.3083
12521W        W16921  30.836   0.069  23.451 -0.0987  0.1561 -0.1175
12522W        W16922  14.818   0.394  20.265 -0.0765  0.2418  0.3593
12523W        W16923   4.728   3.739  23.300 -0.1225 -0.1586 -0.3209
12524W        W16924  28.427   5.063  17.322  0.1870  0.0198  0.0725
12525W        W16925  28.715   1.604  22.897 -0.2912  0.1306  0.0521
12526W        W16926  29.863   2.350   6.657 -0.1217 -0.2197 -0.0015
12527W        W16927   7.250   3.123   3.770  0.1038 -0.4130  0.2705
12528W        W16928  24.802   5.938   2.510  0.0776 -0.0407  0.1341
12529W        W16929  14.951   6.451  15.865 -0.0884 -0.1227  0.0792
12530W        W16930  25.530   7.262  18.700  0.1982  0.0941 -0.0819
12531W        W16931   2.179   5.670  16.112 -0.0115  0.0700 -0.0609
12532W        W16932  19.394   3.331   8.572  0.0635  0.2102 -0.3276
12533W        W16933  12.570   2.417  16.898  0.1509 -0.1635  0.2195
12534W        W16934  29.910   4.252   5.736 -0.2580 -0.0884 -0.1510
12535W        W16935   8.941   5.008   9.314  0.0484  0.0363  0.1490
12536W        W16936   6.567   5.926  16.002 -0.1415 -0.0842 -0.1348
12537W        W16937  19.806   1.993  20.145 -0.0415  0.0521  0.2799
12538W        W16938   0.005   3.138   2.220 -0.1060 -0.2416  0.3878
12539W        W16939  21.922   1.628  19.942  0.0174  0.1036 -0.1940
12540W        W16940   1.227   3.314   3.832  0.1394 -0.1046 -0.0852
12541W        W16941  19.750   5.946   6.373  0.0400 -0.2661 -0.1753
12542W        W16942   5.040   3.402  11.555  0.1481 -0.2355 -0.1305
12543W        W16943   3.379   5.117  15.490  0.0285 -0.0248  0.3981
12544W        W16944  16.156   4.801  24.614  0.1318 -0.4153 -0.1306
12545W        W16945   0.912   7.314  22.885  0.0697 -0.0782  0.1717
12546W        W16946  17.364   1.879  10.217  0.1190  0.0438  0.0730
12547W        W16947   2.248   1.196  25.237  0.0075 -0.0928  0.3916
12548W        W16948  29.756   6.259   8.958  0.1126  0.5569 -0.0426
12549W        W16949  19.395   0.413   2.322  0.0398 -0.0483 -0.0473
12550W        W16950   2.459   0.902  11.032  0.0498 -0.0258 -0.5080
12551W        W16951  20.378   3.376  23.508  0.0658 -0.2549  0.0778
12552W        W16952  12.651   2.597  25.833 -0.3044  0.2039  0.1595
12553W        W16953  28.590   1.373   9.510  0.1487 -0.0324 -0.2280
12554W        W16954  26.357   4.020   3.261  0.3668 -0.4872 -0.0789
12555W        W16955  28.840   5.174   8.232  0.0913  0.3152  0.1920
12556W        W16956   1.049   0.463  24.454  0.1371  0.0730 -0.0769
12557W        W16957  18.824   5.054   4.914 -0.2304  0.1676  0.0398
12558W        W16958  14.665   4.284   0.666  0.0240  0.0115 -0.1934
12559W        W16959  21.876   2.607   4.182  0.1687 -0.0987 -0.0196
12560W        W16960  14.751   0.954   6.236 -0.0304 -0.0900 -0.2555
12561W        W16961   1.099   4.128   5.031  0.4424 -0.0725 -0.1538
12562W        W16962  11.194   0.584   5.114 -0.1436 -0.2848  0.0205
12563W        W16963  13.330   5.505  20.223 -0.0938  0.0795  0.1475
12564W        W16964  24.540   6.662   5.143 -0.2693 -0.1540  0.0704
12565W        W16965  28.205   5.415  19.383 -0.0885  0.1352  0.1027
12566W        W16966  11.577   3.474   7.952 -0.0777  0.0861 -0.2372
12567W        W16967  18.889   2.515   0.057  0.0237  0.0913  0.1276
12568W        W16968   2.503   6.683  25.221  0.0978  0.2055  0.0287
12569W        W16969  17.295   4.847   7.082 -0.0186 -0.2210  0.1162
12570W        W16970   3.559   4.776   5.541 -0.1660 -0.3298 -0.3594
12571W        W16971  17.890   6.989   3.807  0.0270 -0.1923 -0.0406
12572W        W16972   6.373   2.119  10.382 -0.2663 -0.1408 -0.1433
12573W        W16973  12.920   5.014  16.339 -0.1683 -0.1695  0.1653
12574W        W16974   9.918   0.238   7.176 -0.0429  0.1992  0.1733
12575W        W16975  23.019   7.164   8.080 -0.0007  0.3323  0.3900
12576W        W16976   1.671   0.043   6.146 -0.1308 -0.0693 -0.0881
12577W        W16977   8.963   5.973   0.495 -0.2049 -0.2168  0.1862
12578W        W16978  31.027   5.286  23.399 -0.2633  0.0430  0.4979
12579W        W16979  18.609   6.315  23.576  0.0806  0.5458 -0.1918
12580W        W16980  15.980   1.251   5.226 -0.0092 -0.3772  0.1652
12581W        W16981   7.095   0.641  20.430 -0.0245 -0.2057  0.1333
12582W        W16982   3.472   6.737  20.247 -0.0605  0.4103  0.0531
12583W        W16983  27.339   6.348  24.215 -0.0816  0.1428  0.2677
12584W        W16984  23.404   6.347   6.959 -0.0165 -0.1531  0.1874
12585W        W16985   0.319   1.455  17.714 -0.0466 -0.2489 -0.0619
12586W        W16986   8.387   7.385  25.056  0.0817  0.1600  0.2985
12587W        W16987  31.243   4.769   5.485  0.1147 -0.0785 -0.0102
12588W        W16988  18.941   1.166  19.972 -0.0661  0.0882  0.2597
12589W        W16989   9.335   5.220   1.361 -0.4115  0.0906  0.1174
12590W        W16990  14.114   2.609  23.012 -0.2484 -0.0035  0.2841
12591W        W16991  17.260   3.380   5.562 -0.1767 -0.1918  0.1322
12592W        W16992  25.544   6.167  23.415  0.1710 -0.1457  0.0880
12593W        W16993   8.639   2.448   2.551  0.0225  0.0983  0.1307
12594W        W16994  12.266   0.366  23.785  0.0376 -0.0085 -0.1089
12595W        W16995  25.328   2.168   5.240 -0.0886 -0.3378 -0.2049
12596W        W16996  13.992   6.353  19.208  0.0293  0.0252  0.0122
12597W        W16997  20.246   7.166  15.605  0.2228  0.0453 -0.0301
12598W        W16998  19.587   5.845   8.095  0.1509  0.4412 -0.1594
12599W        W16999  29.098   6.341  10.571  0.2110 -0.0009  0.1283
12600W        W17000  14.817   1.113  24.682  0.1097 -0.0334  0.1296
12601W        W17001  29.801   1.248   0.030 -0.0892 -0.0857 -0.0780
12602W        W17002  27.769   4.630   5.039 -0.1276  0.1968  0.2590
12603W        W17003  27.938   2.526   1.635  0.1924 -0.0885  0.0562
12604W        W17004  15.996   0.703   4.503 -0.0651 -0.2820 -0.0384
12605W        W17005   1.644   7.613  23.935  0.2781 -0.1016  0.2815
12606W        W17006   0.783   3.740   9.158 -0.2391  0.0675 -0.0303
12607W        W17007   0.436   1.776   6.675  0.1623  0.0671  0.1350
12608W        W17008   0.374   0.656   7.222  0.1244 -0.0976 -0.3415
12609W        W17009  11.630   4.310  21.977  0.1752  0.1982  0.0953
12610W        W17010  12.089   4.421   3.653  0.0468  0.2921  0.5464
12611W        W17011   3.341   1.197   8.729  0.0519 -0.1482 -0.3667
12612W        W17012   1.677   6.668  21.216  0.1125  0.2658 -0.0794
12613W        W17013  15.884   4.216   0.123  0.0163  0.0012  0.1093
12614W        W17014  27.367   1.299  15.207  0.0391 -0.2709  0.0029
12615W        W17015   8.600   2.782  21.141  0.2571 -0.0821 -0.0355
12616W        W17016   3.368   4.892  17.860  0.2854 -0.0109  0.0053
12617W        W17017  13.755   7.518   4.143  0.3568 -0.0327 -0.1199
12618W        W17018  16.735   3.769   5.624  0.0022 -0.1906  0.1250
12619W        W17019  29.937   5.179   3.210  0.2679 -0.2760  0.0753
12620W        W17020  25.618   1.185   5.239 -0.2660 -0.1604  0.1486
12621W        W17021  13.247   1.327  15.367  0.3069  0.0489 -0.0646
12622W        W17022  29.202   7.175  22.455  0.0358 -0.1448  0.0705
12623W        W17023  14.677   6.980  24.549  0.0254 -0.1173 -0.1057
12624W        W17024  29.682   0.446   5.573 -0.0097 -0.1868 -0.0077
12625W        W17025  17.556   4.537  19.244 -0.2285  0.2052  0.0374
12626W        W17026  15.644   2.156   1.247 -0.0597  0.1286  0.2456
12627W        W17027  18.364   0.849  24.002 -0.0826  0.3741 -0.0869
12628W        W17028  20.550   3.362   3.376 -0.0301  0.0256  0.0384
12629W        W17029  21.721   6.734   1.796 -0.0425  0.4459  0.3730
12630W        W17030  19.430   7.759   1.332  0.3187 -0.1594  0.2879
12631W        W17031  25.294   4.575  20.016 -0.0194  0.0211  0.1022
12632W        W17032   1.717   6.676  21.760 -0.0085 -0.0620  0.1150
12633W        W17033   4.143   1.451   3.822 -0.0714 -0.2245  0.3028
12634W        W17034  14.380   4.953   7.372  0.1991  0.0226  0.1286
12635W        W17035  24.953   1.611   7.882 -0.1726 -0.2039  0.5030
12636W        W17036  29.780   5.732  18.623 -0.3615 -0.1628 -0.3049
12637W        W17037   0.679   5.464  22.387 -0.0799  0.1003 -0.0423
12638W        W17038   4.174   7.655  16.890  0.2808 -0.2250  0.0710
12639W        W17039   0.906   5.725   2.194  0.1281  0.0780  0.1350
12640W        W17040  24.641   5.993   8.773 -0.0511  0.1425 -0.3415
12641W        W17041  29.414   3.442  23.603  0.0135 -0.2714 -0.0439
12642W        W17042   0.828   4.820   9.261  0.4102  0.0573 -0.3503
12643W        W17043   5.956   0.064  20.345  0.0864  0.1371 -0.0331
12644W        W17044  11.722   6.947   1.486 -0.0205  0.1604 -0.2149
12645W        W17045  27.520   5.059   6.512  0.0245  0.1206  0.3185
12646W        W17046  18.609   7.540  21.416  0.3148 -0.1483  0.2350
12647W        W17047  18.112   1.863   5.633 -0.1348  0.0193 -0.1861
12648W        W17048  18.926   3.581  21.156 -0.0452  0.1368 -0.0022
12649W        W17049  27.914   0.097  25.719 -0.1009 -0.0436  0.0150
12650W        W17050  13.505   5.827  22.542 -0.0497  0.1688  0.0847
12651W        W17051   9.870   0.345   4.220 -0.0663  0.3271  0.0209
12652W        W17052  13.327   4.015   4.295 -0.1388  0.0806 -0.0794
12653W        W17053  24.394   2.830   9.987  0.1009  0.0568  0.1468
12654W        W17054  29.256   0.812   3.915 -0.0822 -0.1333  0.0257
12655W        W17055  23.800   5.571  16.009 -0.3539  0.2648 -0.2175
12656W        W17056  14.043   4.710   1.234 -0.2022 -0.0064 -0.2639
12657W        W17057  27.691   1.395   8.283  0.0145  0.2912  0.0231
12658W        W17058  28.272   2.897  11.004  0.1088  0.4421  0.0572
12659W        W17059  20.309   7.687  22.233  0.0424  0.0016 -0.0320
12660W        W17060  12.038   6.206  25.413  0.2967  0.1403  0.2243
12661W        W17061  12.743   3.047  22.667 -0.0196  0.1799 -0.0801
12662W        W17062   9.791   4.507   1.207  0.0475  0.3588 -0.0095
12663W        W17063  12.938   3.667   1.195  0.0173 -0.3625 -0.2246
12664W        W17064   5.483   6.058   1.538  0.3265  0.0021 -0.2886
12665W        W17065   5.963   0.595  10.798 -0.0208  0.1870 -0.3796
12666W        W17066   1.452   2.802  20.740 -0.3888  0.1288 -0.1740
12667W        W17067   4.053   1.347   4.959  0.0644 -0.0555  0.0936
12668W        W17068  17.201   3.612   0.676 -0.2047 -0.0057 -0.0649
12669W        W17069  13.106   5.165   3.990 -0.2353  0.3461 -0.1810
12670W        W17070  12.762   6.478  19.286  0.0650  0.1411 -0.0849
12671W        W17071  18.155   0.781   5.382 -0.0583  0.2673  0.1998
12672W        W17072   7.114   1.033   8.937  0.0031  0.0393 -0.2800
12673W        W17073   4.506   3.689  20.177 -0.0492  0.2131  0.0848
12674W        W17074  17.808   4.130  18.222 -0.1392 -0.3811 -0.2172
12675W        W17075   5.475   0.127  20.432 -0.3030 -0.0361 -0.2132
12676W        W17076  12.985   6.876   8.719  0.1947  0.1212 -0.1019
12677W        W17077  10.708   1.839   5.859  0.2744  0.3105 -0.2683
12678W        W17078  23.051   1.505  18.404  0.1655  0.2873 -0.0522
12679W        W17079   3.705   2.498  21.402 -0.0614  0.0213 -0.2519
12680W        W17080  11.489   3.322   5.101  0.0722 -0.1085  0.0007
12681W        W17081  18.801   4.343  25.547 -0.0288 -0.1917 -0.0472
12682W        W17082  27.428   7.317   5.719 -0.0661 -0.1740  0.0031
12683W        W17083   0.368   0.978  17.171 -0.1074 -0.1962  0.1426
12684W        W17084  24.443   0.127   5.940  0.0983  0.0553 -0.2451
12685W        W17085   0.284   2.360  11.890 -0.1012  0.2352 -0.2027
12686W        W17086  18.992   1.326  24.158 -0.0340 -0.0062 -0.0194
12687W        W17087   4.456   2.506  15.807  0.1161  0.3988  0.1004
12688W        W17088  30.299   6.638  22.770 -0.3161 -0.0225  0.1771
12689W        W17089   1.562   5.453  24.382  0.2061 -0.4569  0.0249
12690W        W17090  23.508   2.089  25.200  0.1868 -0.1222 -0.1820
12691W        W17091   9.028   2.775   9.386 -0.1921 -0.1764 -0.0899
12692W        W17092  20.950   1.646  22.020 -0.1734  0.0507 -0.1605
12693W        W17093  30.999   1.786  20.489 -0.5379 -0.0791  0.0152
12694W        W17094  27.818   4.771  19.701  0.0005 -0.0722  0.3114
12695W        W17095  26.563   1.578   6.908  0.1151 -0.2329  0.1605
12696W        W17096  24.342   1.109   8.311 -0.2980  0.0658  0.0368
12697W        W17097   5.458   3.175  17.707 -0.5592  0.2987 -0.1632
12698W        W17098  19.648   5.852   8.951  0.3207  0.0006  0.0309
12699W        W17099  26.562   1.282   2.429 -0.0803 -0.3177  0.0880
12700W        W17100  10.048   1.324  24.526  0.1026  0.1002 -0.0807
12701W        W17101   2.797   3.041  17.665 -0.2176  0.3136  0.1720
12702W        W17102  23.574   2.198   1.054 -0.3292  0.5064  0.1722
12703W        W17103  26.928   4.782  15.992  0.1008 -0.2872 -0.1920
12704W        W17104  30.137   6.769   2.638  0.2676 -0.1279  0.1484
12705W        W17105  20.467   4.686  23.717 -0.0083  0.0577  0.2631
12706W        W17106  16.732   1.507   2.192 -0.4715  0.2742 -0.1720
12707W        W17107   4.506   1.485  16.771 -0.1122  0.1267  0.1142
12708W        W17108  13.605   2.733   1.867 -0.0038  0.1347 -0.1667
12709W        W17109  20.126   2.410   7.362 -0.0146 -0.0955 -0.1214
12710W        W17110   8.043   0.947  25.614  0.1933  0.1553 -0.0671
12711W        W17111  25.877   6.133   8.485 -0.0574  0.3305  0.0710
12712W        W17112  22.369   0.804  22.671  0.0521  0.2093 -0.0778
12713W        W17113  27.243   3.043   9.901  0.2378 -0.0424 -0.0337
12714W        W17114  29.509   4.344  25.736  0.3158 -0.1103  0.0078
12715W        W17115  19.995   4.587   4.233  0.1597 -0.2548  0.0901
12716W        W17116   7.229   3.970   9.824  0.1264  0.1098  0.1861
12717W        W17117  20.166   4.033  10.230 -0.0629 -0.1309  0.2977
12718W        W17118  22.956   0.574   1.226  0.2773 -0.0789 -0.1456
12719W        W17119   3.105   1.480  18.621  0.0283 -0.2790 -0.0012
12720W        W17120  13.059   0.229   3.872 -0.0920 -0.1790  0.1917
12721W        W17121   2.749   0.309   2.851  0.0539 -0.2418 -0.1110
12722W        W17122   5.281   1.461  22.905  0.2084 -0.1169  0.1892
12723W        W17123   4.734   5.929  25.382  0.0321 -0.0454 -0.1022
12724W        W17124  19.764   7.324  21.305 -0.1253 -0.0409  0.1825
12725W        W17125  11.111   1.325  20.269 -0.0331 -0.1291 -0.2528
12726W        W17126  28.612   5.055  18.749 -0.1178  0.0576 -0.0012
12727W        W17127   6.462   3.718   6.315  0.2962 -0.1317  0.3238
12728W        W17128   7.628   5.870  16.707 -0.1412 -0.0487  0.1528
12729W        W17129  19.554   5.394   6.067  0.1362 -0.1019 -0.0923
12730W        W17130  12.414   6.155  10.132 -0.0415 -0.0120  0.0638
12731W        W17131  18.267   3.296   6.060 -0.2613  0.1755 -0.1091
12732W        W17132  19.455   4.710   5.506  0.1667 -0.0615 -0.2925
12733W        W17133  26.176   7.785   9.421 -0.0917  0.2732  0.0247
12734W        W17134   7.903   3.061  22.361  0.0884 -0.0701 -0.1578
12735W        W17135  10.240   2.279  19.491  0.2419 -0.0685 -0.0499
12736W        W17136  14.871   2.488  19.383 -0.0763  0.0377 -0.3791
12737W        W17137  13.385   6.007  10.582  0.1177 -0.2223  0.1591
12738W        W17138  16.130   2.279  24.170 -0.1167  0.0076 -0.2312
12739W        W17139  18.076   1.661  20.235  0.2074  0.2752  0.1786
12740W        W17140  25.821   2.095  20.309  0.0451  0.1248 -0.0525
12741W        W17141  26.857   3.778   3.991  0.1642 -0.0688  0.1059
12742W        W17142   2.336   6.214   5.823 -0.1004  0.0473  0.0936
12743W        W17143  15.981   4.105   9.786 -0.2319 -0.0909 -0.1174
12744W        W17144  15.442   1.818   3.662  0.2083  0.1437 -0.3353
12745W        W17145   3.577   7.462   1.094 -0.0481 -0.0676 -0.2331
12746W        W17146  12.551   3.190  24.607 -0.0369 -0.0031 -0.3626
12747W        W17147  15.887   1.426  23.052 -0.0350  0.1858  0.1544
12748W        W17148  16.364   0.454  20.176 -0.1578  0.0693  0.2757
12749W        W17149  19.473   3.480  20.461  0.1603  0.0624 -0.0524
12750W        W17150  14.035   0.605   0.258  0.2455 -0.0132  0.1031
12751W        W17151   6.257   4.610   4.465  0.3673  0.0539 -0.1144
12752W        W17152  10.307   3.415  10.268  0.0100  0.0712  0.0287
12753W        W17153  22.951   2.322   4.083 -0.0283 -0.2181  0.0527
12754W        W17154  22.705   0.039  19.901 -0.0618 -0.1043  0.1185
12755W        W17155  23.728   5.218  19.232 -0.2513  0.1971 -0.1346
12756W        W17156  22.420   4.892   2.120 -0.0064  0.4886 -0.1807
12757W        W17157  16.417   1.828  15.799  0.0824 -0.2612 -0.1782
12758W        W17158  15.669   6.637  11.000  0.0674  0.0042  0.0864
12759W        W17159  18.517   2.667  21.805 -0.0431 -0.0583 -0.1848
12760W        W17160   5.885   6.976   1.488  0.1669  0.3153  0.0686
12761W        W17161  26.346   6.780  20.133 -0.1259 -0.1199  0.1071
12762W        W17162  29.323   2.331  21.439  0.1870 -0.0044  0.0166
12763W        W17163  22.607   6.429   4.761  0.1218  0.1826  0.4564
12764W        W17164  16.249   2.946   7.162 -0.3088 -0.4148 -0.1101
12765W        W17165   3.713   7.275  22.107  0.2822 -0.0179 -0.0310
12766W        W17166   6.527   0.439   7.226 -0.1856  0.1515 -0.2171
12767W        W17167  27.774   3.709   9.918  0.0860 -0.2656 -0.0888
12768W        W17168  17.351   7.207  26.096  0.2554  0.0247 -0.1514
12769W        W17169  18.837   0.275  22.811 -0.4036  0.1071  0.1515
12770W        W17170  29.636   1.660  20.224  0.0882 -0.0446 -0.1794
12771W        W17171  10.496   3.207  17.882 -0.3777  0.0116 -0.1461
12772W        W17172  15.022   4.556  14.857  0.2242  0.0745  0.1461
12773W        W17173  24.054   1.254  10.090  0.0697 -0.0099 -0.1752
12774W        W17174   5.283   4.401   9.495  0.1410 -0.1165 -0.2085
12775W        W17175   9.586   6.904   5.082  0.0964 -0.1926 -0.1016
12776W        W17176  30.797   3.282  11.023 -0.0650  0.1297  0.4373
12777W        W17177  27.230   3.914  23.126  0.1863  0.1872  0.3019
12778W        W17178  15.873   3.522  17.391  0.3287  0.2389  0.1250
12779W        W17179  16.621   5.780   1.406  0.0306  0.2171  0.2763
12780W        W17180  21.813   4.875  15.093 -0.2735  0.2252  0.0022
12781W        W17181  27.924   0.781  23.787  0.3237  0.0882 -0.1040
12782W        W17182  21.892   2.058  20.837 -0.0444 -0.1697 -0.3060
12783W        W17183  14.189   5.557  20.576 -0.1039 -0.1146  0.0019
12784W        W17184  19.867   7.578  17.049 -0.1004  0.2514 -0.1300
12785W        W17185  25.239   5.557   9.972 -0.0010 -0.0309  0.2237
12786W        W17186  26.372   6.093  18.553 -0.1678 -0.2540  0.0180
12787W        W17187  29.762   0.656  24.527 -0.0163 -0.1101  0.0889
12788W        W17188   5.974   0.551   8.723 -0.2760  0.1333 -0.1838
12789W        W17189  20.371   7.030   3.417 -0.2489  0.2006  0.2477
12790W        W17190   9.080   2.891  17.780  0.2235 -0.4116 -0.1818
12791W        W17191  14.607   6.495   0.004 -0.0942 -0.0359  0.3715
12792W        W17192   5.275   7.000   4.353 -0.1383 -0.0473 -0.2222
12793W        W17193  29.703   2.796   3.474 -0.1433  0.0978 -0.1391
12794W        W17194  27.271   4.401  15.247  0.4526 -0.0463 -0.2461
12795W        W17195   0.569   1.139   4.158 -0.0777 -0.2290 -0.0748
12796W        W17196  19.081   4.304   1.322  0.0120  0.0515  0.0004
12797W        W17197   7.967   6.481   3.800 -0.1754  0.2053 -0.3003
12798W        W17198   9.214   7.226   2.171  0.1722 -0.4309 -0.1235
12799W        W17199  16.067   6.209  25.612 -0.2183 -0.0522 -0.2834
12800W        W17200  15.770   2.476  18.225  0.2219 -0.0048  0.0928
12801W        W17201  18.007   7.016  15.916 -0.1380 -0.2945 -0.1488
12802W        W17202   1.109   5.222  15.893 -0.0167  0.2177  0.2551
12803W        W17203  14.244   1.553   1.837  0.1739  0.1028  0.1688
12804W        W17204   9.102   2.531  20.906 -0.2505 -0.1299  0.1293
12805W        W17205  17.358   1.993   7.035  0.4315 -0.1291  0.1398
12806W        W17206   0.744   0.235   6.030  0.0267 -0.0663 -0.0076
12807W        W17207  30.484   5.008   3.075 -0.4286 -0.0266  0.1492
12808W        W17208  13.033   5.471   8.083 -0.0445 -0.0270  0.1806
12809W        W17209   5.979   3.795  25.248 -0.1458  0.1823 -0.1088
12810W        W17210  12.545   7.571   9.750  0.2110  0.0096  0.0846
12811W        W17211  25.973   0.625   6.266 -0.0185  0.2821  0.1121
12812W        W17212  25.890   7.473  20.225  0.0211 -0.0561 -0.0114
12813W        W17213   3.793   2.790   0.902 -0.1704  0.0101 -0.2271
12814W        W17214  27.965   6.897   9.284  0.0662 -0.1920 -0.0573
12815W        W17215  29.883   0.745   7.936  0.1248  0.0119  0.1913
12816W        W17216   6.098   7.041   9.151  0.1371 -0.0307  0.1752
12817W        W17217   2.914   1.000  21.394  0.1712  0.0363  0.0977
12818W        W17218  26.291   1.579   0.726 -0.3983  0.1844 -0.0490
12819W        W17219  24.044   5.981   5.753 -0.2939 -0.2571  0.2817
12820W        W17220   5.919   6.555   6.582  0.0691 -0.1987  0.0483
12821W        W17221  30.048   1.198   9.646  0.0966  0.1660 -0.1103
12822W        W17222  25.866   2.420  10.814 -0.1509  0.0412  0.0791
12823W        W17223  19.505   1.936  15.965  0.1137 -0.1284  0.0568
12824W        W17224  13.173   7.817   4.895 -0.2686 -0.2533 -0.3083
12825W        W17225  11.691   4.998  17.450  0.4818  0.0955  0.0263
12826W        W17226  28.298   0.767   3.370 -0.0088  0.2198  0.0531
12827W        W17227  29.602   1.632  15.515 -0.2619 -0.2338 -0.1059
12828W        W17228  13.112   4.402   3.513 -0.3437 -0.2805  0.0010
12829W        W17229   6.304   3.908   5.217  0.0027 -0.1831  0.1779
12830W        W17230   8.854   3.781   5.689 -0.2712 -0.1661  0.0186
12831W        W17231  31.104   5.348  19.487 -0.0715  0.2317 -0.0745
12832W        W17232   3.245   5.839   9.295  0.0530 -0.0671  0.1184
12833W        W17233  28.958   7.725   0.741  0.5868 -0.1764 -0.2277
12834W        W17234  31.068   6.929   2.345 -0.2812 -0.2359 -0.2898
12835W        W17235  18.881   5.823   5.718  0.1305  0.2038  0.1501
12836W        W17236  21.475   6.950   5.340  0.2496  0.3010 -0.0382
12837W        W17237  27.981   6.375  23.312 -0.1210  0.2190 -0.2482
12838W        W17238  25.726   4.002   9.446 -0.2604  0.0165 -0.1117
12839W        W17239   7.762   1.489  17.663 -0.1286  0.3043 -0.0148
12840W        W17240   0.508   0.687  20.661 -0.2785  0.3186  0.0120
12841W        W17241  11.154   4.175  24.010 -0.0938 -0.0675 -0.3618
12842W        W17242   9.053   7.359  21.099 -0.0589  0.0240 -0.2956
12843W        W17243   1.934   1.887  18.799 -0.0885 -0.2555  0.0311
12844W        W17244  13.577   5.269   7.309 -0.2016  0.2845  0.1536
12845W        W17245  11.750   0.340   6.086  0.0816 -0.2033 -0.0345
12846W        W17246  15.846   7.779  20.084 -0.2032  0.1118 -0.0046
12847W        W17247   9.008   3.426   6.052  0.1450  0.0211 -0.1800
12848W        W17248  19.744   0.845  19.815  0.0100 -0.1300  0.1431
12849W        W17249  30.076   5.903   7.418  0.4911  0.1310 -0.1088
12850W        W17250   8.368   2.887  24.073  0.0679  0.0408 -0.0815
12851W        W17251   7.861   0.434   1.862  0.3086  0.0571 -0.0287
12852W        W17252  29.638   2.779  24.781  0.0994  0.3052 -0.1848
12853W        W17253  20.805   4.127   7.662 -0.0156  0.0294  0.0233
12854W        W17254  28.401   1.140  20.346 -0.0151 -0.0359  0.3029
12855W        W17255  15.376   3.009  22.209 -0.0262  0.0294  0.2442
12856W        W17256   0.437   2.935  16.823  0.2157  0.0698  0.0674
12857W        W17257  25.410   6.032  25.334  0.0926  0.1597 -0.0369
12858W        W17258  17.233   5.038  23.875 -0.3958 -0.0221 -0.1421
12859W        W17259  18.964   3.525  21.697  0.2684 -0.0151 -0.1765
12860W        W17260  23.132   4.093  11.270 -0.0614 -0.1213  0.1319
12861W        W17261  28.269   4.858  19.517  0.1641  0.0148  0.0718
12862W        W17262   8.801   0.081   7.905  0.1460  0.0009  0.0335
12863W        W17263   2.939   3.983  15.568 -0.0109  0.2096  0.1434
12864W        W17264   1.525   5.504  22.323  0.0972  0.1515 -0.1357
12865W        W17265  25.017   2.487   3.112 -0.0062  0.0736 -0.0646
12866W        W17266   4.572   5.296   1.177  0.1786  0.0485  0.1299
12867W        W17267  24.707   1.397  10.769 -0.2296 -0.0235 -0.0532
12868W        W17268  30.815   2.379   8.001 -0.1710 -0.0685  0.2601
12869W        W17269  11.729   1.610  24.958 -0.0268  0.1519 -0.0822
12870W        W17270  10.447   3.711  23.804  0.0936  0.0253 -0.1430
12871W        W17271  25.539   6.039  22.451  0.1551 -0.2885 -0.1282
12872W        W17272  17.109   0.637   4.107 -0.0771  0.0577 -0.0200
12873W        W17273  10.319   5.485   2.216  0.1743  0.1172 -0.0833
12874W        W17274  28.163   6.973   3.727  0.0039  0.0487  0.1801
12875W        W17275   4.488   4.728  16.069  0.0861  0.2531 -0.2565
12876W        W17276   9.821   7.193   9.422 -0.1458 -0.0861  0.2432
12877W        W17277   0.485   1.415   9.989 -0.1475  0.4104 -0.1029
12878W        W17278   3.348   1.217   0.600  0.0498  0.1220  0.2487
12879W        W17279  21.514   2.406  20.792 -0.0202 -0.2102  0.0287
12880W        W17280  10.117   2.510  22.858  0.0858  0.0428  0.2699
12881W        W17281   1.628   0.740  23.011 -0.0624  0.1311 -0.2805
12882W        W17282  24.121   4.837  24.713  0.0172 -0.2080 -0.0788
12883W        W17283  28.323   1.980  23.670 -0.0411 -0.3645 -0.1732
12884W        W17284  19.543   2.749  21.507  0.2404  0.3226  0.0300
12885W        W17285   1.070   3.163  17.902  0.2156  0.0545 -0.2387
12886W        W17286  19.549   0.138   8.957 -0.0767 -0.0277  0.0663
12887W        W17287   9.390   6.803  20.100 -0.3885 -0.2871 -0.0700
12888W        W17288  11.286   0.746   7.231  0.1584 -0.0580  0.1499
12889W        W17289  24.598   7.333   4.661 -0.0738 -0.0078 -0.0280
12890W        W17290  17.185   1.571  22.418  0.0156  0.0966 -0.0734
12891W        W17291  17.962   5.262  21.603  0.0715 -0.1105  0.3171
12892W        W17292  30.788   2.209   9.727  0.1008 -0.1642 -0.0838
12893W        W17293  23.113   7.311  18.346  0.1447  0.1437 -0.1798
12894W        W17294  18.272   3.339   3.738 -0.0732  0.0272  0.2269
12895W        W17295   8.383   6.814  16.000 -0.1022 -0.0816 -0.4366
12896W        W17296  29.705   2.955   6.032 -0.3001  0.0429  0.0678
12897W        W17297  13.831   1.298   2.735 -0.1951 -0.1304  0.1231
12898W        W17298   0.359   6.883   4.816 -0.0253  0.0593  0.0382
12899W        W17299   1.601   4.696  25.029  0.1275 -0.1371  0.1343
12900W        W17300  25.275   7.768  16.671  0.2273 -0.1972  0.0667
12901W        W17301  14.553   0.150  21.429 -0.0012 -0.0791 -0.2824
12902W        W17302  26.494   0.013   1.496  0.2486  0.0433 -0.1664
12903W        W17303   1.104   3.961  23.610  0.0891 -0.1098 -0.3565
12904W        W17304  14.001   6.448  16.669  0.1266  0.1987  0.3643
12905W        W17305  30.622   6.755   2.613  0.0060  0.2363 -0.0460
12906W        W17306  31.278   0.095   0.424 -0.2507 -0.3108  0.1173
12907W        W17307  30.037   4.458  22.230  0.4153  0.0758  0.4288
12908W        W17308  29.957   3.983   6.644  0.1385  0.3018 -0.0478
12909W        W17309   9.695   4.975  16.590  0.1065 -0.0579 -0.1092
12910W        W17310  25.017   1.083  20.244  0.2822  0.0432 -0.0394
12911W        W17311  22.313   2.233   8.960 -0.0756 -0.0363  0.0528
12912W        W17312  25.919   6.874   3.771 -0.1642  0.1067 -0.1269
12913W        W17313  28.404   6.777  22.443 -0.1475  0.1203 -0.0242
12914W        W17314  23.542   3.514  18.261  0.5462 -0.0623 -0.1487
12915W        W17315   7.685   3.431   9.840  0.1570 -0.0388 -0.0178
12916W        W17316   3.861   7.404  10.703 -0.0672  0.2095 -0.0218
12917W        W17317  28.199   5.170   8.418  0.1080 -0.4221  0.0519
12918W        W17318  30.664   6.325   7.223 -0.0977 -0.1137  0.1964
12919W        W17319  30.760   2.000   0.575  0.2392  0.2103  0.0910
12920W        W17320  11.454   7.650  17.305  0.1859 -0.0421 -0.3208
12921W        W17321  14.302   4.847  22.066 -0.1362 -0.0953 -0.1474
12922W        W17322  23.635   6.313   1.394  0.1017 -0.0418  0.2694
12923W        W17323   0.408   4.694   8.280 -0.0182  0.0858  0.1653
12924W        W17324   1.284   5.757   1.837 -0.0742  0.0830  0.2509
12925W        W17325   3.291   6.934   9.872 -0.1124 -0.1055  0.0850
12926W        W17326   8.255   4.887  10.614  0.1685 -0.0421  0.4292
12927W        W17327   2.748   7.589  23.297 -0.2016  0.1277  0.0861
12928W        W17328   4.119   6.044  10.639 -0.2035  0.1545 -0.3390
12929W        W17329   8.404   3.982  22.901 -0.3130 -0.2683  0.2269
12930W        W17330  14.306   4.705   5.465 -0.1347  0.0341  0.0332
12931W        W17331  21.208   1.810   8.367 -0.2051  0.0636  0.0147
12932W        W17332  10.681   6.117   5.078 -0.1456 -0.0267 -0.2276
12933W        W17333  25.023   4.360   4.895  0.2243  0.1639  0.1446
12934W        W17334   4.679   6.185   6.831  0.2012  0.0163  0.0210
12935W        W17335   2.150   5.202  18.671 -0.2131 -0.3035  0.1453
12936W        W17336  12.009   6.634   8.864  0.1014  0.2895  0.2242
12937W        W17337  12.791   0.542   2.862 -0.1439 -0.0573  0.0613
12938W        W17338  25.371   3.918   0.863 -0.0816 -0.3306  0.1283
12939W        W17339  18.394   0.443  20.444  0.0600  0.1819  0.0996
12940W        W17340  20.313   2.957   8.152  0.2074  0.0402 -0.2430
12941W        W17341  19.323   1.484  25.298  0.0313  0.1881 -0.3550
12942W        W17342  17.606   3.245   7.115 -0.0033  0.2149 -0.0046
12943W        W17343  29.793   2.546   3.897  0.2875  0.2366 -0.2911
12944W        W17344  17.734   5.506  15.868 -0.1086 -0.0650 -0.0679
12945W        W17345   1.730   3.365   9.075 -0.0635  0.0450  0.0649
12946W        W17346  19.097   1.641  14.889  0.0015 -0.2347 -0.0345
12947W        W17347  21.245   4.987  25.446 -0.0437  0.0707 -0.0193
12948W        W17348  20.696   1.500   3.529  0.2149 -0.0165 -0.0153
12949W        W17349   8.109   6.498  19.102 -0.0308 -0.2182 -0.1312
12950W        W17350  14.035   3.886  18.467 -0.0423 -0.1402 -0.2759
12951W        W17351   5.057   7.782  24.678 -0.2542  0.2767  0.1017
12952W        W17352  13.818   1.265  24.570  0.1107  0.2761  0.1375
12953W        W17353  13.827   4.609   8.623 -0.0325  0.1335 -0.0776
12954W        W17354  22.634   1.797  23.358 -0.1489 -0.4995  0.3874
12955W        W17355  14.717   1.550  25.003 -0.1814 -0.2488  0.1192
12956W        W17356  16.991   3.195   4.849  0.4695  0.1474 -0.1086
12957W        W17357  12.544   2.030   9.500 -0.3604 -0.1678  0.0191
12958W        W17358   0.350   4.365  22.444 -0.1345  0.0590  0.1058
12959W        W17359   3.786   2.350  15.459  0.1481  0.2430 -0.0113
12960W        W17360  19.522   0.836  24.391 -0.0577 -0.1366 -0.0219
12961W        W17361  20.283   5.500   0.997  0.1036  0.1610 -0.1416
12962W        W17362  24.887   6.940  23.462  0.1246  0.2837  0.0075
12963W        W17363  19.607   3.886  20.736 -0.1530 -0.2739 -0.1152
12964W        W17364   7.329   7.059  22.851  0.2537  0.1391  0.3279
12965W        W17365  15.469   0.844  19.176  0.1635  0.1837 -0.1752
12966W        W17366   1.651   5.214  21.915  0.0393 -0.0795 -0.0612
12967W        W17367  16.865   3.107  18.878  0.0490 -0.1184  0.1861
12968W        W17368   8.207   1.849  25.231  0.0015 -0.0985 -0.4413
12969W        W17369  10.378   0.628   7.928 -0.0512  0.1119  0.1035
12970W        W17370  23.295   5.440   0.507  0.1900  0.0700 -0.0940
12971W        W17371  15.818   3.942  16.639  0.3405  0.3189  0.1482
12972W        W17372   0.647   4.543   4.425  0.2970 -0.2600  0.2225
12973W        W17373   6.720   2.672  16.785 -0.0590 -0.0837 -0.2186
12974W        W17374  23.083   2.455  24.414 -0.1720 -0.1111 -0.1202
12975W        W17375   2.466   0.324  18.145  0.0615  0.3296 -0.3159
12976W        W17376  31.294   4.445   7.846 -0.0067  0.0905 -0.1249
12977W        W17377  16.430   1.563   9.432  0.0138  0.1033  0.1735
12978W        W17378  20.828   5.538  15.784  0.1706  0.0264 -0.0368
12979W        W17379   7.795   2.900   0.570  0.2375 -0.0374  0.0196
12980W        W17380   9.524   2.383   3.154 -0.0061 -0.0683 -0.2198
12981W        W17381  26.939   3.766   3.028 -0.0769 -0.1513 -0.3042
12982W        W17382  11.013   3.577  17.295 -0.1039  0.2139  0.0453
12983W        W17383  24.090   3.657  17.963 -0.2209 -0.2856 -0.1442
12984W        W17384  11.822   7.457  15.345 -0.1217 -0.0451  0.0111
12985W        W17385  13.638   0.245  22.950  0.0945 -0.0160  0.1735
12986W        W17386  25.469   6.395  14.840  0.1422  0.0310 -0.0011
12987W        W17387  20.375   0.805  23.110  0.0437  0.1716 -0.0564
12988W        W17388  23.232   6.469  18.156  0.1381 -0.2225  0.1441
12989W        W17389   8.342   3.962  18.156  0.3385  0.1137 -0.0486
12990W        W17390   2.895   5.834  19.489  0.3261 -0.1171  0.1628
12991W        W17391  22.214   7.145  19.440  0.1106 -0.1801 -0.1353
12992W        W17392   4.839   0.592   8.774  0.1374  0.1222 -0.0726
12993W        W17393   7.630   0.280  15.275  0.1330 -0.0181 -0.0582
12994W        W17394   4.663   6.461  17.233 -0.2113  0.0982  0.1757
12995W        W17395  30.860   1.056  18.408  0.0834 -0.1823 -0.1038
12996W        W17396  25.697   4.690  11.213 -0.0376 -0.3363  0.1715
12997W        W17397   6.121   1.541   2.406 -0.1226 -0.0836  0.0668
12998W        W17398  24.520   7.140  18.290  0.0102  0.4302  0.5659
12999W        W17399  17.597   7.733  14.369  0.1719  0.1332  0.0319
13000W        W17400  19.537   1.060  15.932  0.1015 -0.0514 -0.4195
13001W        W17401  22.270   4.408   8.775 -0.0320  0.0352 -0.2997
13002W        W17402  15.635   0.970  20.633  0.1694  0.0169 -0.1929
13003W        W17403  26.605   1.112  21.277 -0.0315  0.4331  0.3805
13004W        W17404   6.662   5.561  20.832 -0.1758  0.2219 -0.1662
13005W        W17405  27.728   4.967   8.041 -0.1973  0.1881 -0.0601
13006W        W17406  28.784   2.554  21.751  0.0491  0.0809  0.0375
13007W        W17407   1.268   6.599  24.660  0.2574  0.0018  0.0084
13008W        W17408  26.638   6.525  25.160  0.0711  0.1552  0.2706
13009W        W17409  20.966   1.714   6.979 -0.0895 -0.0388  0.0040
13010W        W17410   2.175   0.988   9.288  0.0991  0.1564 -0.2913
13011W        W17411  30.014   2.666  24.188 -0.0139 -0.2877 -0.1805
13012W        W17412   1.211   4.140   8.656 -0.1484  0.2102  0.1405
13013W        W17413   4.445   5.129  16.438 -0.0711 -0.0944 -0.0156
13014W        W17414  10.237   7.031  17.959  0.2383 -0.0725  0.0302
13015W        W17415   4.759   7.347   2.619 -0.0860 -0.1293  0.0582
13016W        W17416   1.668   2.369   3.149 -0.1518 -0.1944  0.3059
13017W        W17417  30.739   6.636  18.412  0.1364  0.0719  0.2070
13018W        W17418   3.405   0.381  16.366  0.2123  0.0749  0.2429
13019W        W17419   2.169   4.837  16.302  0.0875 -0.0280  0.1937
13020W        W17420  17.565   4.547  20.052  0.1089 -0.0774 -0.0566
13021W        W17421  12.927   0.434   4.728  0.1048  0.0621  0.0259
13022W        W17422  17.293   0.356   3.330 -0.1611 -0.1565  0.0190
13023W        W17423  12.140   4.835   8.524 -0.4452  0.1056 -0.0570
13024W        W17424   3.625   1.746  20.674  0.0447  0.0007  0.2212
13025W        W17425   9.776   1.523  20.091 -0.2116 -0.0026 -0.2455
13026W        W17426   1.035   7.564   0.961  0.1231 -0.0447  0.1131
13027W        W17427   6.759   7.126  15.433  0.1450  0.1288  0.0551
13028W        W17428  15.087   2.426  15.411 -0.0400  0.1440 -0.2207
13029W        W17429   1.483   3.443   9.757 -0.0387  0.3164 -0.0998
13030W        W17430  22.354   3.023  21.985 -0.1896 -0.2969 -0.1170
13031W        W17431  29.400   7.612   0.519  0.2812 -0.1009  0.3986
13032W        W17432   1.349   4.181  25.928 -0.3773  0.4227 -0.1594
13033W        W17433   5.715   7.719   5.148 -0.0037 -0.0553  0.1487
13034W        W17434   0.776   7.088   0.578 -0.0898 -0.6142 -0.0267
13035W        W17435  10.191   6.267   7.096 -0.2085 -0.0907 -0.0904
13036W        W17436   4.369   2.720   9.988  0.1280  0.3152 -0.1654
13037W        W17437   1.774   6.231   0.898  0.0766 -0.0672  0.2082
13038W        W17438  20.981   2.922  10.047  0.0584  0.1379  0.0606
13039W        W17439   7.843   5.095   8.039 -0.1219 -0.2541 -0.0208
13040W        W17440   3.576   5.755  16.208 -0.6037 -0.1901 -0.0887
13041W        W17441  14.063   5.023  16.654  0.0412 -0.0893 -0.4811
13042W        W17442   4.577   1.006   2.753  0.0415 -0.1555  0.1638
13043W        W17443  23.151   5.974   5.255  0.0991 -0.1586 -0.1161
13044W        W17444   5.914   3.344  22.185 -0.0878 -0.1285 -0.2778
13045W        W17445  21.546   4.612  21.337 -0.2345  0.1822  0.1223
13046W        W17446   5.768   3.096  10.329 -0.1320 -0.0611  0.1956
13047W        W17447  13.460   3.002  25.518 -0.1410  0.0517 -0.0789
13048W        W17448   8.919   6.981  24.619  0.0744  0.1910  0.1568
13049W        W17449   3.946   1.751  18.717 -0.0556  0.0415 -0.2098
13050W        W17450  12.159   0.733   4.570  0.0131  0.0983 -0.0519
13051W        W17451  29.767   5.526  11.659 -0.0917 -0.0521  0.0759
13052W        W17452   0.669   1.128   0.670  0.0342  0.3840 -0.0154
13053W        W17453  18.914   2.193   1.943 -0.0181  0.2637 -0.0256
13054W        W17454  11.791   6.667  23.601  0.2080  0.3393  0.1422
13055W        W17455   6.125   3.566   8.189 -0.1665  0.0365  0.0107
13056W        W17456  12.040   3.609   7.489 -0.2645 -0.0233 -0.0830
13057W        W17457  27.242   6.470   9.216 -0.1421  0.3116  0.1000
13058W        W17458   1.250   4.159   6.257 -0.0485  0.0026 -0.4197
13059W        W17459  23.438   6.485   6.429 -0.0245 -0.0238  0.1560
13060W        W17460  22.253   6.801   1.626  0.1638 -0.0687 -0.1132
13061W        W17461  28.546   5.856   5.151 -0.0615  0.2392  0.2405
13062W        W17462  10.360   3.649   3.154 -0.2719  0.1629  0.0943
13063W        W17463   6.843   2.901   7.127 -0.1709  0.2773  0.0387
13064W        W17464  24.198   7.804   3.771 -0.0485 -0.1441 -0.2455
13065W        W17465   4.050   7.626   6.064 -0.2744  0.2834  0.1580
13066W        W17466  13.408   1.261  19.888  0.2894  0.0761 -0.3621
13067W        W17467  16.604   7.567  20.968 -0.1390  0.0112  0.0164
13068W        W17468  23.040   1.937  21.951  0.0999  0.2005  0.0750
13069W        W17469  26.609   0.206   4.735 -0.2270 -0.1762 -0.1762
13070W        W17470   7.806   1.625   1.101 -0.1157  0.1800  0.2097
13071W        W17471  14.688   2.793  17.343 -0.0162 -0.0347  0.1338
13072W        W17472  29.523   6.458  25.107 -0.0561  0.0953 -0.0133
13073W        W17473   6.710   1.730  20.305  0.1118  0.0726 -0.1200
13074W        W17474   4.324   3.948  25.221 -0.1887 -0.1862  0.1340
13075W        W17475  14.601   4.779  16.928  0.4107  0.0492  0.1638
13076W        W17476  26.404   2.761  17.911 -0.0313  0.1754  0.3719
13077W        W17477  29.386   3.039  19.699 -0.0379 -0.1059 -0.3111
13078W        W17478  20.100   7.735  25.977 -0.1711  0.2054 -0.0826
13079W        W17479  20.638   6.993  16.162 -0.3169 -0.0216 -0.0471
13080W        W17480   3.734   1.741  23.764  0.0714 -0.0486 -0.1734
13081W        W17481   7.073   5.464   5.980 -0.0037 -0.0468 -0.1415
13082W        W17482  14.015   4.904   4.552 -0.0258 -0.3627 -0.0218
13083W        W17483   3.571   2.102  26.128 -0.0733 -0.1985  0.0569
13084W        W17484  23.397   2.090   3.512 -0.3396  0.0325 -0.0675
13085W        W17485  27.391   1.737  23.451  0.0650 -0.0094 -0.0238
13086W        W17486   3.245   4.050  19.867 -0.3915 -0.0002 -0.0017
13087W        W17487  17.891   2.854   3.518 -0.0173 -0.1775  0.1288
13088W        W17488  16.781   0.962  21.236 -0.0704 -0.1146 -0.1118
13089W        W17489  27.333   3.612  22.659 -0.2217 -0.0109 -0.0945
13090W        W17490   2.748   1.066  25.603  0.0606  0.0810  0.1059
13091W        W17491  25.440   4.696   5.245 -0.1512  0.0078 -0.1688
13092W        W17492  16.419   0.627  14.792 -0.3122  0.0158 -0.0354
13093W        W17493  13.529   1.008  25.872  0.1111  0.1834 -0.2352
13094W        W17494   0.794   4.386   7.255  0.0442  0.0410  0.4745
13095W        W17495   2.867   6.030  17.814  0.3609 -0.0101  0.0984
13096W        W17496  12.141   1.747  10.445  0.2003 -0.2165  0.2822
13097W        W17497  17.772   0.361  21.923  0.0802 -0.0718  0.1270
13098W        W17498  19.764   6.862   4.349 -0.1418  0.1867  0.0617
13099W        W17499  18.432   7.573  20.918  0.0320 -0.0847  0.1339
13100W        W17500  13.675   0.546   4.367 -0.0623 -0.0603 -0.0426
13101W        W17501   2.263   4.712  22.219  0.2879 -0.0206  0.1253
13102W        W17502  16.008   1.319   6.509 -0.1711  0.1672  0.1184
13103W        W17503  11.390   7.751   9.017 -0.4044  0.1042 -0.0231
13104W        W17504  10.525   7.590   0.319 -0.0902 -0.1265  0.1839
13105W        W17505   3.372   4.481   9.752 -0.4054  0.0183  0.2819
13106W        W17506   6.199   3.997  15.635  0.1763  0.3472 -0.0305
13107W        W17507   9.294   4.606   2.314  0.0683  0.1943 -0.0737
13108W        W17508  30.266   1.442  18.069  0.2877 -0.3423 -0.1843
13109W        W17509   4.976   1.597  16.915 -0.1012  0.1315 -0.2143
13110W        W17510   0.932   1.968  25.215 -0.0244 -0.0174  0.4072
13111W        W17511  18.304   4.282   1.911  0.2317  0.1388  0.1898
13112W        W17512  16.091   4.549  21.615 -0.0239  0.0595 -0.0778
13113W        W17513   7.758   3.249   1.906  0.0714 -0.0089  0.3454
13114W        W17514  17.600   2.222  22.040  0.1515  0.3274 -0.1365
13115W        W17515   2.400   0.649  23.229  0.3057  0.0538  0.2229
13116W        W17516  23.748   6.321   2.600  0.1908  0.1534  0.2091
13117W        W17517   4.927   1.207   0.775  0.0600  0.0415 -0.2141
13118W        W17518  25.048   1.857  23.925 -0.0822  0.0702 -0.1046
13119W        W17519  28.753   5.154  15.519  0.1244 -0.1855  0.0987
13120W        W17520   0.971   0.357  16.526  0.0654 -0.0465 -0.0593
13121W        W17521  14.989   6.929   6.166  0.0306  0.1439  0.1115
13122W        W17522   7.125   0.776  25.350  0.0460  0.1054  0.0586
13123W        W17523   1.501   1.488   7.187  0.2658 -0.0144 -0.2551
13124W        W17524   6.935   1.132  24.931  0.0508  0.1653  0.1667
13125W        W17525   6.435   6.149  25.533  0.1802  0.0712 -0.2770
13126W        W17526  17.989   5.134  20.669 -0.2148  0.0431 -0.0691
13127W        W17527   3.839   6.958   7.901  0.0581 -0.0596  0.2508
13128W        W17528  14.648   7.447  22.453 -0.1352  0.0163  0.2415
13129W        W17529  12.642   4.774   8.690 -0.2088  0.2956 -0.0192
13130W        W17530   1.192   5.960  17.376  0.0476 -0.1472 -0.3571
13131W        W17531  24.554   1.555  25.619  0.3163  0.0895  0.4093
13132W        W17532  26.742   4.639  23.330 -0.2182  0.0786  0.2647
13133W        W17533   2.433   2.100   1.967 -0.0008 -0.2132 -0.2807
13134W        W17534  29.967   4.013   1.471  0.0918 -0.1410  0.0243
13135W        W17535   4.856   5.196  25.704  0.3808 -0.0672 -0.1748
13136W        W17536  28.877   3.210  19.787  0.0300  0.1261 -0.0662
13137W        W17537   4.092   0.968   6.919 -0.1458 -0.0238  0.5077
13138W        W17538  28.538   1.708  24.338 -0.0060 -0.3412  0.1579
13139W        W17539  30.649   3.191   9.007  0.0101  0.1968 -0.1611
13140W        W17540  26.002   0.825   8.345 -0.1936 -0.0014  0.0537
13141W        W17541   5.438   4.730  25.089 -0.1165 -0.0695 -0.0801
13142W        W17542  27.293   1.550  16.732  0.1415 -0.2251  0.0869
13143W        W17543   5.206   6.267   5.006  0.1284 -0.1555  0.0815
13144W        W17544  12.363   0.153  25.280 -0.1938  0.1559 -0.1965
13145W        W17545  21.857   3.687   4.143  0.0745 -0.0644 -0.0915
13146W        W17546  27.514   1.051   0.823 -0.0700 -0.0982 -0.2309
13147W        W17547  15.506   4.834  10.667  0.3830  0.2980  0.1095
13148W        W17548  24.427   2.719  24.028  0.1945  0.0806  0.1856
13149W        W17549   7.815   1.922   8.088 -0.3415  0.0553 -0.0668
13150W        W17550  28.166   6.738   0.213  0.1189 -0.2978 -0.1218
13151W        W17551  22.600   5.081  17.005 -0.0345 -0.0703 -0.0317
13152W        W17552   7.226   1.775  25.264  0.0634  0.0439  0.0446
13153W        W17553   0.979   0.964  24.200  0.1361 -0.1036 -0.0321
13154W        W17554  12.567   2.928   2.792 -0.0607 -0.1201 -0.1468
13155W        W17555  25.660   0.388  21.223 -0.1732 -0.4474 -0.2591
13156W        W17556  12.177   3.219   6.562 -0.1738 -0.0207  0.0584
13157W        W17557  11.371   5.971  19.656  0.1793 -0.2164 -0.2244
13158W        W17558   8.680   4.587   4.828 -0.1575 -0.0726  0.0524
13159W        W17559   8.605   5.913   9.723  0.2357  0.0711  0.3398
13160W        W17560   4.400   5.877   6.419 -0.2988 -0.0811  0.1815
13161W        W17561  18.844   4.118   2.698 -0.0416 -0.0431 -0.2616
13162W        W17562  26.130   1.866  16.432  0.2811 -0.1604 -0.0131
13163W        W17563  25.726   3.801  19.216 -0.0395  0.0402 -0.1165
13164W        W17564  19.432   3.063   7.023  0.0145 -0.0940  0.0374
13165W        W17565  14.525   2.797   8.432 -0.3517 -0.0620  0.1432
13166W        W17566  12.460   6.040  17.032 -0.1781  0.1556 -0.1687
13167W        W17567   0.243   4.374   8.640 -0.1978 -0.2005  0.0355
13168W        W17568  24.294   0.415   4.882  0.3449 -0.1133 -0.1408
13169W        W17569  28.043   5.307   8.882 -0.3373  0.0246 -0.1123
13170W        W17570  12.405   1.820  21.530 -0.1090 -0.1389 -0.2134
13171W        W17571   7.977   3.422  25.499  0.0636 -0.3296 -0.1963
13172W        W17572   0.749   7.634  21.150 -0.2227  0.1489  0.1447
13173W        W17573   8.821   6.069  17.682 -0.1554 -0.1977  0.0142
13174W        W17574  23.538   1.096  23.293  0.1890  0.1048 -0.0849
13175W        W17575  21.985   4.048  17.142  0.0921  0.2882 -0.1866
13176W        W17576  15.559   5.504  17.474  0.1480  0.0548 -0.0748
13177W        W17577  27.776   1.388  25.814  0.0573 -0.2158  0.0505
13178W        W17578  21.116   6.148   6.411  0.1784 -0.0876  0.3109
13179W        W17579  29.725   0.017  21.942 -0.0105 -0.1966  0.0867
13180W        W17580   2.008   7.000  24.363 -0.1264  0.0354  0.4709
13181W        W17581   0.252   4.080  10.696  0.1930 -0.2106  0.1136
13182W        W17582   2.392   6.701   5.590 -0.0138 -0.0854  0.0958
13183W        W17583  30.387   3.291  10.604 -0.1212 -0.0465 -0.0272
13184W        W17584  28.872   1.325   5.992  0.1442  0.1316  0.0856
13185W        W17585  20.554   2.345   7.770 -0.0976 -0.0470 -0.2822
13186W        W17586   5.446   7.014   1.189  0.1853 -0.0076 -0.1807
13187W        W17587  18.913   4.949  17.807 -0.0121  0.2064 -0.0069
13188W        W17588  17.590   4.542   7.892 -0.2996 -0.0574  0.0592
13189W        W17589  15.663   2.980   4.053  0.6845  0.2293  0.0355
13190W        W17590  12.958   4.378   6.490 -0.0919 -0.1060 -0.2360
13191W        W17591  15.381   6.337   4.728 -0.4953 -0.1131 -0.1304
13192W        W17592   2.728   1.838   5.371  0.2930 -0.0654 -0.1803
13193W        W17593  26.038   6.477   1.758  0.0135 -0.1208 -0.0179
13194W        W17594   0.829   2.254  16.453  0.1063 -0.1374  0.2722
13195W        W17595   8.614   5.092  26.077  0.2925 -0.3335  0.0645
13196W        W17596  11.974   0.561   6.887  0.0647 -0.2494  0.0067
13197W        W17597  30.223   6.175   0.050  0.2667 -0.0216 -0.1753
13198W        W17598  27.484   1.722  20.801  0.0701 -0.1227  0.1633
13199W        W17599   8.245   2.818  16.134 -0.2383  0.0994 -0.1451
13200W        W17600  26.235   4.949  25.560 -0.0459  0.0069 -0.1402
13201W        W17601  22.127   4.393  25.457  0.1229 -0.2255  0.4222
13202W        W17602  17.475   4.932   9.573 -0.2031  0.0135 -0.0073
13203W        W17603  30.896   3.838   2.551  0.1038 -0.1926 -0.1055
13204W        W17604   5.549   7.025   8.554 -0.1377 -0.0112 -0.5972
13205W        W17605  20.987   0.553  20.488  0.2806  0.1535  0.2071
13206W        W17606  28.698   4.739  25.425  0.2498 -0.2197  0.3092
13207W        W17607  17.835   1.195  20.242 -0.1818 -0.2283 -0.0678
13208W        W17608   4.706   0.780   5.851  0.0069  0.0202 -0.0058
13209W        W17609  27.153   2.820  26.148  0.1448  0.1174 -0.0621
13210W        W17610   2.890   4.681   6.342  0.1932  0.0188 -0.3794
13211W        W17611  12.179   1.616  22.591  0.1514  0.1654 -0.2803
13212W        W17612  16.624   7.251   5.894  0.0282  0.2882 -0.2408
13213W        W17613  24.778   1.648  20.943  0.1288  0.4669 -0.3773
13214W        W17614   1.934   3.763  17.363 -0.1432  0.0284 -0.3174
13215W        W17615  16.961   4.621   1.425  0.0074 -0.0865 -0.1488
13216W        W17616   1.568   1.317   4.528 -0.0176  0.0953 -0.0295
13217W        W17617  10.098   5.728  16.055 -0.2993 -0.0138  0.4190
13218W        W17618  13.426   6.800  23.064  0.3248  0.0463  0.1188
13219W        W17619  30.254   1.691  20.939  0.1642  0.1800  0.0342
13220W        W17620   8.560   6.270  23.978 -0.1254  0.1032 -0.2897
13221W        W17621  21.661   2.366   7.701 -0.1015 -0.0204 -0.3009
13222W        W17622  25.244   2.752  16.058  0.1848 -0.2045 -0.4413
13223W        W17623  30.216   6.953  17.217 -0.2037  0.0984 -0.1336
13224W        W17624  30.684   6.223  22.944 -0.1318 -0.1859 -0.0655
13225W        W17625  12.884   2.805  16.895  0.1469 -0.0803 -0.3073
13226W        W17626  14.327   7.521   7.605 -0.2691 -0.0478 -0.1634
13227W        W17627   5.477   3.377  18.204  0.1301 -0.1388 -0.2038
13228W        W17628   1.830   3.537  25.951  0.1719 -0.1889  0.1949
13229W        W17629  30.824   2.317  25.583 -0.1974 -0.2767  0.2514
13230W        W17630  14.612   0.839  25.662  0.1164 -0.0181  0.0562
13231W        W17631   6.623   5.502   9.163  0.0955 -0.0715 -0.2785
13232W        W17632  22.150   0.422   2.187  0.0745 -0.1526  0.2813
13233W        W17633  13.686   7.052   6.903 -0.2725 -0.2504 -0.1682
13234W        W17634   9.968   6.571  17.217 -0.0498  0.3380  0.0404
13235W        W17635  26.816   0.458  21.662 -0.0501 -0.2089  0.3798
13236W        W17636  10.594   6.851  10.219  0.0158 -0.0083 -0.2071
13237W        W17637  22.956   7.235  22.781 -0.2555 -0.0011 -0.1232
13238W        W17638   8.234   4.910  24.547  0.0039 -0.0368  0.1448
13239W        W17639   6.941   1.611   4.683  0.0840 -0.0014 -0.3242
13240W        W17640  17.200   5.211   9.975  0.0124  0.3637  0.1846
13241W        W17641  23.032   7.734   8.243 -0.3318  0.1260  0.1224
13242W        W17642   4.112   2.236  22.123 -0.0139 -0.2194 -0.0686
13243W        W17643  24.889   4.629   9.964 -0.1521 -0.1952  0.2971
13244W        W17644  12.674   7.003   9.170 -0.0030  0.0122  0.0354
13245W        W17645   4.816   3.999   2.902  0.2532 -0.0242 -0.1773
13246W        W17646  18.041   4.944   9.145  0.0784  0.0418 -0.2252
13247W        W17647  19.368   7.281  17.115 -0.0479 -0.1625 -0.0203
13248W        W17648  16.922   1.278   6.852  0.1299 -0.2857 -0.1012
13249W        W17649  26.381   0.744  19.745 -0.2758  0.0384 -0.0350
13250W        W17650  26.462   3.610  25.900 -0.0573  0.0163 -0.1795
13251W        W17651  25.885   6.976  23.969 -0.1872 -0.0062 -0.0040
13252W        W17652  27.276   7.305   7.401 -0.2163 -0.0753 -0.0586
13253W        W17653  12.385   5.439   6.933  0.1422  0.0211  0.2419
13254W        W17654  15.172   4.439  22.364  0.0960 -0.0072 -0.0700
13255W        W17655  15.080   6.597  24.730  0.0450 -0.4549  0.1003
13256W        W17656   5.167   4.000   0.520 -0.3105  0.0607 -0.0621
13257W        W17657   7.859   3.567  20.946  0.1423  0.0269  0.0063
13258W        W17658  13.343   1.473   2.824 -0.3495  0.0086  0.0473
13259W        W17659  21.501   2.623  21.994 -0.0783  0.1121  0.0301
13260W        W17660  23.168   1.551   8.326  0.2574 -0.2310 -0.1150
13261W        W17661  13.195   1.907   8.548 -0.1513 -0.0574 -0.0070
13262W        W17662  13.178   3.755   2.148 -0.3461  0.0692 -0.2452
13263W        W17663  20.804   0.896  21.646 -0.0913  0.2947 -0.1634
13264W        W17664  19.107   0.405  18.479 -0.0181  0.0485  0.3864
13265W        W17665  11.740   3.754   4.766  0.1193  0.1217 -0.2527
13266W        W17666  27.131   5.799  20.060 -0.1280 -0.3785 -0.0210
13267W        W17667  13.003   6.137  17.054 -0.0974 -0.0591  0.1053
13268W        W17668  15.041   1.033  21.059  0.0100 -0.0981 -0.0096
13269W        W17669  22.508   3.779  18.292  0.1880 -0.0843  0.0809
13270W        W17670  24.600   4.137   6.272 -0.2111 -0.1154 -0.0880
13271W        W17671   7.390   1.910  16.947  0.0630 -0.1443  0.0233
13272W        W17672   2.348   2.809   1.271  0.0071 -0.0116  0.0601
13273W        W17673  16.317   0.165  16.423 -0.0885  0.1852 -0.0676
13274W        W17674  10.300   3.820  23.317 -0.0980  0.2797 -0.1170
13275W        W17675  21.195   1.652  14.934 -0.0723  0.1521  0.1107
13276W        W17676  23.854   3.049  15.370 -0.0681 -0.1159 -0.2817
13277W        W17677  15.352   6.647  20.774 -0.1140 -0.3020 -0.0857
13278W        W17678  30.758   1.844   0.117  0.0348 -0.1940 -0.1889
13279W        W17679  10.874   6.351  10.107  0.1746  0.1107  0.5789
13280W        W17680   9.714   2.687  14.850  0.0269  0.1434  0.0881
13281W        W17681  28.746   5.120  14.941 -0.0677 -0.2076 -0.0658
13282W        W17682  29.100   5.056   1.248  0.3712  0.2029 -0.1264
13283W        W17683   9.987   0.164   3.796 -0.3831 -0.2800 -0.1144
13284W        W17684   2.064   7.092  16.480  0.0664  0.0379  0.0497
13285W        W17685  25.371   6.280   6.829  0.1419  0.2163  0.0504
13286W        W17686  26.435   3.028   0.800 -0.1103  0.2760 -0.1616
13287W        W17687  21.572   2.741  16.748 -0.0729 -0.1573  0.1397
13288W        W17688  17.123   2.407   7.409 -0.1473  0.1697  0.1651
13289W        W17689  27.244   7.476   3.652 -0.1768 -0.2190 -0.0931
13290W        W17690   4.181   6.535   2.654 -0.0568 -0.0850 -0.2998
13291W        W17691  10.781   4.672   6.679 -0.3786  0.3927 -0.1248
13292W        W17692  24.633   7.003   7.367  0.0997  0.2530  0.0722
13293W        W17693  29.010   2.105  20.849  0.0642 -0.1763 -0.2300
13294W        W17694  27.524   1.009   4.160  0.1394  0.0940  0.1939
13295W        W17695   9.607   4.574   8.614 -0.3040  0.1669  0.0966
13296W        W17696  29.839   5.895  25.966  0.1857 -0.4112  0.1450
13297W        W17697  22.451   6.625  22.169  0.3359 -0.1223  0.0754
13298W        W17698  18.596   4.843   2.635 -0.2312 -0.3483  0.1028
13299W        W17699  25.618   4.070   8.538 -0.2595 -0.2796  0.2070
13300W        W17700  23.764   0.165  21.569 -0.0524 -0.2213  0.1953
13301W        W17701  28.647   0.562  25.341 -0.2362  0.0440 -0.0436
13302W        W17702  15.316   1.539   5.580  0.1514  0.1225  0.0890
13303W        W17703  17.415   1.306  22.053 -0.2097  0.0440  0.2689
13304W        W17704  22.754   3.718  17.397  0.0497  0.1612  0.0298
13305W        W17705  27.956   1.393  20.303  0.0616 -0.1772 -0.1131
13306W        W17706   8.880   7.703   7.017  0.2009  0.0798  0.1035
13307W        W17707  12.385   5.032  16.400 -0.0178  0.2322 -0.3949
13308W        W17708   3.410   0.788  21.682  0.2572 -0.0158 -0.2068
13309W        W17709   4.602   2.830  24.052  0.0820  0.0794 -0.1978
13310W        W17710  14.290   3.136   6.917 -0.1089 -0.1981  0.1830
13311W        W17711  23.022   0.833   0.778  0.1490 -0.2188 -0.0072
13312W        W17712  27.413   1.520   4.608  0.1080  0.0932  0.0962
13313W        W17713  19.139   5.642   6.518 -0.0591  0.0908  0.0708
13314W        W17714  18.964   4.567  22.330 -0.2360 -0.2258  0.3025
13315W        W17715  10.994   2.177   7.638 -0.0260 -0.2695 -0.1001
13316W        W17716  21.928   7.744  14.835  0.3673  0.2110 -0.1429
13317W        W17717   1.824   1.194  11.740 -0.4076 -0.1188  0.0158
13318W        W17718  26.944   7.700   8.337  0.0818  0.1824 -0.1131
13319W        W17719  16.218   6.731  16.912  0.1797  0.0595  0.0687
13320W        W17720  29.612   0.690   2.616 -0.0366  0.2290  0.1996
13321W        W17721  31.051   3.147  21.502 -0.3615 -0.1594 -0.1022
13322W        W17722  21.593   3.834  17.593  0.1236  0.4235 -0.0418
13323W        W17723  11.340   4.382  19.995 -0.1378 -0.1842  0.0258
13324W        W17724  10.813   1.857  15.886 -0.1492  0.1825  0.0439
13325W        W17725  30.932   3.097  21.035  0.0241  0.3853  0.1782
13326W        W17726   9.110   0.360   9.917  0.1049 -0.0781  0.2660
13327W        W17727  27.277   6.155   2.380 -0.1934  0.0677 -0.1102
13328W        W17728  23.091   6.716   0.848 -0.0864  0.0781  0.0923
13329W        W17729   9.310   1.346  23.186  0.2208  0.0312  0.0542
13330W        W17730   1.736   1.377   2.685 -0.3341  0.0307  0.4839
13331W        W17731  22.025   7.551   0.268 -0.0759  0.1982 -0.0294
13332W        W17732  25.341   3.332  18.071  0.0070  0.1204 -0.1528
13333W        W17733  15.504   6.268   7.051  0.0607  0.0847 -0.0988
13334W        W17734  25.379   3.598  16.104 -0.2869 -0.3214  0.1209
13335W        W17735  10.485   2.051   7.715 -0.0820 -0.0542 -0.1545
13336W        W17736  12.704   0.175  19.872  0.0460  0.0950  0.2610
13337W        W17737  15.009   4.862  23.842 -0.0694 -0.0740  0.0195
13338W        W17738  26.417   0.178   6.490 -0.0624 -0.4085 -0.1288
13339W        W17739  16.064   1.394  17.551  0.2982 -0.1108  0.0181
13340W        W17740  10.337   4.277  17.694  0.0415 -0.3078 -0.0986
13341W        W17741  21.183   0.608  21.333 -0.0198  0.2374 -0.0199
13342W        W17742   2.335   5.219  24.921 -0.2815  0.1139  0.0903
13343W        W17743  23.358   1.861   1.405 -0.0113  0.1472 -0.3156
13344W        W17744  13.411   7.529  23.586 -0.0952 -0.1193 -0.1866
13345W        W17745  19.673   2.326  21.269  0.0492  0.1795  0.0319
13346W        W17746  26.829   2.341   3.394  0.1734 -0.0397 -0.0762
13347W        W17747  22.730   5.730   6.556  0.3537  0.1211 -0.0750
13348W        W17748   9.559   1.760  23.078 -0.2666  0.0636  0.0221
13349W        W17749  29.503   7.184  19.790 -0.3710  0.2693  0.0912
13350W        W17750  25.448   3.820  11.326  0.1953 -0.1372 -0.1749
13351W        W17751  27.225   4.759   9.114  0.0657 -0.0001 -0.0999
13352W        W17752   8.429   6.408   3.703 -0.0870  0.0028  0.1809
13353W        W17753  14.688   2.933   2.530 -0.0748  0.1520  0.1293
13354W        W17754  28.044   6.658   6.304 -0.2853  0.0625  0.0223
13355W        W17755  28.079   2.727  23.789 -0.0748 -0.1672  0.0963
13356W        W17756   1.362   2.061  26.114  0.1704  0.4024 -0.0280
13357W        W17757  10.552   2.168   2.031 -0.0443  0.1425 -0.0305
13358W        W17758   0.307   2.616  22.660  0.1142  0.0066 -0.0078
13359W        W17759  10.985   5.941   5.613  0.0962 -0.0191 -0.0378
13360W        W17760   9.101   2.576   3.562  0.1966 -0.2110  0.1132
13361W        W17761  16.890   3.726  24.904 -0.0813  0.0245  0.2806
13362W        W17762  28.615   5.405  19.172 -0.0997 -0.2797  0.1106
13363W        W17763  20.969   3.530   0.698  0.0950  0.1576  0.3918
13364W        W17764   6.524   1.518  19.375  0.0911 -0.2370  0.0455
13365W        W17765  10.952   5.562  21.554 -0.1631 -0.1236  0.2227
13366W        W17766   8.212   6.830  16.515 -0.0296  0.1625  0.1516
13367W        W17767  19.603   0.636   6.331 -0.0150  0.0138  0.0041
13368W        W17768  17.943   0.800  18.431  0.0641 -0.1043  0.2526
13369W        W17769   9.780   7.147  17.315  0.0071  0.1957 -0.1734
13370W        W17770   7.486   5.315   5.369  0.0839  0.0188  0.2958
13371W        W17771   0.604   6.607  22.349 -0.2757  0.0110  0.4016
13372W        W17772  11.937   4.508  23.042  0.1217  0.2452 -0.1875
13373W        W17773   7.133   4.177  25.979 -0.0548 -0.0745 -0.0510
13374W        W17774  13.308   2.982  20.291 -0.2369 -0.1383  0.3008
13375W        W17775  17.463   3.054  22.689 -0.1187  0.1170  0.0598
13376W        W17776  12.459   4.520   6.606  0.0806 -0.0362 -0.0766
13377W        W17777   6.926   1.070   7.959  0.1682  0.3195 -0.0391
13378W        W17778   1.593   6.109   7.846  0.0338  0.0979 -0.0458
13379W        W17779  12.546   5.006  15.876 -0.1584  0.0317 -0.0826
13380W        W17780  24.202   1.299  21.934  0.2755 -0.2156  0.0588
13381W        W17781  28.308   2.411  22.807  0.1869  0.1003 -0.1671
13382W        W17782  12.494   6.085   5.103  0.0050 -0.0996 -0.1762
13383W        W17783  15.310   7.535   0.096 -0.2103 -0.0999  0.0488
13384W        W17784   5.092   3.291  22.347 -0.2081 -0.1225  0.1287
13385W        W17785  23.794   5.830   2.820 -0.2360  0.0640  0.2542
13386W        W17786  23.596   6.731   9.870 -0.2510  0.1576 -0.0220
13387W        W17787  25.853   0.864  22.040 -0.0934 -0.0321  0.3267
13388W        W17788  21.447   6.397  24.509 -0.0729  0.0735 -0.1169
13389W        W17789  12.678   1.365  23.909  0.2776  0.1062 -0.0340
13390W        W17790   4.112   3.512  16.569 -0.1213 -0.1611  0.3818
13391W        W17791  19.903   6.186   8.346  0.0754  0.2091  0.0106
13392W        W17792  30.051   5.383   7.450  0.0212  0.1150 -0.0788
13393W        W17793   3.701   7.127   9.734 -0.2158 -0.1235  0.0929
13394W        W17794   4.209   5.238   9.944 -0.0858 -0.2425  0.2080
13395W        W17795  27.446   7.635  25.715 -0.2134  0.0601 -0.2985
13396W        W17796  17.116   5.292  23.443 -0.0507  0.3221  0.0709
13397W        W17797   3.850   6.188  22.030  0.1108  0.1722 -0.0067
13398W        W17798  21.913   4.395   2.953  0.3221  0.0972 -0.0297
13399W        W17799  22.758   1.382  23.628  0.1347 -0.3754 -0.0355
13400W        W17800   7.558   3.470  19.014  0.0273  0.2793 -0.2963
13401W        W17801  29.741   1.468  20.752 -0.0848  0.0483 -0.2103
13402W        W17802  11.302   0.860   2.513 -0.2099  0.1872 -0.0720
13403W        W17803  20.155   2.524  10.446  0.0421 -0.3841 -0.2976
13404W        W17804   2.607   6.459   2.906 -0.4136  0.1149 -0.1673
13405W        W17805  12.142   6.649   5.599  0.0089 -0.1785  0.3741
13406W        W17806  21.723   5.500  23.055  0.1611 -0.0225 -0.0286
13407W        W17807  13.390   1.074   8.155  0.0218 -0.2368  0.0365
13408W        W17808   0.892   6.487   9.680 -0.1713 -0.1423 -0.3950
13409W        W17809   3.279   7.183  17.154  0.0083  0.0026  0.1646
13410W        W17810  23.429   0.742  21.767 -0.0448 -0.1690 -0.1148
13411W        W17811   9.171   7.276  24.954  0.0641  0.0576 -0.4299
13412W        W17812  29.926   3.182   1.266  0.0778 -0.0903 -0.1560
13413W        W17813   4.012   7.488  22.879 -0.2036 -0.4012 -0.1846
13414W        W17814  21.408   6.548  17.837 -0.2381 -0.0475 -0.0367
13415W        W17815  19.787   2.124   1.521  0.0829  0.0019  0.0003
13416W        W17816  16.463   4.307   6.778  0.0648 -0.1412 -0.1426
13417W        W17817  22.872   4.688   7.634 -0.0028  0.0967 -0.1414
13418W        W17818  19.642   1.763  19.773  0.0430 -0.0929  0.0469
13419W        W17819   9.839   0.123  17.622  0.2991  0.1857 -0.1091
13420W        W17820   7.480   2.262  20.343 -0.2303 -0.0461  0.0999
13421W        W17821  27.805   4.186   5.357 -0.1827 -0.1376  0.2131
13422W        W17822  13.177   4.249  24.050  0.0035  0.0027 -0.0293
13423W        W17823  19.779   7.033   9.388  0.2554 -0.2064 -0.1267
13424W        W17824   0.909   1.636  24.846  0.2041  0.2371 -0.1140
13425W        W17825  29.502   2.979  25.206 -0.3444  0.3175  0.4445
13426W        W17826   2.704   0.679  16.953  0.0299 -0.1504  0.4640
13427W        W17827   7.598   5.774  21.246  0.0376 -0.0025  0.3345
13428W        W17828   0.167   4.519  18.932 -0.2575  0.1863 -0.0120
13429W        W17829   1.965   3.304  24.998 -0.1140 -0.1417 -0.2720
13430W        W17830  11.445   0.197  19.585 -0.0053 -0.1494  0.1706
13431W        W17831   0.218   5.126  21.504 -0.1339 -0.1215  0.1302
13432W        W17832  18.687   0.864   9.707 -0.1131  0.1145  0.1054
13433W        W17833   2.106   4.217   9.603  0.0407 -0.0468  0.1899
13434W        W17834  23.300   5.505  20.846  0.0559 -0.4446 -0.0710
13435W        W17835  25.321   6.687  17.886 -0.2705 -0.1074  0.2691
13436W        W17836  14.494   7.745   1.639 -0.5108  0.2056  0.0320
13437W        W17837   9.524   5.012  24.678  0.1431  0.1631  0.2269
13438W        W17838  18.516   2.828   4.207  0.0891 -0.0382 -0.0108
13439W        W17839   4.751   2.282  10.742 -0.2269 -0.0048 -0.0792
13440W        W17840  11.650   2.309  24.478 -0.2512 -0.3706 -0.0515
13441W        W17841   8.140   3.789  25.923 -0.1128  0.0940  0.1083
13442W        W17842  26.724   1.143   5.986  0.0779 -0.0772 -0.3132
13443W        W17843  24.271   3.117  23.751  0.0732 -0.1109 -0.2921
13444W        W17844  13.083   4.775  25.697 -0.1731 -0.3568  0.1311
13445W        W17845   6.139   2.019  17.255  0.2558 -0.1378 -0.2388
13446W        W17846   5.815   0.344   4.390 -0.1638 -0.0162  0.3969
13447W        W17847  17.823   0.894   4.976  0.1163  0.0333 -0.1053
13448W        W17848  22.847   2.981  10.451  0.0206  0.0270  0.2667
13449W        W17849  20.284   0.377  25.604 -0.0279 -0.1978  0.3461
13450W        W17850  23.447   2.234  19.916  0.2363  0.1607  0.0460
13451W        W17851  18.297   0.736   3.410 -0.3107 -0.0289  0.2759
13452W        W17852  16.535   4.487   8.998  0.0519  0.0787 -0.0361
13453W        W17853  30.958   2.793   2.217  0.3383  0.2269 -0.2435
13454W        W17854   9.898   2.220   3.893 -0.2381 -0.2429  0.0897
13455W        W17855   1.608   0.860   8.543  0.0580 -0.2582  0.0766
13456W        W17856  20.140   7.394  22.604 -0.0113  0.2369 -0.1753
13457W        W17857  10.836   5.628   7.610  0.1718  0.2450 -0.1090
13458W        W17858  16.066   7.004   8.582 -0.1028 -0.0580 -0.2207
13459W        W17859  16.931   7.415  25.808  0.0698  0.2386  0.0188
13460W        W17860  12.633   0.547   7.574  0.3333  0.1809  0.1416
13461W        W17861   0.481   6.879  22.798  0.2911  0.0169 -0.0151
13462W        W17862  18.968   5.830  22.113 -0.2147  0.0074 -0.1900
13463W        W17863  12.921   0.239  20.925 -0.0660 -0.0503  0.3497
13464W        W17864   6.786   5.425  24.014 -0.0383  0.0663  0.1090
13465W        W17865  29.027   2.357   5.025  0.1814  0.0161  0.2382
13466W        W17866  27.480   0.930  23.901  0.2243 -0.0246  0.1545
13467W        W17867   1.288   3.081  22.011 -0.2807  0.0607  0.1096
13468W        W17868   1.440   2.862  11.828  0.1693 -0.2053 -0.0632
13469W        W17869  20.114   0.308  15.724 -0.3604 -0.1158  0.0209
13470W        W17870  26.470   3.513   3.226  0.3273 -0.2604 -0.3033
13471W        W17871  15.098   0.044   0.971  0.0497  0.3390 -0.0154
13472W        W17872  29.509   3.024  19.196  0.2029  0.0710 -0.0719
13473W        W17873   6.967   0.287  18.608  0.2240 -0.2554 -0.3467
13474W        W17874  25.318   3.496   6.590 -0.1850  0.0819  0.0962
13475W        W17875  18.750   5.527  16.549  0.1615 -0.0431  0.0214
13476W        W17876   6.170   5.891   4.555  0.1460  0.0583 -0.1259
13477W        W17877  10.447   3.196  19.160 -0.0814  0.1820 -0.0185
13478W        W17878  10.499   3.237  23.183  0.1474 -0.0348 -0.0291
13479W        W17879  28.739   3.346   4.913 -0.2287  0.1186 -0.0888
13480W        W17880  13.550   7.705   8.715  0.1668 -0.2069 -0.1806
13481W        W17881  12.638   0.521   8.611  0.0366 -0.0252  0.2027
13482W        W17882   8.772   1.418   4.273 -0.0137  0.2153  0.2749
13483W        W17883   6.679   1.027  11.266 -0.0758 -0.1833  0.0208
13484W        W17884   6.527   5.205   6.284 -0.0455  0.3452  0.1273
13485W        W17885   2.344   7.266   6.143  0.1661 -0.0239 -0.1199
13486W        W17886  27.500   6.708   3.121  0.3592  0.0548 -0.0295
13487W        W17887  29.105   4.892   5.889 -0.5464  0.0904  0.2045
13488W        W17888  22.963   2.673   1.293 -0.2571 -0.1537  0.1534
13489W        W17889  17.860   4.681  19.624  0.0406  0.1182 -0.0533
13490W        W17890  27.900   6.286  16.489  0.0930 -0.0877  0.0845
13491W        W17891  14.747   2.926   4.021 -0.4421  0.0170 -0.0478
13492W        W17892  14.676   6.881  17.433 -0.0582  0.1798 -0.0163
13493W        W17893  10.531   3.462   7.435  0.0754  0.0524 -0.2556
13494W        W17894  30.758   2.060  17.608  0.1585 -0.2384 -0.1096
13495W        W17895  12.656   4.566   7.077  0.1261  0.5310 -0.0847
13496W        W17896  20.967   2.997   2.773  0.1459 -0.1233  0.1127
13497W        W17897  28.163   2.610   6.522 -0.0904 -0.2068  0.1578
13498W        W17898   8.102   1.260   9.353  0.1829 -0.0328 -0.1339
13499W        W17899  23.739   1.080  17.115 -0.1646  0.1599 -0.3722
13500W        W17900  14.447   0.094  14.764 -0.0487 -0.2124 -0.1354
13501W        W17901  14.905   6.116   1.317  0.2137  0.1057 -0.0661
13502W        W17902   8.233   0.786   1.808 -0.2245  0.5569  0.2096
13503W        W17903   0.561   4.734  19.846 -0.2026  0.2539 -0.1197
13504W        W17904  29.453   0.509   7.880 -0.0460 -0.1243  0.2928
13505W        W17905   1.348   1.455  16.161  0.0955  0.0788  0.1061
13506W        W17906  11.133   6.676  15.302  0.0046  0.4693 -0.0630
13507W        W17907  29.637   6.912  11.396 -0.4320  0.2288  0.0625
13508W        W17908  17.992   5.060  15.721 -0.1226  0.3148 -0.1913
13509W        W17909  15.541   4.045  23.177 -0.0414  0.0535  0.2397
13510W        W17910  31.144   3.076  22.703 -0.0275 -0.0255  0.1244
13511W        W17911  19.751   3.503  21.909  0.0699 -0.1088 -0.2579
13512W        W17912  20.358   5.592  24.080 -0.2540 -0.3892 -0.0419
13513W        W17913  25.376   4.643  19.037  0.3334 -0.1813 -0.0546
13514W        W17914  21.692   3.867  16.386  0.2395  0.1944 -0.0401
13515W        W17915   3.128   0.881   9.203 -0.4455 -0.2205 -0.0668
13516W        W17916  19.400   0.759  22.215 -0.1921 -0.0421 -0.0162
13517W        W17917  14.825   3.483  10.087 -0.0885  0.1179  0.1059
13518W        W17918   8.833   5.073  18.565 -0.0127  0.2151  0.0700
13519W        W17919  11.552   6.906   0.203  0.1076  0.0999  0.1546
13520W        W17920  20.402   2.352   3.589 -0.2796 -0.0735 -0.0218
13521W        W17921   9.311   3.757  15.189 -0.3734  0.1659 -0.1976
13522W        W17922  21.430   5.321   7.676  0.1379  0.1360 -0.0608
13523W        W17923   6.871   4.815  22.834 -0.0614 -0.2302 -0.3399
13524W        W17924  25.112   4.831  18.221  0.1777  0.0058 -0.3734
13525W        W17925  23.413   0.822   7.399  0.0564 -0.4740 -0.0602
13526W        W17926  13.860   2.499  16.201  0.2337  0.1974 -0.1736
13527W        W17927   7.677   4.717  24.221  0.1804 -0.1733  0.1960
13528W        W17928   5.659   2.412  18.958 -0.3159 -0.0052 -0.0228
13529W        W17929  28.712   3.107  21.314  0.2303 -0.0234 -0.1115
13530W        W17930  13.308   3.739   0.888 -0.0356  0.0693 -0.1919
13531W        W17931  15.838   3.171   2.163  0.2333 -0.3511  0.2621
13532W        W17932   3.715   6.413   3.081  0.1385 -0.2110 -0.0583
13533W        W17933   1.269   3.640  19.168  0.0028  0.2296  0.1784
13534W        W17934  27.118   3.369   1.863  0.2101  0.0207  0.0708
13535W        W17935  21.828   5.351  15.266 -0.3567  0.1123  0.0954
13536W        W17936  13.859   1.259   4.984 -0.2783 -0.2796 -0.1140
13537W        W17937  24.300   7.757  19.620 -0.1820  0.2035 -0.0475
13538W        W17938  21.251   0.920  23.568  0.1750 -0.1684 -0.2049
13539W        W17939  11.194   7.812   5.138 -0.0551  0.0169  0.2513
13540W        W17940  22.710   0.485   9.232 -0.2027 -0.2431 -0.1415
13541W        W17941   5.798   2.304  22.897 -0.3192  0.0548  0.0895
13542W        W17942  14.491   0.065  20.081 -0.3791 -0.3394  0.2080
13543W        W17943  18.282   6.553  25.323 -0.3548 -0.2342  0.0476
13544W        W17944  24.535   0.222  23.396  0.2357 -0.1566  0.0841
13545W        W17945  11.869   7.470   2.679  0.0523 -0.3989 -0.1676
13546W        W17946  18.169   4.607  15.176  0.2033 -0.2602  0.1093
13547W        W17947  23.085   0.729   5.637 -0.1019 -0.0153 -0.5108
13548W        W17948  30.752   4.057  18.975  0.0648 -0.2788  0.1159
13549W        W17949  17.554   5.507  14.722 -0.2522  0.0063  0.0177
13550W        W17950  23.600   4.140   5.658 -0.0493 -0.1514  0.0008
13551W        W17951   5.868   2.063  17.692 -0.0884 -0.0857 -0.5193
13552W        W17952   1.386   6.242   5.874 -0.2668  0.1554 -0.3417
13553W        W17953  12.166   1.889   2.296  0.0809  0.1630 -0.1579
13554W        W17954  18.590   5.258  23.482  0.2530  0.0418  0.2856
13555W        W17955  28.078   2.544   9.586  0.1140 -0.0085 -0.1791
13556W        W17956  20.957   6.307  21.326  0.1032 -0.5549  0.0511
13557W        W17957  10.830   4.331   8.775 -0.2373  0.1168  0.3368
13558W        W17958   0.046   3.280  21.887 -0.0559 -0.0599  0.0092
13559W        W17959  28.119   1.967  17.293  0.2687  0.0593  0.1115
13560W        W17960  11.694   6.957   8.602 -0.2578  0.0941 -0.0320
13561W        W17961  25.718   4.984   1.557 -0.2712  0.0704  0.2262
13562W        W17962  19.680   2.675  25.448 -0.0063  0.2415 -0.2693
13563W        W17963  13.830   3.866   7.843  0.0714 -0.0081 -0.0536
13564W        W17964  13.477   2.942  16.059  0.1705 -0.1219 -0.1048
13565W        W17965  19.343   2.788   1.675  0.0021 -0.0668  0.1112
13566W        W17966  19.929   4.060   5.904  0.1372 -0.2332  0.0907
13567W        W17967  10.308   5.888  25.669 -0.1507 -0.4581  0.0644
13568W        W17968  31.241   5.172   2.753 -0.0626  0.0019 -0.1627
13569W        W17969  29.150   5.098  16.880  0.3039  0.3436 -0.2244
13570W        W17970  30.110   5.293  22.620  0.1389  0.3194  0.0551
13571W        W17971   2.846   3.487   9.955  0.0970 -0.1772  0.2754
13572W        W17972   2.496   6.851  12.268 -0.0263 -0.0363  0.0008
13573W        W17973  22.929   6.355   9.305  0.4768 -0.0693 -0.0364
13574W        W17974   9.600   1.633  18.363 -0.1617 -0.1074 -0.1401
13575W        W17975   4.741   6.192   8.133 -0.2862  0.0709 -0.2990
13576W        W17976  19.791   1.928  21.015 -0.0274 -0.5486 -0.1367
13577W        W17977   8.540   6.037  22.811 -0.2426  0.0038 -0.2793
13578W        W17978   4.195   5.296  23.063 -0.2442  0.1375  0.3597
13579W        W17979  29.126   4.908   7.263 -0.2758 -0.1233 -0.0638
13580W        W17980  24.801   3.397   1.524  0.0165  0.0085  0.1235
13581W        W17981  13.465   3.837  20.020 -0.2344 -0.0215 -0.1958
13582W        W17982   9.666   7.363  20.546  0.1096  0.2262  0.1110
13583W        W17983  10.024   2.629   7.162  0.0538  0.1169 -0.0115
13584W        W17984  17.490   5.529  19.909 -0.0512  0.2760  0.3700
13585W        W17985   6.961   3.085   8.420  0.2104  0.0162 -0.1632
13586W        W17986  10.492   3.466   2.700 -0.1046 -0.2773 -0.3977
13587W        W17987  23.228   0.454  24.211 -0.1834  0.2322  0.0144
13588W        W17988  15.658   0.011   7.839  0.0779  0.0494 -0.0368
13589W        W17989  29.372   6.224  15.925 -0.2278  0.2169 -0.2261
13590W        W17990  28.638   6.544  17.148 -0.0137  0.0045 -0.1563
13591W        W17991  28.479   5.729   6.542  0.1068 -0.0845 -0.1198
13592W        W17992   8.953   5.950   2.349  0.3795  0.0964 -0.2550
13593W        W17993  24.058   3.936  17.513  0.0886 -0.1736  0.0497
13594W        W17994   1.633   1.936   9.273  0.0561 -0.1297 -0.2183
13595W        W17995  27.261   5.261  21.896 -0.2489  0.0154  0.1755
13596W        W17996  18.415   3.269  19.515 -0.0951  0.1211  0.0993
13597W        W17997  21.345   4.379  20.421 -0.2849  0.2148 -0.0763
13598W        W17998  12.281   7.031   5.172  0.2233 -0.0089 -0.1120
13599W        W17999  12.330   6.893   7.846  0.0837  0.3652  0.1774
13600W        W18000   8.230   2.050   1.884  0.0411  0.1108 -0.1706
13601W        W18001   3.945   6.976  24.047  0.0333 -0.0377 -0.0099
13602W        W18002  23.888   5.181   3.555 -0.1297 -0.0467  0.0506
13603W        W18003  10.307   0.678  24.067  0.1213 -0.2377 -0.0358
13604W        W18004  24.099   3.126  21.526 -0.0091  0.0521 -0.0859
13605W        W18005  24.188   4.903   1.509  0.1955  0.1339  0.3477
13606W        W18006  20.295   6.728   7.121  0.0044 -0.1558  0.6127
13607W        W18007   7.018   5.955  19.964 -0.0293 -0.0425  0.1249
13608W        W18008  25.401   3.395  16.565 -0.1411  0.1677  0.0964
13609W        W18009  18.317   7.353   3.624 -0.0594 -0.0348 -0.1942
13610W        W18010  29.596   5.840  17.302 -0.1306 -0.0372 -0.0444
13611W        W18011  16.855   3.820  15.914 -0.0062  0.0168  0.1633
13612W        W18012  23.427   0.420  19.432  0.2444 -0.0890  0.2140
13613W        W18013  19.509   6.264   9.868 -0.2188 -0.0734  0.2167
13614W        W18014   7.323   0.463  18.121  0.0822  0.3057 -0.3748
13615W        W18015  28.675   5.165  23.996  0.0677 -0.1201 -0.3221
13616W        W18016   9.753   3.225  22.148 -0.1552 -0.1014 -0.2090
13617W        W18017  10.768   1.874   8.093 -0.2460 -0.0970 -0.1951
13618W        W18018  26.624   2.486  18.233 -0.0357  0.0647 -0.0107
13619W        W18019   4.886   6.931   0.118  0.0289  0.0648 -0.1019
13620W        W18020  13.286   4.759  18.566  0.2973 -0.0128  0.0767
13621W        W18021  30.260   0.614   9.995  0.1095 -0.0291 -0.0718
13622W        W18022  20.491   3.406  10.855  0.2434 -0.0220  0.0739
13623W        W18023   6.017   5.127   7.495 -0.0282  0.2437 -0.1764
13624W        W18024  21.883   0.641   3.790 -0.0807 -0.3257  0.0865
13625W        W18025  12.066   6.833  25.107 -0.1606 -0.2549 -0.3197
13626W        W18026  12.145   2.374  24.562 -0.1584  0.2316 -0.1010
13627W        W18027  18.148   5.221   0.985 -0.0395  0.2075 -0.0340
13628W        W18028  30.557   0.093   0.859  0.1009  0.1495 -0.0119
13629W        W18029  19.733   6.631   5.650 -0.1298 -0.0070  0.0459
13630W        W18030  10.519   6.671   4.150  0.0267 -0.1007  0.2363
13631W        W18031   7.394   4.859   6.556  0.0612  0.1650  0.0400
13632W        W18032  18.568   4.792  18.166  0.1481 -0.1671 -0.2798
13633W        W18033  15.358   4.214  20.211 -0.1582  0.2048 -0.0863
13634W        W18034  11.452   3.629  22.837  0.1132  0.1574 -0.3196
13635W        W18035  14.560   3.502   5.753  0.2644  0.0551 -0.0063
13636W        W18036  25.118   7.534   1.729  0.0864 -0.2369  0.0426
13637W        W18037  10.466   4.310   6.396 -0.1791  0.1697 -0.1711
13638W        W18038  11.328   4.423  25.699  0.0387  0.2333  0.2061
13639W        W18039   5.762   6.284  17.375 -0.0996 -0.0591  0.0255
13640W        W18040  27.668   5.826  22.334 -0.1402  0.0083  0.1336
13641W        W18041   7.572   5.704   4.968 -0.2589  0.2662 -0.2719
13642W        W18042  30.191   3.403  18.686 -0.1521  0.3336 -0.1442
13643W        W18043   8.277   2.028   3.823  0.0702 -0.0539 -0.2501
13644W        W18044   1.765   4.704   4.412 -0.6240  0.0632 -0.2691
13645W        W18045  15.683   0.193  15.484 -0.2266  0.3030  0.1126
13646W        W18046  30.147   5.428   6.033 -0.0018  0.0401  0.2066
13647W        W18047  20.578   3.244   7.840 -0.2381 -0.0857  0.1048
13648W        W18048   9.558   0.038   5.855 -0.0996 -0.0527 -0.0506
13649W        W18049  22.076   3.651   8.440  0.2437  0.1421  0.3022
13650W        W18050  31.274   2.311  18.811 -0.1387  0.3422 -0.0331
13651W        W18051   0.537   5.731   7.452 -0.1761 -0.4640  0.0342
13652W        W18052  31.020   4.839   9.020  0.1447 -0.0818 -0.0905
13653W        W18053  25.110   2.559  20.473 -0.1084 -0.0753  0.1219
13654W        W18054   9.399   6.623  11.039 -0.2179 -0.4659 -0.0625
13655W        W18055   0.200   4.574  24.481  0.0524 -0.2471 -0.2009
13656W        W18056   3.824   2.157   0.897  0.1699  0.0049  0.1687
13657W        W18057  28.491   2.938  19.298 -0.1004 -0.2220 -0.3713
13658W        W18058  15.808   1.488  18.015  0.0333  0.2852  0.0640
13659W        W18059   3.464   7.555  23.814 -0.1918 -0.1290 -0.0257
13660W        W18060   6.877   3.191  24.221 -0.3168 -0.1247 -0.0934
13661W        W18061   8.793   1.497  22.769 -0.0340  0.1673  0.0692
13662W        W18062  10.652   7.413  24.999  0.3164 -0.1078  0.0082
13663W        W18063  18.332   2.613  17.797  0.0249  0.0277  0.0611
13664W        W18064  18.345   0.298  10.412 -0.1699 -0.1243 -0.0358
13665W        W18065   5.793   3.802  24.091 -0.0981 -0.1150  0.1139
13666W        W18066   7.036   1.129  23.187 -0.2607 -0.2388 -0.1631
13667W        W18067  16.519   5.565  10.265 -0.1552  0.0986 -0.0590
13668W        W18068  23.605   0.960   2.904  0.0526  0.2277 -0.0439
13669W        W18069  17.905   4.946  22.172 -0.1252  0.2959  0.1352
13670W        W18070  19.744   1.190  25.387  0.0884  0.1329 -0.0008
13671W        W18071  30.432   1.918   9.903  0.0139 -0.0162 -0.2944
13672W        W18072  31.091   5.551   6.293 -0.2787 -0.1340  0.0161
13673W        W18073   1.965   1.770  20.554 -0.2287  0.1362  0.0471
13674W        W18074  20.959   3.598  20.384  0.4972 -0.1889 -0.0112
13675W        W18075  29.469   7.478   3.597 -0.2511 -0.2081  0.0220
13676W        W18076  16.022   1.195   9.355 -0.1528  0.0509 -0.2291
13677W        W18077  25.999   3.320  23.553  0.1315 -0.0930 -0.0416
13678W        W18078  18.074   4.539   3.375  0.1543 -0.2350 -0.1030
13679W        W18079   4.117   4.989   5.589  0.0916 -0.0406 -0.0408
13680W        W18080   8.931   1.656   1.127 -0.4179 -0.0291 -0.0909
13681W        W18081   0.921   7.500   4.839  0.0223 -0.0887 -0.2060
13682W        W18082   9.860   5.599  18.786  0.1777 -0.2386 -0.1318
13683W        W18083  28.731   3.278  18.097 -0.1682 -0.0539 -0.0318
13684W        W18084   3.484   0.758  24.463  0.2627 -0.0125 -0.0738
13685W        W18085   0.287   2.859  17.354  0.0477 -0.0178  0.1241
13686W        W18086  24.578   3.562  23.070  0.0135  0.1673  0.1756
13687W        W18087  11.323   3.918  19.772  0.0107 -0.0405 -0.1858
13688W        W18088   1.792   2.750  23.222 -0.2434  0.0281 -0.0112
13689W        W18089  28.551   6.495  15.929 -0.0492  0.2539 -0.0676
13690W        W18090  14.227   3.466   1.889  0.0899 -0.0375 -0.1935
13691W        W18091  15.133   2.171  25.744  0.0394 -0.2120 -0.0824
13692W        W18092  28.565   4.552   4.528  0.1484  0.2319 -0.2551
13693W        W18093  24.074   6.207  21.778 -0.2356  0.2330  0.0333
13694W        W18094   0.826   2.566  17.323  0.0783 -0.1220  0.0485
13695W        W18095  29.673   2.321  24.060 -0.0937 -0.1097 -0.1057
13696W        W18096  15.524   6.339  21.327 -0.0667  0.3392 -0.1632
13697W        W18097  30.970   6.990   2.863  0.0579 -0.0994  0.2582
13698W        W18098  17.939   2.141   3.394 -0.0562 -0.0053 -0.1484
13699W        W18099   2.605   5.142  21.976 -0.1610  0.2559 -0.2486
13700W        W18100  18.309   1.279  16.730 -0.1820  0.4068 -0.2512
13701W        W18101   8.064   6.243   3.392  0.0812  0.3155  0.1287
13702W        W18102   3.334   0.013  18.328  0.2997 -0.0658 -0.3765
13703W        W18103   1.949   1.212   8.500  0.0169  0.1017  0.1015
13704W        W18104  14.059   0.454  16.822 -0.0320  0.0190 -0.1359
13705W        W18105  28.077   3.369   6.968 -0.1424  0.0405  0.0587
13706W        W18106  20.277   3.786   2.672  0.0628 -0.0225 -0.0283
13707W        W18107   1.796   7.238  19.612  0.0101  0.2212 -0.3290
13708W        W18108  12.274   2.485  24.107  0.2231  0.1561  0.1171
13709W        W18109  14.382   2.687  20.968 -0.1313 -0.1559  0.0143
13710W        W18110  23.920   6.203   6.533 -0.0536 -0.0660 -0.3000
13711W        W18111  10.902   3.344   0.284 -0.1729 -0.2202  0.0760
13712W        W18112   8.992   0.299  22.177 -0.0168 -0.2015  0.0294
13713W        W18113  21.535   0.100  23.591 -0.0054 -0.2507 -0.1316
13714W        W18114  15.486   5.088   4.644  0.3741  0.1256  0.2976
13715W        W18115  26.785   3.955   2.556 -0.0628 -0.1516  0.0312
13716W        W18116   1.704   5.130   0.364  0.0251  0.2314 -0.3251
13717W        W18117  14.044   6.754   2.444 -0.1625 -0.1607 -0.1127
13718W        W18118  23.916   2.278  21.318  0.0710 -0.1120  0.1669
13719W        W18119   3.622   4.062   0.767  0.1632  0.0182  0.2919
13720W        W18120   1.961   0.931   8.115  0.0121 -0.1358  0.2087
13721W        W18121  21.643   7.710  18.985  0.1138  0.0863 -0.0873
13722W        W18122  21.895   5.293   3.608  0.0208 -0.0714 -0.0310
13723W        W18123   9.803   3.851  18.269  0.2563 -0.2823  0.0708
13724W        W18124  17.122   1.452  19.686  0.0680  0.0424 -0.2111
13725W        W18125  26.789   7.722  23.462  0.3257 -0.3005 -0.0539
13726W        W18126  10.619   1.080  14.720 -0.0884  0.0339  0.2148
13727W        W18127   5.649   5.666   6.955 -0.0136  0.2076 -0.2239
13728W        W18128  28.590   0.146  20.180  0.1827 -0.0775 -0.0568
13729W        W18129  11.355   5.350   0.237  0.0235  0.0754 -0.3190
13730W        W18130   9.632   5.955  22.639 -0.0350 -0.1808 -0.1561
13731W        W18131   7.917   4.751   4.062 -0.2255  0.3642  0.2803
13732W        W18132  18.578   5.470  21.956  0.3250 -0.1880  0.3340
13733W        W18133   5.391   7.018  16.939  0.1707  0.0970 -0.2229
13734W        W18134  16.891   0.618  18.679 -0.3930 -0.0152  0.1459
13735W        W18135  20.873   5.713   5.643  0.0793 -0.0473 -0.0006
13736W        W18136  22.855   1.786   6.928  0.0680 -0.2625  0.1340
13737W        W18137  14.843   5.844  19.802  0.0920 -0.1207  0.1344
13738W        W18138   4.990   0.178  22.645 -0.1325  0.0432 -0.0493
13739W        W18139  27.153   1.084   0.420 -0.1689 -0.2086 -0.2080
13740W        W18140  28.694   1.541  15.833 -0.1118  0.2715 -0.1316
13741W        W18141  17.976   5.691   9.361 -0.0564 -0.3595 -0.1428
13742W        W18142  25.154   1.933  11.267 -0.1423 -0.2787 -0.1549
13743W        W18143  14.597   0.771   0.001  0.0465 -0.2299 -0.3340
13744W        W18144   3.124   1.191  21.861 -0.2582 -0.2103  0.1635
13745W        W18145  17.681   3.224   8.501 -0.2945 -0.3432  0.3257
13746W        W18146  28.792   4.922   4.213  0.0170 -0.2835 -0.1732
13747W        W18147  19.838   5.666   0.873 -0.1490 -0.0796 -0.2144
13748W        W18148  21.279   0.201   6.049  0.2546 -0.1933  0.0242
13749W        W18149  27.749   5.954  21.068 -0.0057  0.0063 -0.1209
13750W        W18150  13.191   4.243  15.647 -0.1115  0.2669 -0.2117
13751W        W18151  18.580   4.045   0.318  0.1334 -0.0423  0.3218
13752W        W18152   7.668   3.579   6.274  0.0584  0.0200  0.2164
13753W        W18153  12.843   5.543  24.471 -0.1537 -0.1722  0.2520
13754W        W18154  12.752   4.976  15.063  0.0141  0.0755  0.0736
13755W        W18155  18.536   4.747  19.415  0.0274  0.0832  0.3414
13756W        W18156   1.428   7.221   7.012  0.0133  0.1188  0.3034
13757W        W18157   0.893   1.564   0.442  0.0893 -0.2779  0.0084
13758W        W18158   8.708   2.026  16.211  0.1877  0.4565 -0.0326
13759W        W18159   1.155   4.476  24.794  0.1171  0.0274  0.1721
13760W        W18160   4.000   7.716  25.498  0.0497  0.2641 -0.2310
13761W        W18161  13.888   0.850   8.827 -0.1769  0.2220 -0.2260
13762W        W18162  16.494   3.753  24.560 -0.1468  0.0096 -0.1364
13763W        W18163  18.366   2.001   1.126 -0.1787  0.1955  0.1040
13764W        W18164   4.464   1.089  20.491 -0.2127  0.0595  0.0617
13765W        W18165  23.068   6.240   0.761 -0.4009 -0.2118  0.0499
13766W        W18166  24.667   1.801  25.995  0.2482 -0.0384  0.1160
13767W        W18167  26.029   6.382  18.862  0.0908 -0.0234  0.2599
13768W        W18168   8.407   1.659  21.159  0.0577 -0.0365  0.1585
13769W        W18169  18.267   1.266   4.923 -0.1035 -0.1879 -0.1946
13770W        W18170   3.597   6.439   3.857  0.1884 -0.2178 -0.2509
13771W        W18171   3.523   2.326   7.974  0.3690  0.0894  0.0443
13772W        W18172   6.534   2.571  24.824 -0.0954  0.3407 -0.0883
13773W        W18173  10.419   5.850   3.653 -0.1077 -0.0782 -0.2067
13774W        W18174  11.085   2.858   1.177  0.0896  0.0971  0.2779
13775W        W18175  11.905   0.953  25.390 -0.3669  0.1501 -0.0073
13776W        W18176  19.688   4.609  16.955  0.1003 -0.0963 -0.0278
13777W        W18177  21.791   5.386   5.652 -0.1442  0.3779  0.0347
13778W        W18178  28.891   4.827  21.726 -0.5989  0.1994  0.0043
13779W        W18179   0.509   2.033  24.922  0.0862 -0.2053  0.1187
13780W        W18180  26.257   6.244  15.531  0.1772  0.2394  0.0702
13781W        W18181   2.318   5.745  20.744 -0.0253 -0.2532  0.0173
13782W        W18182   0.299   4.258  16.679  0.0292 -0.2569 -0.0655
13783W        W18183  29.010   2.486  23.827 -0.2446 -0.1617 -0.0192
13784W        W18184   0.606   2.530   8.867  0.0413  0.0648  0.1933
13785W        W18185  19.656   2.211  24.581 -0.2629  0.0572  0.0588
13786W        W18186   3.505   6.601   8.059  0.1698  0.2125 -0.2195
13787W        W18187  13.916   1.754   0.914  0.1153 -0.1220 -0.0561
13788W        W18188   4.702   6.078   0.436  0.0946 -0.0686 -0.3825
13789W        W18189   2.175   2.536   8.508  0.0673 -0.1146 -0.0057
13790W        W18190  11.899   0.096  10.828 -0.2370  0.2175 -0.0831
13791W        W18191  21.540   4.198   7.136  0.0049 -0.5918  0.0696
13792W        W18192   3.208   4.303   4.908 -0.0669  0.0697  0.3368
13793W        W18193  20.803   4.147  16.413  0.3425 -0.3362  0.1427
13794W        W18194  27.260   7.261  17.097 -0.0292 -0.2048 -0.2833
13795W        W18195  22.396   6.707   6.286  0.0578 -0.1185 -0.2561
13796W        W18196  11.021   4.066  25.476  0.0974  0.1955  0.0727
13797W        W18197  23.819   6.685   6.793  0.0930 -0.0500 -0.0201
13798W        W18198   1.326   1.001   7.175 -0.0799  0.0558  0.0176
13799W        W18199  16.204   6.092   8.046  0.1063 -0.2101 -0.0671
13800W        W18200  19.734   6.447  23.559 -0.1062 -0.3992  0.1075
13801W        W18201  19.366   2.119   1.217 -0.2204  0.0548  0.1222
13802W        W18202  28.209   5.415  10.659 -0.0449 -0.0270 -0.2232
13803W        W18203   4.034   1.295  16.865  0.0737 -0.1220 -0.1152
13804W        W18204  14.277   1.190  20.777 -0.2772  0.1441 -0.0096
13805W        W18205   8.184   0.597  18.790  0.4036  0.0769  0.0893
13806W        W18206   0.568   2.636  23.998  0.1206  0.0590 -0.1715
13807W        W18207  10.885   5.313  22.073 -0.1528  0.2067  0.1953
13808W        W18208  24.374   0.651   3.368  0.2052  0.2022  0.2249
13809W        W18209  22.665   4.740  19.763  0.3640 -0.1925  0.0040
13810W        W18210  30.051   0.485   0.059 -0.2300  0.1806  0.2212
13811W        W18211  28.549   0.093  17.927  0.2388 -0.2255 -0.0926
13812W        W18212  22.951   0.615  19.852  0.1265  0.0087  0.1318
13813W        W18213  14.698   0.846  17.432  0.1804 -0.2662 -0.0560
13814W        W18214   9.740   5.809  25.599 -0.1267 -0.2017  0.0013
13815W        W18215  13.619   6.805   3.177  0.0696 -0.1714  0.1060
13816W        W18216  27.943   4.517  23.715 -0.1903  0.0621  0.1974
13817W        W18217  31.281   4.037  18.058  0.0104  0.1033 -0.0069
13818W        W18218  10.968   5.790  15.623 -0.0316 -0.1389  0.2382
13819W        W18219  19.905   2.813   2.346  0.3481 -0.4368 -0.1288
13820W        W18220  29.864   0.587  23.967  0.0587  0.1770  0.2055
13821W        W18221   4.755   4.900   8.253  0.2434 -0.0132 -0.1942
13822W        W18222   1.918   4.818  24.661 -0.3108 -0.2065  0.2125
13823W        W18223  24.958   3.087  21.264  0.2448  0.4107  0.2817
13824W        W18224  23.116   3.332  16.156 -0.3191 -0.0300  0.1523
13825W        W18225  17.897   3.898  23.679  0.0823  0.1452 -0.2663
13826W        W18226  21.534   7.601  15.324 -0.0470  0.3259  0.1881
13827W        W18227  26.200   6.601  19.664 -0.0938 -0.1766  0.0683
13828W        W18228   7.139   6.494  20.157  0.0182  0.2757  0.0091
13829W        W18229  21.861   7.592   6.067  0.1439  0.0547  0.1318
13830W        W18230   8.106   4.883  14.794  0.2419  0.0322  0.2974
13831W        W18231  25.475   5.591   8.037 -0.0563  0.0526 -0.1074
13832W        W18232  23.906   1.822  23.231 -0.2318  0.0249  0.0318
13833W        W18233  29.229   5.541   5.083 -0.0632  0.0115  0.2133
13834W        W18234  28.644   4.854   2.338 -0.0164 -0.0311  0.2744
13835W        W18235  14.326   5.734  17.460  0.0385 -0.1640  0.0560
13836W        W18236  23.769   0.698  24.972  0.3142  0.0731  0.1903
13837W        W18237  12.789   4.088  21.986 -0.0587  0.1795 -0.1956
13838W        W18238  14.633   1.827  19.786 -0.0473  0.0617  0.0899
13839W        W18239  21.465   1.029  10.038  0.0679  0.1850 -0.0094
13840W        W18240  16.635   2.462  10.046  0.0314 -0.2471 -0.0555
13841W        W18241  13.066   3.742  16.336 -0.1435  0.0863 -0.0842
13842W        W18242   7.873   2.007  17.849 -0.1459 -0.2089  0.0634
13843W        W18243  28.341   3.067   6.640 -0.1314 -0.0611 -0.0090
13844W        W18244  17.453   1.408  10.031 -0.0030  0.0425 -0.1192
13845W        W18245  23.461   3.284   2.021  0.1631 -0.4113 -0.1165
13846W        W18246  28.561   7.173  18.948  0.0501  0.1327  0.2123
13847W        W18247  17.664   4.093   0.477 -0.1116  0.0105  0.0035
13848W        W18248   1.971   7.715  24.987  0.1491  0.1413  0.2152
13849W        W18249   9.312   3.972  19.658  0.3480  0.2867 -0.1602
13850W        W18250   4.230   4.769  10.221 -0.0272 -0.2732  0.3108
13851W        W18251  13.545   3.515  18.279  0.0151 -0.1335  0.1204
13852W        W18252  11.304   1.327  23.004  0.0644  0.0234 -0.4335
13853W        W18253   7.408   5.989  17.520  0.2789  0.0870 -0.3408
13854W        W18254  17.113   3.434  15.997 -0.1135  0.1764  0.1540
13855W        W18255  28.347   4.900   9.794 -0.3766  0.2326 -0.0557
13856W        W18256  17.868   3.890   5.984 -0.3567 -0.0209 -0.1161
13857W        W18257   6.321   0.998  15.820  0.0003 -0.1791  0.1714
13858W        W18258  11.602   5.657   0.652 -0.0202  0.1496 -0.1045
13859W        W18259   1.875   4.184  18.548  0.1703 -0.0876 -0.0812
13860W        W18260  17.631   1.897   9.820 -0.1027  0.2927 -0.3574
13861W        W18261  29.751   6.593   5.565 -0.2444  0.1704 -0.0005
13862W        W18262  10.753   6.269  15.317 -0.1822 -0.1921 -0.0755
13863W        W18263   0.847   6.223   2.889  0.0365 -0.2045  0.0178
13864W        W18264   4.738   6.071  20.413  0.0702  0.0217  0.2751
13865W        W18265  23.671   0.716  18.651 -0.1237  0.2244 -0.0940
13866W        W18266   1.227   5.107   6.462 -0.3003  0.0773 -0.1458
13867W        W18267   9.064   3.153  22.863  0.0746  0.0128 -0.2719
13868W        W18268  15.248   0.790   3.778 -0.0209  0.0925 -0.0624
13869W        W18269  18.308   1.162  20.165 -0.4811  0.1218 -0.2380
13870W        W18270  25.057   6.100  16.684 -0.1503  0.0407  0.2061
13871W        W18271  19.432   0.997  20.188  0.0553  0.2959 -0.0558
13872W        W18272   2.739   4.740  18.378  0.4154  0.1689 -0.1315
13873W        W18273   7.881   4.007  19.892 -0.2713  0.0925  0.0198
13874W        W18274  21.968   2.032  22.860 -0.1748 -0.3262  0.3514
13875W        W18275  25.246   7.235   8.788 -0.0533 -0.2249 -0.1484
13876W        W18276  28.227   4.063  22.401 -0.2528 -0.0205 -0.1985
13877W        W18277  21.577   0.511   4.729  0.0736  0.1493 -0.2395
13878W        W18278  24.482   4.955  16.275 -0.1140  0.2485  0.1711
13879W        W18279  25.016   0.216  21.966  0.0637  0.0364 -0.1176
13880W        W18280  14.222   7.520  23.951  0.0612 -0.2495 -0.0251
13881W        W18281  15.802   3.657   9.129  0.3164  0.1445  0.0099
13882W        W18282   3.851   6.911  19.134 -0.1669 -0.0943 -0.0447
13883W        W18283  14.155   0.874   8.370  0.0167 -0.0449  0.1035
13884W        W18284  16.303   0.865  17.768  0.2879 -0.1610  0.3925
13885W        W18285  16.680   0.793   9.445 -0.1692  0.0255  0.1488
13886W        W18286  11.722   1.551  10.164 -0.1670 -0.2185  0.0580
13887W        W18287  20.064   6.776  17.505  0.4876 -0.0216 -0.1896
13888W        W18288  20.807   4.701   1.525 -0.1037 -0.3078 -0.0839
13889W        W18289   7.315   5.290  22.226  0.3443 -0.1103 -0.2321
13890W        W18290  20.649   3.021  17.180 -0.2981 -0.1027  0.0400
13891W        W18291   8.956   3.344   5.468 -0.0884 -0.1653  0.0038
13892W        W18292   1.568   2.360  21.426  0.0115  0.3889 -0.1667
13893W        W18293   5.245   2.629   4.844 -0.0763  0.2550 -0.0673
13894W        W18294  14.601   3.729  19.061  0.2874  0.2061 -0.3340
13895W        W18295  11.570   3.978   1.543 -0.0725 -0.1319 -0.3716
13896W        W18296  17.336   5.806  22.068 -0.2715  0.0037 -0.0074
13897W        W18297   2.497   7.366  17.835 -0.2653  0.0397 -0.2705
13898W        W18298   0.978   7.442  18.010 -0.0182 -0.1101  0.0297
13899W        W18299  28.170   3.046  21.394  0.0150  0.0540  0.2650
13900W        W18300  12.570   4.662  15.520  0.0064  0.0529  0.2790
13901W        W18301  28.177   6.716  21.458 -0.2902  0.0349  0.0024
13902W        W18302  27.395   1.753   5.604 -0.0425 -0.1434 -0.1103
13903W        W18303   3.776   3.250  25.691  0.4063 -0.1912 -0.0394
13904W        W18304   5.628   3.367   8.113  0.0738  0.3360  0.1375
13905W        W18305   9.485   4.096  20.095 -0.2545  0.1060  0.0418
13906W        W18306   8.825   2.781   8.904 -0.0812  0.4504 -0.0508
13907W        W18307  27.530   7.532   1.013  0.1349 -0.2112  0.1629
13908W        W18308  16.118   1.460   7.817 -0.1902  0.1835 -0.2560
13909W        W18309  11.253   4.887   7.033  0.1857  0.0079  0.0852
13910W        W18310  15.411   2.828  22.728 -0.1310 -0.0025  0.0324
13911W        W18311  22.277   0.287   0.424 -0.2162  0.0151  0.0107
13912W        W18312   6.456   2.783   4.056 -0.0346  0.0743  0.1131
13913W        W18313  28.205   4.188  23.423  0.1583 -0.0793 -0.1463
13914W        W18314  31.034   0.140  18.755  0.0107  0.1743  0.1417
13915W        W18315  15.577   2.697   1.163 -0.1205 -0.1220  0.3146
13916W        W18316  20.001   7.070   7.379 -0.1155  0.1629 -0.2059
13917W        W18317  29.518   1.153   9.673 -0.1937 -0.2979 -0.1912
13918W        W18318   9.073   0.392  24.688 -0.1122  0.0215  0.0080
13919W        W18319  30.799   2.455   7.474 -0.1783  0.1110  0.2011
13920W        W18320  27.333   2.897   5.203 -0.0795 -0.0969  0.2837
13921W        W18321  20.248   4.393   4.799 -0.0328 -0.1609 -0.0837
13922W        W18322  24.055   3.562  10.991 -0.1599 -0.1432  0.3702
13923W        W18323  13.979   0.625   6.098  0.1555 -0.0818 -0.0523
13924W        W18324  17.736   1.953   6.184 -0.2103 -0.1093 -0.2006
13925W        W18325  30.792   0.679  23.393 -0.0177 -0.1517 -0.0201
13926W        W18326  17.431   6.930   6.270  0.0734 -0.1084  0.0118
13927W        W18327   0.451   4.195   2.799  0.0642 -0.1173 -0.2387
13928W        W18328  14.004   0.221   2.020  0.1682  0.1259  0.1630
13929W        W18329  12.571   1.471  15.479  0.1298 -0.0335 -0.1410
13930W        W18330  11.607   4.100  16.338  0.4150  0.2029  0.1613
13931W        W18331  16.203   4.150   7.226 -0.1765  0.4652  0.0082
13932W        W18332  20.010   6.288  15.158  0.0480 -0.0534  0.0026
13933W        W18333  25.947   0.374   0.107  0.0508 -0.2336 -0.0747
13934W        W18334   7.605   4.124   1.555  0.2306 -0.1210 -0.1729
13935W        W18335  24.556   3.428  16.162 -0.0800  0.1430  0.0998
13936W        W18336  13.965   7.186   1.912  0.0356  0.4181  0.1149
13937W        W18337  28.666   4.309  22.526 -0.0659  0.0419 -0.1311
13938W        W18338  26.726   1.861   9.737  0.2380 -0.3003  0.2803
13939W        W18339  27.992   2.866   7.075 -0.0250 -0.3338 -0.0278
13940W        W18340  19.940   3.650  22.431 -0.0293 -0.1584  0.1896
13941W        W18341  24.212   7.603   7.846 -0.2411 -0.1522 -0.0772
13942W        W18342   1.209   3.576  17.683  0.2270  0.1576 -0.2332
13943W        W18343   6.048   2.409   7.460  0.1966  0.1755  0.0373
13944W        W18344   8.394   6.971  10.283  0.2749 -0.1047 -0.0492
13945W        W18345  26.760   4.815  25.504 -0.3130  0.0070 -0.1793
13946W        W18346  21.766   0.509  23.457 -0.3716  0.2709  0.0460
13947W        W18347  28.411   7.177  21.387  0.1257 -0.0507  0.1023
13948W        W18348  11.690   5.375   1.982  0.1889 -0.1140  0.1370
13949W        W18349  23.625   2.915   4.483 -0.1598 -0.2981 -0.0567
13950W        W18350  10.762   0.850   2.643 -0.4801  0.0016 -0.3104
13951W        W18351  27.346   6.607   8.214  0.2236  0.0916 -0.3541
13952W        W18352  27.000   5.759   0.674 -0.0228  0.0050  0.1546
13953W        W18353  12.796   3.577  20.746  0.2735  0.3011 -0.0451
13954W        W18354  20.904   5.961  10.178 -0.1096  0.1068  0.0682
13955W        W18355   6.132   1.499   9.911 -0.3175  0.0387 -0.0085
13956W        W18356  31.041   2.275   5.011  0.1614  0.2478 -0.1672
13957W        W18357   9.138   3.581   8.691  0.1040  0.0762 -0.0915
13958W        W18358  16.450   7.524   7.898 -0.0351  0.1291 -0.2592
13959W        W18359  30.694   5.375   6.657  0.1362  0.1293 -0.0694
13960W        W18360   6.981   1.693  16.989 -0.0093  0.0957 -0.1903
13961W        W18361  25.451   5.122  19.125  0.0939 -0.1232 -0.0911
13962W        W18362   6.683   3.459   1.527 -0.2930  0.3879 -0.0093
13963W        W18363  11.798   0.850  20.534 -0.1548  0.2192 -0.1743
13964W        W18364  14.213   7.663  16.148 -0.1792  0.1091  0.0466
13965W        W18365   1.650   6.893  24.792  0.0138  0.2030  0.0134
13966W        W18366   0.529   4.479  23.051 -0.1742  0.0910 -0.0370
13967W        W18367  30.200   5.718  18.222  0.2681  0.1077 -0.3675
13968W        W18368   1.066   5.774   7.064  0.2920 -0.0600  0.0094
13969W        W18369   1.320   6.382  21.647 -0.2217  0.0512 -0.0898
13970W        W18370   9.043   4.066  20.381 -0.0045  0.1942  0.0377
13971W        W18371  15.458   7.551   9.449  0.4756 -0.0498  0.0153
13972W        W18372  15.549   0.030   7.282  0.2078 -0.2495 -0.0872
13973W        W18373  13.942   2.791   3.516 -0.0759 -0.4837 -0.1690
13974W        W18374   1.376   5.144  25.598 -0.2096  0.0781 -0.0775
13975W        W18375  22.522   7.745   4.184  0.1751 -0.0793 -0.1134
13976W        W18376  27.216   3.319  20.131  0.2468  0.3342 -0.0158
13977W        W18377   5.430   5.586   8.420  0.3688 -0.1464  0.2523
13978W        W18378  18.402   5.607  17.459  0.0317 -0.0183 -0.3301
13979W        W18379  21.018   0.582  20.015 -0.1555  0.0050  0.3448
13980W        W18380  31.037   6.335   5.396 -0.1824  0.1147  0.1222
13981W        W18381  27.210   1.018   6.338 -0.0492  0.1670 -0.0556
13982W        W18382  14.847   0.546   7.536  0.1731  0.1637  0.1802
13983W        W18383   4.301   1.087   4.150 -0.1315  0.0199 -0.0954
13984W        W18384   0.712   0.930  18.596 -0.1037 -0.0307  0.0068
13985W        W18385  15.262   3.612  22.911 -0.3898  0.2436  0.1133
13986W        W18386  29.501   4.108  21.661  0.0660  0.0683  0.0154
13987W        W18387  16.706   3.520  17.243  0.0060  0.0599 -0.0279
13988W        W18388   3.649   6.981  24.524 -0.0061 -0.0223  0.2456
13989W        W18389   5.423   6.332   1.931 -0.2550 -0.0555 -0.0376
13990W        W18390   9.609   0.642  20.597  0.1441  0.0378  0.1866
13991W        W18391  12.452   6.582  14.846  0.0888 -0.1847  0.2190
13992W        W18392  26.112   5.272  24.761 -0.1657  0.0451 -0.0236
13993W        W18393   8.767   0.698   9.129  0.1342  0.0067 -0.1488
13994W        W18394   2.033   6.589  18.880  0.5034 -0.1296 -0.0237
13995W        W18395   0.074   3.037   1.577 -0.0359 -0.1753 -0.1066
13996W        W18396  18.574   4.161  23.070  0.2975 -0.3228 -0.2106
13997W        W18397  22.217   4.793   3.406 -0.3453 -0.2378 -0.0131
13998W        W18398   6.459   5.819  10.699 -0.0087 -0.0665 -0.0340
13999W        W18399  23.178   4.481  21.641  0.0873 -0.0780 -0.2452
14000W        W18400  25.182   2.622  23.586 -0.1290 -0.2580 -0.1831
14001W        W18401  25.089   6.180  15.345  0.0682  0.2893  0.1435
14002W        W18402  25.050   6.719   4.226  0.2444  0.2168 -0.0951
14003W        W18403  16.301   1.504   6.124  0.0636  0.0501 -0.1103
14004W        W18404  26.620   6.140   3.661 -0.2314  0.3028 -0.0679
14005W        W18405  23.659   5.092   6.976  0.1040  0.0830 -0.2012
14006W        W18406  17.696   6.825  21.379 -0.1381  0.1288 -0.0034
14007W        W18407  13.693   3.801  20.450  0.0504  0.1799 -0.2001
14008W        W18408   0.765   2.117   8.415 -0.0115  0.0160  0.2050
14009W        W18409  13.858   4.606   0.491 -0.1543 -0.0203  0.0772
14010W        W18410  30.308   0.637  25.765  0.0958 -0.0741 -0.0142
14011W        W18411   2.260   5.621  21.280 -0.0605 -0.0440 -0.2705
14012W        W18412   2.163   6.185  19.136 -0.2256  0.2345  0.0799
14013W        W18413  26.859   3.156  11.332  0.3040 -0.1307  0.0410
14014W        W18414  28.564   1.997   0.551 -0.1635 -0.1023 -0.0776
14015W        W18415  11.423   4.903   5.400  0.1832 -0.2777  0.0841
14016W        W18416  29.768   2.598  19.073 -0.1287  0.1434 -0.3675
14017W        W18417  25.231   4.378  10.276 -0.2231  0.2745  0.2958
14018W        W18418  27.855   7.816   2.218  0.4079 -0.3898 -0.0326
14019W        W18419   5.898   7.098  17.797  0.0807  0.0576 -0.0877
14020W        W18420  26.718   0.810   6.844  0.0720  0.0414 -0.3283
14021W        W18421  30.785   5.086  16.525 -0.0230 -0.1214  0.0131
14022W        W18422  10.984   3.194   4.262  0.2034 -0.0605 -0.2375
14023W        W18423   3.049   5.537   5.011  0.1169  0.1259 -0.2381
14024W        W18424   8.780   6.987  10.557 -0.2764  0.0914  0.1129
14025W        W18425  31.144   5.799   2.005  0.4142 -0.1281 -0.1485
14026W        W18426   1.941   6.464   0.516 -0.1391  0.0239 -0.1077
14027W        W18427  28.433   4.558  21.155 -0.0664  0.0513 -0.0798
14028W        W18428  15.381   0.398   5.907 -0.0655  0.0102 -0.0765
14029W        W18429   9.683   6.650   4.671  0.0309  0.0633  0.1292
14030W        W18430  26.362   5.559   3.912  0.2830 -0.3506  0.1017
14031W        W18431  26.924   1.469  25.597 -0.0287  0.1805  0.1817
14032W        W18432   1.192   7.507  20.316 -0.2880 -0.1175  0.1152
14033W        W18433  21.737   0.239   1.313 -0.1461  0.0109 -0.0836
14034W        W18434   1.960   1.239  26.166  0.3108 -0.0705 -0.2132
14035W        W18435  23.788   6.857  19.774 -0.1999 -0.1229 -0.0878
14036W        W18436   6.977   6.310  16.200 -0.1424 -0.0370  0.0073
14037W        W18437  15.728   1.850   4.059 -0.2377  0.0037 -0.0683
14038W        W18438  17.476   5.083  14.984  0.2467 -0.0552 -0.2654
14039W        W18439  26.311   6.485   6.659 -0.1285  0.1064  0.3654
14040W        W18440  21.575   0.723  14.761 -0.1359 -0.3106 -0.0772
14041W        W18441   4.768   1.537  20.271  0.1053 -0.3143  0.1632
14042W        W18442  18.247   3.805   8.292  0.3197  0.1185  0.0741
14043W        W18443  27.163   4.497  25.639 -0.0133 -0.1660  0.0817
14044W        W18444  16.523   2.673   1.319  0.2442 -0.0301  0.3266
14045W        W18445   7.863   5.224   4.125 -0.3304  0.1809  0.0416
14046W        W18446  12.229   6.649   0.398  0.3599  0.0885  0.2600
14047W        W18447  17.564   6.167  16.034 -0.0529  0.2298 -0.1114
14048W        W18448   0.263   4.913  11.405  0.3302 -0.0695 -0.1240
14049W        W18449  16.546   4.036   9.255  0.0947  0.1165  0.0305
14050W        W18450  26.422   6.769  15.518  0.0163 -0.0305 -0.1181
14051W        W18451  21.428   4.791  19.675 -0.4493  0.2932 -0.0984
14052W        W18452  10.231   7.648  10.027 -0.1307 -0.0927  0.1123
14053W        W18453  22.188   2.216  19.150  0.1011  0.1431  0.0266
14054W        W18454   2.330   5.667  16.685  0.0282  0.0698  0.0540
14055W        W18455  28.535   2.097   8.818 -0.1839  0.2129 -0.1593
14056W        W18456   7.362   3.574  26.033  0.3019  0.1428 -0.0566
14057W        W18457   6.366   7.477  10.044 -0.0739  0.0283 -0.2409
14058W        W18458  21.557   7.750   1.807  0.0926  0.1149 -0.4339
14059W        W18459   7.739   4.292  20.458  0.0965  0.1630 -0.1515
14060W        W18460  12.845   2.354   9.814  0.0525 -0.0303  0.0617
14061W        W18461  16.135   1.829  17.293 -0.1022 -0.1106 -0.1352
14062W        W18462   4.686   4.886  21.802  0.2086 -0.0396 -0.1432
14063W        W18463  18.100   4.233  23.379 -0.5643 -0.1295 -0.0137
14064W        W18464   1.456   4.505  18.462 -0.0578  0.0530 -0.1077
14065W        W18465  18.982   6.134  20.127  0.1680 -0.2561 -0.1755
14066W        W18466  13.048   6.780  21.997 -0.0864 -0.1640  0.3579
14067W        W18467   8.089   2.817  25.413  0.1342 -0.2769  0.2680
14068W        W18468  17.832   4.975   7.818 -0.0038  0.3859 -0.3354
14069W        W18469  26.771   2.848  21.660  0.0525  0.0003  0.5974
14070W        W18470  25.883   2.249   6.050  0.2474 -0.0660  0.0050
14071W        W18471  17.467   1.266   6.837  0.2611  0.1070 -0.1630
14072W        W18472  14.676   5.682  23.614 -0.0473  0.0482  0.1172
14073W        W18473  14.768   2.833  16.734 -0.1996 -0.1087  0.0639
14074W        W18474  20.465   4.523   2.829  0.0644 -0.0052 -0.0521
14075W        W18475   4.743   5.753  23.608  0.1279 -0.2619 -0.0300
14076W        W18476  20.738   3.304  21.138  0.2205  0.0371 -0.1766
14077W        W18477  11.931   4.822  17.894  0.1295  0.0888 -0.0112
14078W        W18478  23.732   5.301  25.934  0.2802 -0.0145  0.0249
14079W        W18479  23.600   1.694   3.023  0.0399  0.0494 -0.0334
14080W        W18480   0.003   1.388   3.289  0.1894 -0.1233  0.1504
14081W        W18481  12.547   2.907  19.671  0.2238 -0.0321  0.1225
14082W        W18482  13.132   6.557   4.362  0.1565 -0.0887 -0.3326
14083W        W18483  30.197   7.503   5.726  0.2719 -0.0654  0.2398
14084W        W18484  16.376   0.522  23.516  0.1148  0.2813 -0.0190
14085W        W18485  28.636   3.671   8.451  0.0674  0.0678  0.1820
14086W        W18486  27.200   5.569   9.451  0.0599 -0.3688  0.2390
14087W        W18487  27.002   0.000   1.788  0.2365  0.1147 -0.2453
14088W        W18488   2.359   5.854   4.874 -0.3533 -0.3803  0.1441
14089W        W18489  16.893   5.155  18.231  0.1390 -0.0297 -0.1285
14090W        W18490  30.754   7.083   4.690  0.3276 -0.2004 -0.0056
14091W        W18491  29.833   5.307  18.965 -0.0414  0.2255  0.1460
14092W        W18492  19.387   1.456   3.444  0.0819 -0.0121 -0.2019
14093W        W18493   6.891   4.987   1.907  0.0743  0.0968 -0.0337
14094W        W18494  18.249   6.171  21.458  0.1205 -0.1155  0.0589
14095W        W18495   5.900   6.150   6.241  0.2580  0.0207 -0.0623
14096W        W18496  18.685   4.758   1.300  0.1402 -0.1060  0.1650
14097W        W18497   6.216   5.284  17.175 -0.1053  0.0573 -0.1372
14098W        W18498  20.574   3.786  21.557  0.1071 -0.0062 -0.1172
14099W        W18499   0.599   3.983  22.997 -0.1958 -0.0066 -0.1059
14100W        W18500   7.041   1.927  25.794  0.2633  0.0548  0.4439
14101W        W18501  12.395   0.112  21.334  0.0898 -0.0670  0.2305
14102W        W18502   4.534   7.739  18.631 -0.1704  0.0354 -0.2538
14103W        W18503   2.012   6.951  18.515  0.0231  0.0685 -0.1899
14104W        W18504  24.427   7.437   6.169  0.0444 -0.0093  0.1994
14105W        W18505  15.841   1.821  23.545 -0.0382  0.4716  0.1258
14106W        W18506   0.336   5.668  19.153 -0.1623  0.0387  0.1139
14107W        W18507  11.288   2.233   5.123  0.0293  0.0048  0.2552
14108W        W18508  28.443   6.387  15.063  0.0038  0.1068 -0.0025
14109W        W18509   6.970   4.436  18.509  0.0822  0.3921 -0.2730
14110W        W18510  16.673   2.424   9.187 -0.1191 -0.0079  0.1285
14111W        W18511  16.338   6.275  25.140 -0.3070  0.2631  0.3539
14112W        W18512  24.531   5.440   4.735 -0.0012  0.1367  0.1522
14113W        W18513  21.642   5.725  20.900 -0.1396  0.0110 -0.1021
14114W        W18514  15.780   1.709  16.545 -0.0537  0.0337  0.3466
14115W        W18515   0.313   5.431  10.058 -0.0688 -0.2608  0.0446
14116W        W18516  21.118   3.137  16.154 -0.0300  0.2114 -0.1152
14117W        W18517  29.441   0.462  22.168 -0.1615 -0.0252 -0.1988
14118W        W18518   5.945   3.263   2.236 -0.1928  0.3495  0.0521
14119W        W18519  29.565   2.146   0.653  0.0033 -0.0321  0.0580
14120W        W18520   9.752   0.424  22.429 -0.0080 -0.3506 -0.0366
14121W        W18521   3.141   5.625  22.721 -0.0083 -0.0568  0.1640
14122W        W18522  23.710   3.393  24.867  0.0238  0.1916  0.1346
14123W        W18523  21.904   7.071  20.668  0.1243 -0.1162 -0.0282
14124W        W18524  29.843   3.292  23.408  0.0479 -0.1469 -0.0123
14125W        W18525  18.268   3.082   6.976  0.0168 -0.1309  0.0099
14126W        W18526  10.136   4.229   3.899  0.2042  0.1330  0.0860
14127W        W18527  17.010   4.967   2.535 -0.0736  0.2087 -0.1735
14128W        W18528  24.313   0.899  21.656 -0.3370 -0.2143  0.1825
14129W        W18529  24.012   2.084  18.827  0.1875  0.3037 -0.0096
14130W        W18530  24.364   3.684  10.199  0.2377  0.0974 -0.3388
14131W        W18531  21.378   3.641   4.004 -0.1804  0.0864 -0.0794
14132W        W18532  27.732   6.217  17.022  0.4089 -0.0800 -0.0597
14133W        W18533   5.880   2.641  21.465  0.2791  0.3748 -0.1016
14134W        W18534  15.136   6.151  24.506 -0.1489  0.0269 -0.3193
14135W        W18535  25.751   1.462  19.681 -0.0072  0.1779  0.0614
14136W        W18536   0.359   2.666  18.897 -0.2774  0.1032 -0.1057
14137W        W18537  19.969   5.279  17.434  0.1115 -0.0021  0.0192
14138W        W18538  15.906   3.048   1.416 -0.5399  0.0937  0.2875
14139W        W18539  31.107   3.580  10.090  0.0058 -0.2116  0.1285
14140W        W18540  29.495   1.625  18.205  0.2176  0.0760 -0.0049
14141W        W18541   5.726   0.189  11.068  0.1164  0.2119  0.0225
14142W        W18542  27.487   5.381   5.768 -0.3051 -0.0212  0.0590
14143W        W18543  18.474   4.277  18.215 -0.0039 -0.3711 -0.0016
14144W        W18544  10.945   7.483  25.796 -0.0601  0.2411 -0.1929
14145W        W18545  18.330   6.513   9.788  0.1322 -0.1986 -0.1238
14146W        W18546  10.794   7.294  19.946 -0.0146 -0.1299  0.2291
14147W        W18547  16.590   1.995  17.429 -0.0339  0.0336  0.0599
14148W        W18548  26.962   5.683  17.178 -0.0001 -0.0394  0.0178
14149W        W18549  23.753   4.683  25.953 -0.0752  0.0423 -0.0185
14150W        W18550  21.684   6.304  25.816  0.2341  0.2590  0.0822
14151W        W18551  24.071   2.325   8.022  0.4170 -0.4404 -0.2286
14152W        W18552  27.138   6.426   4.696 -0.0019 -0.0221  0.1921
14153W        W18553   2.787   6.785   5.958 -0.0522 -0.0956  0.0859
14154W        W18554  20.324   5.784   5.999  0.3273 -0.1496 -0.0336
14155W        W18555   8.391   3.380  23.963 -0.0020 -0.0499 -0.0802
14156W        W18556  25.381   7.203  23.182  0.2141 -0.0103  0.0019
14157W        W18557  14.796   5.666  23.064  0.1529  0.0600  0.1547
14158W        W18558  21.477   4.269   8.137 -0.0763 -0.0797  0.4015
14159W        W18559   4.290   1.322  22.494 -0.0055 -0.0371 -0.0485
14160W        W18560   5.663   2.880  25.443  0.3273 -0.1180  0.1504
14161W        W18561  22.024   7.616  21.398 -0.1681  0.1705  0.0146
14162W        W18562  21.894   3.668   6.307 -0.3398  0.2262  0.1227
14163W        W18563  26.427   0.229  19.172  0.4999 -0.0034  0.2163
14164W        W18564  14.658   7.085   3.768  0.0089  0.0654 -0.2687
14165W        W18565  28.374   5.032  21.592 -0.0260 -0.1735 -0.3069
14166W        W18566  25.116   1.023  15.804 -0.2710  0.1207  0.1632
14167W        W18567  23.497   2.376   4.354 -0.0677 -0.4841 -0.3391
14168W        W18568  19.736   6.473   4.983  0.2072 -0.1441 -0.0778
14169W        W18569  18.034   4.384  18.725  0.1175 -0.2347  0.0909
14170W        W18570  19.757   4.086  16.844 -0.1104 -0.0683  0.1887
14171W        W18571  24.720   6.170  17.393 -0.1539 -0.2168  0.1913
14172W        W18572  22.279   7.615  24.694  0.1434  0.0331  0.2816
14173W        W18573  30.726   3.113  16.762 -0.3148 -0.0154 -0.2480
14174W        W18574  16.903   6.026   0.431 -0.2007  0.4022  0.0882
14175W        W18575  12.078   5.103   1.758 -0.1455 -0.1104 -0.2536
14176W        W18576   4.515   5.665  19.388  0.0165  0.1866  0.0639
14177W        W18577  12.806   4.588   5.462  0.1622  0.1980  0.0594
14178W        W18578  30.123   3.977  24.646  0.0718  0.0719  0.4226
14179W        W18579  20.278   0.984  21.606 -0.2028 -0.2874  0.1552
14180W        W18580  21.595   5.518   4.385  0.0152  0.0620 -0.1372
14181W        W18581  27.667   0.562  24.113 -0.0652  0.1719  0.3416
14182W        W18582  22.029   5.451   8.165 -0.1366  0.2143 -0.0137
14183W        W18583  28.609   1.713  16.894 -0.0376 -0.1809 -0.0977
14184W        W18584  22.528   4.032  25.200  0.0540 -0.3195  0.0414
14185W        W18585  11.854   5.557   1.544 -0.0754  0.1098 -0.0747
14186W        W18586  14.140   2.677   1.949  0.0144  0.1374 -0.1907
14187W        W18587   4.189   3.232   5.432  0.1640 -0.1092 -0.1999
14188W        W18588   4.330   2.113  10.969 -0.1232 -0.0908 -0.2012
14189W        W18589  26.566   1.475   9.443  0.2269  0.2377 -0.1669
14190W        W18590  15.269   4.492  20.620 -0.0398 -0.0901  0.1815
14191W        W18591  18.732   4.175  22.060 -0.1442 -0.0104 -0.1086
14192W        W18592   2.706   7.663  20.555  0.1493  0.2712 -0.1267
14193W        W18593  25.069   4.067  15.810 -0.0525  0.0429 -0.1722
14194W        W18594  30.904   0.967  16.903 -0.2280  0.2228 -0.0856
14195W        W18595   6.781   5.737   4.696 -0.0257  0.3192 -0.1709
14196W        W18596   5.786   0.588   7.952 -0.1553 -0.1611  0.1223
14197W        W18597   2.383   5.623  21.990 -0.1030  0.1872 -0.1520
14198W        W18598  26.583   4.640  15.431  0.0798 -0.3059  0.1193
14199W        W18599  15.111   4.346  23.834  0.0726  0.1610 -0.0693
14200W        W18600  22.918   3.190  25.977  0.0316 -0.2376 -0.0835
14201W        W18601  20.999   1.806   8.835 -0.0980 -0.3102  0.3425
14202W        W18602  15.101   0.349   0.097 -0.0815  0.0367  0.0088
14203W        W18603  22.771   7.426   5.417  0.3416  0.0102  0.1979
14204W        W18604  27.404   6.896  15.306  0.0357 -0.0328  0.2379
14205W        W18605  24.280   2.453   1.863 -0.3073 -0.3014 -0.0075
14206W        W18606  14.512   2.627  18.985 -0.1595  0.0174 -0.0038
14207W        W18607  16.556   6.887   2.039  0.4530 -0.0338  0.0176
14208W        W18608  17.439   7.673   3.207  0.1487  0.2450 -0.0051
14209W        W18609  13.754   4.850   8.081  0.1237  0.4575 -0.0640
14210W        W18610   6.350   1.011  10.770 -0.1818  0.0112 -0.1090
14211W        W18611  19.058   5.073  20.441 -0.0281  0.0240 -0.4928
14212W        W18612  18.156   3.561  25.639  0.1830  0.3497  0.1504
14213W        W18613  19.729   3.132  15.678 -0.1316  0.2668  0.2079
14214W        W18614  28.750   1.153  23.633 -0.1980 -0.0120 -0.0052
14215W        W18615   6.283   3.945  10.152 -0.0834 -0.1189 -0.2430
14216W        W18616   8.672   5.972  16.081  0.4288  0.0599  0.0098
14217W        W18617  21.543   1.024   3.788 -0.1090  0.0962 -0.1873
14218W        W18618   7.344   3.540   5.869  0.0772 -0.1911  0.0173
14219W        W18619  30.544   1.169  25.727 -0.2201  0.0651 -0.1748
14220W        W18620   4.496   4.875   7.802  0.0390  0.2201  0.0300
14221W        W18621   0.179   5.011  16.360 -0.1906 -0.0943 -0.0119
14222W        W18622  28.479   4.832   6.538 -0.1408  0.2145  0.1491
14223W        W18623  25.966   4.714   9.915  0.2906 -0.0710 -0.2278
14224W        W18624  24.824   4.437   6.705 -0.0930 -0.1959 -0.0573
14225W        W18625   8.486   5.675   5.919 -0.1619 -0.0027  0.1891
14226W        W18626   0.290   0.374  23.264  0.1894 -0.0006 -0.1031
14227W        W18627   1.203   6.982  23.170 -0.0321 -0.2141  0.3550
14228W        W18628  21.571   1.247  20.676  0.2413  0.1098 -0.0915
14229W        W18629  14.367   4.353  16.621 -0.0280 -0.0720 -0.2561
14230W        W18630  22.585   2.815  19.804 -0.2567 -0.0354 -0.1338
14231W        W18631   4.803   2.928  25.477  0.1804  0.2195  0.2153
14232W        W18632   6.211   3.133  20.904  0.0676  0.1731 -0.1657
14233W        W18633  28.593   7.105   3.316  0.0151  0.3593 -0.0846
14234W        W18634   3.122   0.455  24.327 -0.1729  0.0680  0.2050
14235W        W18635  21.314   6.747  18.930  0.1825  0.2055  0.0169
14236W        W18636  19.501   6.789   9.107 -0.0662 -0.1287 -0.2860
14237W        W18637  16.458   4.409   4.083  0.2793  0.1338 -0.2744
14238W        W18638  23.311   3.965  20.241  0.2059  0.3740 -0.1880
14239W        W18639  19.424   0.875   6.730 -0.0259  0.2324  0.0840
14240W        W18640  16.085   1.985  16.808 -0.2849 -0.2059 -0.0463
14241W        W18641  20.830   4.250  25.052  0.0703 -0.0150  0.0636
14242W        W18642  20.287   2.290  15.937  0.0717 -0.0859  0.0363
14243W        W18643  28.047   2.968  25.895  0.1490 -0.1369 -0.0232
14244W        W18644  10.837   5.007  21.149  0.0788  0.0595  0.1966
14245W        W18645  17.295   2.384   0.526 -0.0866  0.0206  0.1083
14246W        W18646  23.192   4.700  17.485 -0.0915  0.1543 -0.0536
14247W        W18647  25.197   2.975   5.382 -0.0737 -0.2510 -0.3260
14248W        W18648   9.279   4.376  24.626 -0.0807 -0.2197  0.0024
14249W        W18649  11.980   1.406   6.311  0.2972 -0.0125 -0.1879
14250W        W18650  28.889   0.629  21.428  0.0853  0.1570  0.0125
14251W        W18651  23.040   6.030   1.927 -0.3092 -0.0316  0.0773
14252W        W18652  20.192   1.695   0.746 -0.1448  0.1728 -0.0289
14253W        W18653   2.632   3.674  24.274  0.0698 -0.0199  0.0674
14254W        W18654  19.825   7.244   5.457 -0.2672  0.0599 -0.1340
14255W        W18655  28.161   3.729   4.072 -0.1780  0.0352 -0.0755
14256W        W18656   9.924   4.473   3.438  0.2805 -0.1184  0.1558
14257W        W18657  10.760   5.444  24.633 -0.1211  0.3594 -0.0291
14258W        W18658  22.013   0.574  15.532 -0.1984 -0.0805  0.2716
14259W        W18659  22.459   5.992   2.202  0.1072  0.1714  0.1361
14260W        W18660   5.229   5.195  24.851  0.1399  0.0283  0.4429
14261W        W18661  23.718   5.925   4.340 -0.0477  0.0461 -0.0814
14262W        W18662  18.204   2.199  20.194  0.1909 -0.0885  0.0960
14263W        W18663   1.061   3.436   0.187  0.0439  0.1485  0.0370
14264W        W18664   1.919   2.222   5.598  0.0028  0.2546  0.1126
14265W        W18665  14.492   5.726  10.567 -0.1006  0.2635  0.2321
14266W        W18666  17.866   2.124  22.732 -0.0453  0.2953 -0.0174
14267W        W18667  24.876   1.172   8.157  0.2584 -0.0036  0.0318
14268W        W18668  11.786   2.388  22.124 -0.1134  0.1437 -0.2876
14269W        W18669   9.099   0.334   3.039  0.1138 -0.1920 -0.1126
14270W        W18670  19.322   0.523  23.850 -0.0920  0.0339  0.1674
14271W        W18671  13.888   2.470   6.634 -0.1938 -0.1069  0.2928
14272W        W18672   3.462   2.982  20.676 -0.0005 -0.2905 -0.2096
14273W        W18673  25.675   0.412   1.620 -0.1583 -0.1608  0.1655
14274W        W18674   6.623   6.605   9.644 -0.1941 -0.1133  0.1249
14275W        W18675  19.634   5.270  15.889 -0.1618  0.0333 -0.2172
14276W        W18676  18.371   2.472   1.183  0.1430 -0.3244 -0.0128
14277W        W18677  25.591   2.056   3.663  0.2710  0.0182 -0.1349
14278W        W18678  17.845   2.126  17.150 -0.0121  0.0427  0.1542
14279W        W18679   2.375   3.738  16.875  0.1112  0.0262 -0.0487
14280W        W18680   4.041   0.693  23.263  0.0318  0.1143  0.1172
14281W        W18681   8.233   7.352   0.794  0.1653 -0.2850  0.0856
14282W        W18682  30.270   5.382   8.728 -0.1932  0.1062  0.2782
14283W        W18683  26.264   0.869  16.757 -0.0201 -0.0258 -0.1175
14284W        W18684  27.883   2.791  16.116  0.1729 -0.0236  0.2442
14285W        W18685  21.519   5.536  22.576 -0.2934 -0.1945  0.0496
14286W        W18686  18.560   1.465  17.138  0.0227  0.3150 -0.0680
14287W        W18687  29.083   5.070  20.567  0.0388 -0.0563 -0.0720
14288W        W18688  25.346   0.718  10.802 -0.0596  0.0284 -0.1481
14289W        W18689   7.239   5.123  10.714 -0.0319 -0.0249  0.1199
14290W        W18690   4.039   7.239   1.117  0.1102 -0.0912  0.4445
14291W        W18691  12.825   3.504   9.562  0.1987 -0.0553 -0.2766
14292W        W18692   1.553   2.490   6.994 -0.0091 -0.1467  0.3224
14293W        W18693   3.041   6.593   3.504  0.0234  0.3151 -0.1024
14294W        W18694  17.023   3.122  21.898  0.1334 -0.1126  0.0090
14295W        W18695   1.409   5.788  16.566  0.1524  0.2900 -0.0613
14296W        W18696   6.129   3.460   3.299 -0.0598  0.3124  0.1043
14297W        W18697  23.879   3.431  21.966  0.1178  0.0494 -0.0218
14298W        W18698  27.066   4.658   9.605  0.2406  0.2643 -0.0404
14299W        W18699  13.397   3.985  18.868  0.1453  0.0283  0.3199
14300W        W18700  17.882   4.466   0.805  0.1009 -0.0005 -0.0810
14301W        W18701  23.930   0.293  23.991 -0.0051 -0.1258 -0.2450
14302W        W18702   1.777   7.091  17.259  0.1147  0.1341  0.2427
14303W        W18703  16.219   4.829  16.031  0.0927  0.1939  0.1950
14304W        W18704   9.369   6.646  21.719  0.0257  0.2438  0.2450
14305W        W18705  10.587   4.820  17.953 -0.1195  0.1133 -0.3300
14306W        W18706  15.511   1.659  10.092  0.2642 -0.0349  0.1152
14307W        W18707   1.227   3.143  21.423 -0.5243 -0.0477 -0.2205
14308W        W18708  19.993   3.653  25.285 -0.0948 -0.1397  0.2122
14309W        W18709   6.925   4.348  11.377 -0.1972  0.0239  0.0907
14310W        W18710  20.262   3.742  18.229  0.0220  0.0866 -0.2052
14311W        W18711  14.007   5.041   3.909  0.0120  0.1283  0.5142
14312W        W18712  26.804   6.759   0.265 -0.2972 -0.0534 -0.1624
14313W        W18713  23.866   1.351  20.962  0.3152  0.1149 -0.0765
14314W        W18714   3.564   1.788   0.684  0.3504 -0.1232  0.1213
14315W        W18715  21.253   3.675   7.821 -0.1867  0.0027  0.1318
14316W        W18716   5.404   2.031  18.704 -0.1502 -0.2683 -0.3838
14317W        W18717  31.222   2.583   6.770  0.0706  0.1265 -0.1072
14318W        W18718   7.754   0.592  22.622  0.0594  0.0302 -0.5974
14319W        W18719   3.328   6.098   4.406  0.2077 -0.3922 -0.4645
14320W        W18720   9.424   7.497  22.437 -0.1209  0.0797  0.2572
14321W        W18721  31.239   0.244   1.324 -0.1357 -0.0050 -0.0482
14322W        W18722  20.692   1.194   4.041  0.3908  0.0274 -0.0037
14323W        W18723  22.275   3.510   1.214  0.1317 -0.0984  0.0565
14324W        W18724  20.066   1.185   8.050  0.0859  0.3540 -0.0049
14325W        W18725   1.803   4.173   3.731  0.0685  0.4530  0.0884
14326W        W18726  28.279   4.551  16.912  0.2572  0.0387 -0.0592
14327W        W18727  12.070   2.724  19.712 -0.2767  0.4103 -0.1322
14328W        W18728   6.316   2.686  20.709 -0.2281  0.1288  0.2828
14329W        W18729   6.839   5.927   9.315 -0.0809 -0.1883 -0.0183
14330W        W18730  15.774   2.506  19.791  0.0547 -0.1195 -0.2888
14331W        W18731   8.919   4.521  18.460  0.0460  0.0244  0.2061
14332W        W18732   4.975   1.336  10.743 -0.2017  0.1005  0.0820
14333W        W18733   9.009   4.642  15.109  0.3229 -0.0798 -0.2503
14334W        W18734  19.045   0.638   9.479 -0.1332 -0.2971 -0.1482
14335W        W18735  18.972   1.812   9.819 -0.1672 -0.0011 -0.5005
14336W        W18736  12.125   6.260  22.875 -0.0740  0.0026 -0.1261
14337W        W18737  14.862   1.540  15.220 -0.1045 -0.1007  0.0433
14338W        W18738   5.444   5.756  15.972  0.1205  0.1663 -0.2684
14339W        W18739  27.891   6.220   5.952  0.0216 -0.1331  0.1588
14340W        W18740   5.753   4.212  25.645  0.1114 -0.1109  0.3016
14341W        W18741  25.532   1.100   0.586 -0.1682 -0.2436 -0.1342
14342W        W18742   0.846   0.687   8.269  0.2065 -0.0699 -0.0633
14343W        W18743  24.953   4.233   2.544  0.2599  0.1759 -0.0517
14344W        W18744  22.105   0.539   6.418 -0.0647 -0.2128  0.2637
14345W        W18745  13.829   1.545  19.990 -0.0148  0.1337  0.3794
14346W        W18746  18.099   4.573  21.221  0.1229 -0.4422 -0.0038
14347W        W18747   0.261   2.633   9.317 -0.1180 -0.0789  0.0754
14348W        W18748  12.204   1.545   9.922 -0.0609 -0.3923  0.0555
14349W        W18749  26.511   0.540   7.740 -0.0357  0.2730 -0.0719
14350W        W18750  30.589   3.019  10.225  0.2796  0.0337 -0.1541
14351W        W18751  12.178   4.615  16.679 -0.1872  0.1128  0.1872
14352W        W18752  16.975   0.906   9.014 -0.0514  0.0286  0.4450
14353W        W18753  12.933   2.117  23.653  0.0841  0.1640  0.1474
14354W        W18754  30.729   2.706  18.571  0.1439 -0.0218 -0.1502
14355W        W18755   6.372   7.031   9.636  0.2323 -0.2579  0.2252
14356W        W18756  11.985   5.817  10.019  0.1486 -0.2004 -0.2621
14357W        W18757  17.650   1.878  14.608  0.2494 -0.1312  0.0726
14358W        W18758  27.860   2.065  21.721 -0.2270 -0.2018 -0.0969
14359W        W18759  30.209   6.643   4.415  0.2676  0.1916  0.0108
14360W        W18760  22.868   5.144  23.167 -0.0384  0.1613  0.4231
14361W        W18761  21.701   7.805  17.124 -0.1069  0.2697 -0.1546
14362W        W18762  31.056   2.157  16.740 -0.1266  0.1622 -0.0144
14363W        W18763   5.447   4.526  20.451  0.0569 -0.3939 -0.1814
14364W        W18764  26.626   4.746  16.942 -0.1654 -0.1469 -0.1862
14365W        W18765  18.378   1.598  18.394 -0.0286 -0.0925 -0.4488
14366W        W18766  23.383   6.170   2.256 -0.0867 -0.2514  0.0899
14367W        W18767   9.006   7.308   9.619 -0.3630  0.0643  0.0518
14368W        W18768  13.138   3.473   5.939  0.2039  0.0815 -0.0305
14369W        W18769  27.795   2.549  24.896 -0.0048  0.2724  0.2361
14370W        W18770  10.264   0.609  10.277 -0.2638  0.2438 -0.1574
14371W        W18771  23.579   5.201   7.907 -0.3594  0.2883 -0.1497
14372W        W18772  21.880   7.192  23.747  0.1312  0.1957  0.1606
14373W        W18773  11.327   7.589  16.250  0.0082  0.0880  0.1008
14374W        W18774  10.809   5.136  15.471 -0.0716 -0.1295 -0.2638
14375W        W18775  29.123   7.131  23.783  0.1055 -0.1514  0.0498
14376W        W18776  18.270   0.981  22.238  0.1225 -0.1450  0.0878
14377W        W18777  15.623   6.737  17.837 -0.1742  0.0972  0.1043
14378W        W18778  24.359   4.646  22.520  0.0606 -0.2999  0.0453
14379W        W18779  14.002   1.111  25.746  0.1843  0.0507 -0.1346
14380W        W18780  31.128   2.669  22.993 -0.1509  0.1529  0.0064
14381W        W18781   9.404   4.302  11.020 -0.2861 -0.1098 -0.0627
14382W        W18782  22.531   2.197   9.818  0.2325 -0.2315 -0.0084
14383W        W18783  25.754   4.655   0.598  0.0422  0.1371  0.1715
14384W        W18784  19.696   0.514   0.019 -0.1699 -0.3225 -0.1880
14385W        W18785  27.670   5.021  21.213 -0.1214  0.0709  0.2566
14386W        W18786  25.193   2.980   7.395  0.3235  0.1556  0.0894
14387W        W18787  10.860   3.156  22.398  0.3893  0.3389  0.0489
14388W        W18788  24.942   3.689  17.231 -0.0605 -0.0746  0.0334
14389W        W18789  17.723   1.375  23.560 -0.2641  0.0700  0.2096
14390W        W18790  20.722   0.361  21.447  0.2211  0.0990 -0.2284
14391W        W18791   5.122   0.163   9.553 -0.1325  0.0279  0.0252
14392W        W18792  21.840   7.330   9.554  0.1198  0.0361 -0.1840
14393W        W18793  26.913   2.205   6.309  0.0405 -0.1497  0.1447
14394W        W18794  12.187   0.751  10.334  0.0068  0.2368 -0.1454
14395W        W18795  28.614   3.133   7.083 -0.1532  0.1078 -0.1204
14396W        W18796   4.555   2.871   1.811 -0.3253  0.3247 -0.0698
14397W        W18797  30.760   1.594  21.230 -0.0099 -0.1052  0.1385
14398W        W18798  18.171   6.636   3.950  0.1123  0.1095  0.2935
14399W        W18799   6.189   5.847   9.098  0.0435  0.3001  0.1568
14400W        W18800  25.804   4.715  17.090 -0.1162  0.0721 -0.0399
14401W        W18801  29.168   3.788   4.297  0.1298 -0.0271 -0.2025
14402W        W18802  26.785   2.440   8.714  0.1401 -0.0671  0.1777
14403W        W18803  22.218   1.314  10.213 -0.0085  0.2394 -0.0453
14404W        W18804  28.334   2.720   7.837  0.2199  0.1862  0.0121
14405W        W18805   7.255   3.948  24.901  0.0630  0.0577  0.0094
14406W        W18806  18.057   7.045   9.976 -0.0603 -0.1056 -0.2369
14407W        W18807  30.020   0.970  23.719  0.0950  0.3096  0.1545
14408W        W18808   3.456   1.642   5.995 -0.1067 -0.4146 -0.0530
14409W        W18809  17.072   0.133  15.724 -0.1382 -0.2247  0.2525
14410W        W18810   2.346   7.466   6.708 -0.1490 -0.2461  0.1822
14411W        W18811  11.690   2.336  20.108 -0.0301  0.0071 -0.1333
14412W        W18812  23.946   0.885   9.834  0.1774 -0.0947  0.2247
14413W        W18813  19.039   5.259   0.886 -0.3247 -0.2195  0.2811
14414W        W18814  30.629   5.610   7.923  0.0314 -0.2202 -0.1915
14415W        W18815  16.393   0.477  16.060  0.1029 -0.0991  0.0438
14416W        W18816   0.024   1.880  15.822  0.1980  0.0172  0.1026
14417W        W18817   0.583   3.435  26.139  0.0574  0.0246  0.0034
14418W        W18818  13.168   1.630  22.117  0.3947 -0.0904  0.2482
14419W        W18819   1.999   2.294   8.969 -0.0381  0.0562  0.0803
14420W        W18820   2.849   0.664   5.120 -0.3592 -0.0278  0.1447
14421W        W18821  12.140   5.499   8.335 -0.0074 -0.0039 -0.0210
14422W        W18822   8.521   0.321  18.568  0.0571  0.1458  0.2105
14423W        W18823  17.601   4.092   9.569 -0.1738 -0.0524  0.1589
14424W        W18824  16.227   6.896  10.086 -0.1809 -0.0398  0.0435
14425W        W18825  23.182   6.574  14.693 -0.0245  0.0060  0.0787
14426W        W18826  28.151   5.987   0.611 -0.0335 -0.1024  0.0388
14427W        W18827  27.629   1.747   7.978 -0.1881 -0.0273  0.1072
14428W        W18828  14.023   3.496  23.323 -0.0101 -0.0674 -0.1158
14429W        W18829  27.313   5.297   7.882 -0.2287  0.0811  0.1273
14430W        W18830   5.988   3.956   3.563  0.3230  0.0539 -0.0850
14431W        W18831   5.570   3.516  23.537  0.0844 -0.0123  0.6346
14432W        W18832  15.964   0.604   2.874 -0.0290 -0.1011  0.1483
14433W        W18833   8.370   4.515   8.647  0.1859  0.1435 -0.2863
14434W        W18834  16.479   0.147   7.518  0.0039  0.2257  0.2511
14435W        W18835  10.654   4.315   5.367 -0.0037  0.0975 -0.0343
14436W        W18836  15.193   3.678  20.342  0.0712  0.2376  0.0189
14437W        W18837  12.827   1.252   1.851 -0.2829  0.1485 -0.0949
14438W        W18838  11.232   1.230  22.519 -0.2753  0.1611  0.0905
14439W        W18839  30.305   0.467  17.235 -0.0652 -0.1828 -0.0593
14440W        W18840   1.630   6.414   2.989  0.0572 -0.0457  0.0537
14441W        W18841  20.413   2.357  24.949  0.1378  0.0571 -0.2390
14442W        W18842   6.687   1.390  23.539  0.2588 -0.5602 -0.0284
14443W        W18843  15.015   0.608  23.931  0.0876 -0.0414 -0.1648
14444W        W18844  20.143   4.438   9.229  0.0918 -0.0567  0.1610
14445W        W18845  16.936   0.252  15.195  0.0050 -0.2466 -0.3089
14446W        W18846  28.838   0.477   2.801  0.1202  0.0613 -0.0423
14447W        W18847  10.707   5.115  19.920 -0.0533  0.0071  0.1484
14448W        W18848   9.607   2.539   4.706  0.3420 -0.1509 -0.2761
14449W        W18849  25.856   0.008  19.252  0.0859  0.0046 -0.3226
14450W        W18850  21.290   5.417   5.896 -0.1448  0.4061 -0.1586
14451W        W18851  10.081   4.716  17.333  0.1954 -0.2677  0.4555
14452W        W18852   5.756   3.370   3.838 -0.1538  0.1674 -0.0441
14453W        W18853  13.220   3.156  10.976 -0.3834 -0.1703  0.0927
14454W        W18854   9.693   0.450  23.979 -0.0899  0.2810  0.3911
14455W        W18855  20.363   4.292   4.292 -0.1084  0.1624  0.2727
14456W        W18856  16.784   4.459   0.529 -0.2456 -0.0613 -0.2802
14457W        W18857   2.941   3.082  22.025  0.2588 -0.2630  0.2837
14458W        W18858  10.469   1.606   5.472 -0.2942 -0.2889 -0.1827
14459W        W18859   4.893   3.030  23.598 -0.1322  0.1795 -0.4270
14460W        W18860  16.293   2.830   4.678  0.3070 -0.1620  0.1530
14461W        W18861  24.569   3.747  17.543  0.1046  0.1230 -0.2128
14462W        W18862  25.485   6.847   5.543  0.2769  0.1150 -0.1723
14463W        W18863   4.509   6.546  23.390 -0.1695 -0.0610  0.2574
14464W        W18864  26.643   3.297  19.822  0.0311  0.0566 -0.0825
14465W        W18865  10.141   0.634   3.790 -0.1528  0.1186 -0.2171
14466W        W18866  24.330   5.359  24.675 -0.2649 -0.3148 -0.2941
14467W        W18867  27.105   6.061  10.250 -0.1477 -0.0491 -0.0213
14468W        W18868   3.626   3.358  16.438  0.0942  0.0882  0.2010
14469W        W18869   0.063   7.501  17.148  0.0927  0.2844  0.2398
14470W        W18870   5.865   1.034  15.970 -0.1263  0.0189 -0.3596
14471W        W18871   8.072   2.741  20.074  0.1039 -0.0332  0.1433
14472W        W18872  20.951   4.558   3.177 -0.0500 -0.1399  0.2223
14473W        W18873  26.512   4.822  19.313  0.0680 -0.1115  0.2242
14474W        W18874  13.740   6.183  20.071  0.0778  0.1179 -0.2827
14475W        W18875  25.894   4.454   4.185 -0.0591 -0.0199 -0.0187
14476W        W18876  26.251   5.228   2.513 -0.1674  0.1767  0.0418
14477W        W18877  19.264   1.959   8.786  0.0110  0.0729  0.1943
14478W        W18878  11.262   4.344  10.180 -0.0104 -0.1986 -0.0696
14479W        W18879  10.525   0.151  16.135  0.0966  0.1651 -0.1310
14480W        W18880  22.841   6.809   8.372  0.0566  0.0998  0.3048
14481W        W18881  16.246   4.647   1.556 -0.0861 -0.3831  0.2621
14482W        W18882   7.047   6.118   2.914 -0.0081 -0.1161 -0.2538
14483W        W18883  11.923   0.016  19.397 -0.0545 -0.0398  0.1323
14484W        W18884  20.620   1.886  24.739  0.1620  0.0805  0.2080
14485W        W18885  19.037   7.545  17.804 -0.3033  0.3374 -0.0960
14486W        W18886  22.530   2.598  10.265 -0.1118  0.2351 -0.1567
14487W        W18887   8.133   0.019  21.185 -0.0110 -0.1551  0.1225
14488W        W18888   5.261   6.650  19.884 -0.1082 -0.1369 -0.2434
14489W        W18889   8.220   7.137   1.239 -0.1869  0.0858  0.0509
14490W        W18890  31.129   0.730  10.463  0.0771 -0.4802  0.0823
14491W        W18891   7.572   0.170   4.586  0.1890 -0.1188  0.0978
14492W        W18892  13.364   0.774  22.134 -0.0744  0.0393 -0.2547
14493W        W18893   8.559   7.489  22.261 -0.1582 -0.1757  0.2290
14494W        W18894  19.058   2.780   3.568 -0.2551  0.0389  0.4393
14495W        W18895  20.202   2.075  18.463  0.0524  0.0807  0.1512
14496W        W18896  20.825   1.067   8.333  0.4960 -0.0793  0.1363
14497W        W18897  24.696   2.832   1.528 -0.1586  0.1465  0.1692
14498W        W18898  25.140   4.904  15.676  0.1743 -0.1616  0.3194
14499W        W18899  17.613   3.297  20.285 -0.1803  0.3593 -0.0007
14500W        W18900  30.713   7.450   0.967  0.0698  0.6094  0.1875
14501W        W18901  11.572   6.552  24.386  0.0324  0.0971 -0.3412
14502W        W18902  27.443   2.838   0.801 -0.2317  0.2077 -0.2598
14503W        W18903  30.527   0.669   4.772 -0.4042 -0.0551 -0.0390
14504W        W18904  18.291   3.323  22.627 -0.1945 -0.0025 -0.2032
14505W        W18905  17.738   4.071  22.531  0.0896 -0.1731 -0.0998
14506W        W18906   7.221   3.721  23.491  0.0109 -0.0608 -0.2119
14507W        W18907  29.878   5.041   1.627  0.1350 -0.2704 -0.0652
14508W        W18908  19.472   5.564   2.743  0.1447 -0.3411 -0.1034
14509W        W18909  19.881   1.400   2.670  0.1154  0.1817 -0.1675
14510W        W18910   6.906   3.375  10.596  0.0394  0.0363 -0.1021
14511W        W18911   3.169   6.174  17.137 -0.2703 -0.3067  0.0853
14512W        W18912  11.813   4.383   0.678 -0.1317  0.1285  0.1375
14513W        W18913   2.578   3.039   9.950 -0.1857 -0.0856  0.2500
14514W        W18914  28.626   2.750   6.336 -0.1015  0.2274 -0.0681
14515W        W18915   8.860   1.944   5.038  0.2102 -0.3582  0.0800
14516W        W18916  22.817   2.971  16.413 -0.2533  0.2183  0.2284
14517W        W18917  13.065   1.835  19.381  0.2723  0.0753  0.4536
14518W        W18918  27.358   6.658   7.586  0.0188 -0.2962  0.4680
14519W        W18919  10.795   3.851   7.629  0.0656 -0.1367 -0.2800
14520W        W18920   2.258   1.681  21.114 -0.0143  0.0885  0.0846
14521W        W18921   2.903   4.420   5.942  0.3279 -0.0130 -0.1785
14522W        W18922  13.852   4.330  16.761 -0.1161  0.0622  0.0448
14523W        W18923  29.504   5.491  16.132 -0.1988  0.0593  0.1818
14524W        W18924  26.732   7.441  17.019 -0.0069  0.2404  0.0032
14525W        W18925  12.568   0.535  24.867 -0.0062  0.2049  0.2244
14526W        W18926  25.211   1.416   5.626  0.0997  0.0060  0.4441
14527W        W18927  26.328   4.090  18.775 -0.1986 -0.1629  0.1222
14528W        W18928  28.011   7.229  19.539 -0.0531  0.1542  0.1212
14529W        W18929  12.640   0.052   8.668  0.3453  0.0829 -0.0290
14530W        W18930   9.129   2.781  10.157 -0.1343 -0.1545  0.0972
14531W        W18931  27.467   7.448   6.266  0.2446 -0.1703 -0.1383
14532W        W18932  19.153   4.367   5.257  0.0302  0.3787  0.2151
14533W        W18933  17.435   4.737   1.692  0.2598 -0.1911  0.2110
14534W        W18934  11.235   5.034  22.207 -0.0797 -0.2131  0.1060
14535W        W18935   5.654   2.560  10.192 -0.0193  0.2169  0.0595
14536W        W18936   3.803   2.928   9.618 -0.1934 -0.0118  0.1049
14537W        W18937   2.839   5.441  25.108 -0.1181 -0.1653 -0.1008
14538W        W18938  12.834   7.345   4.297  0.1323 -0.2513 -0.2510
14539W        W18939  10.116   4.344  15.653 -0.2244  0.1094 -0.1444
14540W        W18940  29.990   6.239   0.708 -0.1041  0.0298  0.0821
14541W        W18941   6.048   2.541   3.578  0.0374  0.2927 -0.3005
14542W        W18942   4.672   0.395  15.974  0.1963  0.1655 -0.3569
14543W        W18943  17.315   3.431   6.414  0.2511  0.1981  0.0743
14544W        W18944  21.905   6.582   6.245 -0.2649 -0.1997 -0.0335
14545W        W18945   9.016   6.889   8.094  0.1850  0.0414  0.2381
14546W        W18946   2.555   5.458   3.044 -0.1175 -0.2282 -0.0010
14547W        W18947   4.856   6.170   8.716  0.3987  0.1319 -0.1628
14548W        W18948  18.699   1.035   7.537  0.0000  0.0413  0.0683
14549W        W18949  20.953   2.033   7.399 -0.0500  0.0133  0.1844
14550W        W18950  21.492   5.172  17.735  0.0297  0.0112 -0.2968
14551W        W18951  19.283   4.794   5.029  0.1430  0.0459 -0.1967
14552W        W18952   3.109   4.368  23.965  0.1829 -0.0893  0.2244
14553W        W18953  30.864   4.859  25.674  0.0813  0.0794 -0.0342
14554W        W18954  17.178   4.005  26.126  0.2793  0.0885  0.2760
14555W        W18955   7.251   5.212   4.083  0.1423  0.1582  0.0075
14556W        W18956  11.780   0.032   9.970  0.2231  0.1339  0.3109
14557W        W18957  12.234   4.483   6.143  0.0763  0.1435  0.1248
14558W        W18958   0.606   1.261  19.967 -0.0936 -0.0817  0.1430
14559W        W18959  19.048   7.476   7.136  0.2426  0.4319  0.1063
14560W        W18960   4.902   6.703  24.532 -0.0511  0.1617 -0.1034
14561W        W18961  26.111   6.675   7.650 -0.2542 -0.0386  0.0465
14562W        W18962   3.336   2.460  18.920  0.3287  0.0077  0.0596
14563W        W18963  17.433   4.326  25.059 -0.1635 -0.2704  0.1273
14564W        W18964  15.005   2.908  23.880 -0.1719  0.0540  0.3116
14565W        W18965  13.077   5.077  20.020 -0.1062  0.1713 -0.2605
14566W        W18966  15.697   7.003   2.414 -0.1001  0.0681  0.2554
14567W        W18967  16.251   2.750  18.383  0.0381  0.2615 -0.3003
14568W        W18968  17.627   2.706  23.073  0.1992 -0.1254 -0.1302
14569W        W18969  13.134   3.350  18.011 -0.0370  0.5242 -0.1338
14570W        W18970  14.241   3.908  10.504  0.1976  0.0137  0.1042
14571W        W18971  18.539   5.404  10.112  0.1112 -0.0683  0.2202
14572W        W18972  20.603   2.025  20.793 -0.1504  0.3701  0.0183
14573W        W18973   5.398   1.736   9.021  0.1061  0.2536 -0.0331
14574W        W18974  11.362   4.494   2.296  0.2083  0.0343 -0.0201
14575W        W18975   5.186   2.165  24.347  0.0490 -0.1651 -0.1239
14576W        W18976  16.858   1.389  24.897 -0.0571 -0.1605  0.0947
14577W        W18977  28.112   4.906   7.666  0.0760 -0.1128  0.0760
14578W        W18978   1.670   5.197  18.442 -0.3344 -0.1316  0.0375
14579W        W18979  11.810   6.310   8.049 -0.1999 -0.1016 -0.2439
14580W        W18980  29.740   4.954   8.972 -0.1264 -0.1183 -0.0437
14581W        W18981   2.660   5.880  16.296  0.3191  0.0009  0.0617
14582W        W18982   3.054   2.851   1.975 -0.0942  0.1642 -0.0839
14583W        W18983   8.874   7.395  15.717  0.0885 -0.0934 -0.3846
14584W        W18984  26.626   1.267  22.200  0.2008  0.2403  0.0013
14585W        W18985  24.704   2.566   2.103  0.1286  0.1299  0.3220
14586W        W18986  11.289   6.282   9.845  0.0067  0.0175  0.3206
14587W        W18987  13.345   1.320  18.326  0.2033 -0.3076  0.1449
14588W        W18988  21.864   7.809  17.740 -0.0604 -0.1081  0.0191
14589W        W18989   5.412   6.981  15.820  0.1270 -0.2949 -0.2272
14590W        W18990  11.421   2.119  17.263 -0.1036  0.0722 -0.1068
14591W        W18991  26.521   2.605   1.388  0.0767  0.0490  0.1201
14592W        W18992  14.672   2.120  16.608 -0.0651  0.2281 -0.1146
14593W        W18993   5.652   0.219   7.588 -0.0785 -0.0482  0.0037
14594W        W18994  19.164   4.892  21.983  0.1986 -0.1730 -0.0331
14595W        W18995   8.380   3.815   4.402  0.1019  0.0459 -0.0347
14596W        W18996  29.888   3.591   8.743 -0.2271 -0.0341  0.1805
14597W        W18997  29.873   5.848  16.730  0.1559  0.0427 -0.0384
14598W        W18998  12.415   2.126   1.923  0.2366 -0.0493 -0.2119
14599W        W18999  26.355   1.931   4.193  0.1756  0.1693  0.0397
14600W        W19000  28.572   0.490  23.162  0.3549  0.1979 -0.1028
14601W        W19001  16.474   3.177  19.752  0.2280 -0.0019  0.1349
14602W        W19002  17.306   5.489  18.393 -0.2584  0.0207  0.0992
14603W        W19003  26.298   6.477  20.529 -0.1021  0.0505  0.0129
14604W        W19004   0.366   0.574   8.492  0.0667  0.0415 -0.0794
14605W        W19005   2.712   4.270  24.320  0.0061  0.2048  0.1651
14606W        W19006   6.174   6.950  24.056  0.1835 -0.3769  0.0402
14607W        W19007   5.246   4.100   1.766  0.0935 -0.1112  0.2513
14608W        W19008  10.878   0.028  23.638 -0.2991 -0.1635 -0.0203
14609W        W19009   7.173   0.737  22.706  0.2662  0.2503  0.1748
14610W        W19010  15.143   3.201  24.519  0.0512 -0.2083  0.2072
14611W        W19011   9.658   0.974   4.525 -0.3864  0.3842 -0.0202
14612W        W19012  19.449   7.705  21.236  0.0125  0.2385  0.0065
14613W        W19013  21.932   1.701   9.049 -0.0549 -0.1189  0.0994
14614W        W19014  21.804   0.935  15.181 -0.0497 -0.0999 -0.3046
14615W        W19015  29.269   2.268  10.050 -0.0592  0.3554 -0.1942
14616W        W19016   1.933   0.110  20.784  0.1772  0.1821  0.0051
14617W        W19017  10.553   2.145  20.404 -0.0562  0.0154  0.0582
14618W        W19018   8.301   2.470   1.640 -0.3594  0.3125 -0.0625
14619W        W19019  26.326   0.375   2.065  0.1951  0.0198  0.1047
14620W        W19020  14.866   6.822  25.934 -0.1386  0.3326 -0.1599
14621W        W19021   6.923   4.704   1.150  0.1570  0.1625 -0.2522
14622W        W19022  13.263   4.461   4.058 -0.1842 -0.1481 -0.0242
14623W        W19023   1.373   1.921  21.359 -0.1085 -0.0076  0.2945
14624W        W19024  23.167   3.759   9.995  0.0476  0.0784  0.1512
14625W        W19025  10.353   1.758  20.658 -0.1739 -0.2535 -0.2489
14626W        W19026  29.849   3.369  18.319  0.0294  0.0818  0.1665
14627W        W19027   6.619   7.548   1.627 -0.1977 -0.1788 -0.1164
14628W        W19028  30.830   5.120  22.963  0.0408 -0.0400 -0.0357
14629W        W19029   6.077   1.913   1.130  0.0326  0.1265 -0.0103
14630W        W19030  10.438   3.242   6.864  0.0390  0.3819 -0.0433
14631W        W19031  19.944   3.061  21.677  0.1755  0.0472 -0.2025
14632W        W19032  31.217   2.578   9.668  0.1560 -0.1779  0.0046
14633W        W19033   4.667   5.783  18.599 -0.0779  0.1166 -0.0205
14634W        W19034   2.260   1.815  17.675 -0.0935  0.0233 -0.0249
14635W        W19035  27.012   7.546   4.372 -0.5179  0.3495  0.3049
14636W        W19036   7.451   1.154   7.710 -0.2161  0.3082 -0.1220
14637W        W19037  30.526   6.674  11.388  0.2572  0.0717 -0.0377
14638W        W19038  22.498   7.637  17.104 -0.3857 -0.0888  0.2418
14639W        W19039  10.600   0.453  21.702 -0.0540  0.0688 -0.1545
14640W        W19040  17.272   6.563  21.328 -0.2656  0.1062 -0.0298
14641W        W19041   8.537   2.688  16.823 -0.2476 -0.2795  0.1499
14642W        W19042   9.741   7.314   0.080 -0.2814  0.0600 -0.2052
14643W        W19043  14.570   2.918  17.810  0.3790 -0.3322 -0.0423
14644W        W19044  19.638   5.922  18.160 -0.0502 -0.4235 -0.0542
14645W        W19045  17.885   6.121  20.221 -0.1981  0.1447 -0.1791
14646W        W19046  23.168   0.653   9.248 -0.1774 -0.2012 -0.1243
14647W        W19047   3.704   1.268   1.006  0.1333  0.0723  0.4383
14648W        W19048   1.366   7.637  17.434  0.1393 -0.4685  0.1692
14649W        W19049  14.100   4.699  17.038  0.2474  0.1581  0.2434
14650W        W19050  18.608   1.398  18.838 -0.0886 -0.0609 -0.0885
14651W        W19051   8.906   5.909  21.838 -0.1254  0.0056  0.0480
14652W        W19052  11.060   7.359  24.259  0.1613 -0.0302  0.2354
14653W        W19053  18.098   6.631  14.966 -0.1061  0.1291 -0.0384
14654W        W19054  23.451   4.848  20.644 -0.3676  0.1226  0.2066
14655W        W19055  29.223   5.230   3.409 -0.2085 -0.1035 -0.0736
14656W        W19056  29.203   5.925  23.307  0.1081 -0.1424  0.1344
14657W        W19057   4.019   7.031  22.635 -0.1492  0.1052  0.1328
14658W        W19058  13.138   3.207  20.899 -0.2016  0.0332  0.0259
14659W        W19059  15.444   5.651   3.939  0.0390 -0.1747  0.2753
14660W        W19060  11.346   1.374   0.192  0.2154 -0.0720 -0.1272
14661W        W19061  27.281   3.948  15.865 -0.0323 -0.0280  0.2745
14662W        W19062  12.875   6.529   1.598  0.2624  0.1286 -0.1100
14663W        W19063  16.484   3.800   6.508  0.0772 -0.0935  0.0847
14664W        W19064  19.690   7.806  20.760 -0.1482  0.1629 -0.1098
14665W        W19065  27.354   6.840  16.459 -0.2518  0.0677  0.0230
14666W        W19066  17.629   3.928   7.788 -0.2145 -0.0929 -0.1525
14667W        W19067  17.897   1.488  21.193 -0.2073  0.0119  0.2177
14668W        W19068  25.228   1.646  24.549 -0.1398  0.1350 -0.0544
14669W        W19069  20.440   4.260   2.380  0.2523  0.0418 -0.0069
14670W        W19070  26.176   1.549   6.653 -0.1108  0.1858 -0.0931
14671W        W19071   2.542   0.622   6.039  0.1723  0.0394  0.0149
14672W        W19072   5.781   4.895  25.451  0.0523 -0.0956 -0.2802
14673W        W19073  13.380   4.333   4.910  0.0682 -0.0084  0.0023
14674W        W19074  20.054   3.780   0.157  0.1824 -0.0797  0.3307
14675W        W19075  22.822   1.442   0.052  0.0074 -0.0692 -0.2050
14676W        W19076  27.907   4.146  18.109  0.2386 -0.0334 -0.1375
14677W        W19077   1.031   0.894   0.938  0.2380  0.0976  0.0986
14678W        W19078   0.142   4.870  25.444  0.0918 -0.0706  0.1105
14679W        W19079   0.988   6.076  10.664  0.1378 -0.2695 -0.0851
14680W        W19080  28.618   6.344  19.391  0.1917 -0.0257 -0.0012
14681W        W19081   1.934   2.968   8.300  0.0053  0.0059 -0.2788
14682W        W19082  29.139   5.124   9.057  0.0152  0.2421 -0.0176
14683W        W19083  15.549   3.802  10.570  0.0576  0.1297  0.3030
14684W        W19084  19.482   3.254  10.059 -0.1795 -0.2313 -0.1964
14685W        W19085   4.499   5.992  15.971  0.0027 -0.0796  0.0111
14686W        W19086  28.272   4.698   2.788 -0.3255  0.0438 -0.0683
14687W        W19087   8.174   7.289  23.959  0.0753  0.2414 -0.2389
14688W        W19088  14.278   4.115   7.998 -0.4447  0.0085  0.4305
14689W        W19089   9.421   4.169  18.379  0.2689 -0.2054  0.2195
14690W        W19090  10.692   6.605   3.313 -0.3774 -0.1360 -0.3668
14691W        W19091  10.938   4.641   7.695  0.2494  0.0550  0.0620
14692W        W19092   4.234   7.576  18.231 -0.1500  0.0308 -0.3348
14693W        W19093  17.224   7.315  24.312 -0.0328 -0.3608  0.1167
14694W        W19094   6.195   3.289  10.448  0.1229 -0.0201  0.0980
14695W        W19095  24.446   4.666  21.966  0.3793  0.4667 -0.0903
14696W        W19096  14.554   4.067   8.901  0.2492 -0.0452 -0.1562
14697W        W19097  21.244   3.020  22.227 -0.3692  0.0161 -0.1251
14698W        W19098   3.747   3.386  20.959  0.1125 -0.0189  0.1414
14699W        W19099  31.248   5.028   4.713  0.2420  0.3836 -0.1807
14700W        W19100  16.092   3.342  23.243  0.1762 -0.3903 -0.1856
14701W        W19101  13.894   4.644   3.150  0.2266 -0.1351  0.0774
14702W        W19102  10.546   3.771  20.125  0.0886  0.3328 -0.1683
14703W        W19103   8.764   1.750   7.558  0.1299  0.2706  0.2935
14704W        W19104  20.741   0.788   2.273  0.1024 -0.1416 -0.2432
14705W        W19105   6.504   4.435  21.613  0.0122 -0.0499  0.0200
14706W        W19106  14.912   5.871  20.308  0.0811 -0.2339 -0.2596
14707W        W19107  10.938   4.430   2.044 -0.0735  0.0423  0.3316
14708W        W19108  29.082   2.867  22.408 -0.2414 -0.1066  0.0755
14709W        W19109  21.454   1.721  24.050  0.2433 -0.3024 -0.0202
14710W        W19110  15.700   0.172   3.209 -0.0884 -0.4405 -0.2490
14711W        W19111  17.787   3.128  15.516  0.1851 -0.0425 -0.2163
14712W        W19112  12.145   7.605  10.485 -0.0566 -0.2660 -0.2667
14713W        W19113   2.729   1.959  20.116  0.0141 -0.1114 -0.1929
14714W        W19114   6.256   5.453  26.176  0.2992  0.0849 -0.0731
14715W        W19115  12.613   7.049   1.053  0.1183  0.1168  0.1540
14716W        W19116  24.577   3.060  16.512  0.1180 -0.1179 -0.2879
14717W        W19117   1.906   0.780  19.805  0.1091  0.1973  0.1164
14718W        W19118   5.466   5.288  21.396 -0.0761  0.0691 -0.0469
14719W        W19119  12.323   5.577  16.622  0.0299 -0.0037  0.0550
14720W        W19120  22.101   0.909  21.309 -0.3600  0.1540 -0.3060
14721W        W19121  19.008   6.849   3.288 -0.1156  0.2538 -0.0744
14722W        W19122  10.276   2.000  15.933 -0.2252  0.0622  0.0258
14723W        W19123   3.938   4.244  17.904  0.2750 -0.0677 -0.1375
14724W        W19124  16.510   3.015  10.087  0.0725  0.1736  0.2121
14725W        W19125  16.247   7.388   6.956 -0.2093  0.0890 -0.0419
14726W        W19126   3.078   1.465  20.116 -0.1218  0.1020 -0.1316
14727W        W19127  22.129   7.293  16.372  0.4721 -0.1037 -0.1749
14728W        W19128  19.697   0.933   4.039  0.2726  0.1558  0.0549
14729W        W19129   1.404   7.542  22.974  0.1421  0.1650  0.0258
14730W        W19130   6.555   1.675  10.491 -0.0094  0.0321 -0.1578
14731W        W19131  28.178   5.650   3.826 -0.1484  0.2361  0.2003
14732W        W19132  20.161   2.305  20.933 -0.1508  0.2616 -0.2316
14733W        W19133  25.222   2.907   8.309  0.0542  0.0974  0.0308
14734W        W19134  26.047   1.260   4.001  0.2751  0.0821  0.1904
14735W        W19135  21.141   0.336  23.782  0.2338 -0.3189 -0.0887
14736W        W19136  18.542   1.066   5.542 -0.2083  0.0798  0.1970
14737W        W19137   5.488   4.506   9.004 -0.3679  0.1273  0.1523
14738W        W19138  10.618   6.977   2.152  0.1072  0.0655 -0.1655
14739W        W19139   4.642   6.955  10.195  0.0479  0.2530  0.0642
14740W        W19140   2.497   4.881  15.953 -0.0184  0.3540  0.1207
14741W        W19141  13.326   7.622  22.516  0.0019  0.0871 -0.2057
14742W        W19142   5.058   1.157  19.265  0.2712 -0.0982  0.1682
14743W        W19143   6.377   5.927   0.164 -0.2882  0.0557  0.1358
14744W        W19144  22.682   4.551  17.778 -0.1603 -0.1241  0.1225
14745W        W19145   6.162   1.032   4.972 -0.2515  0.2266  0.1683
14746W        W19146  19.137   6.195   2.200  0.3146  0.1015 -0.0046
14747W        W19147  16.879   5.206   4.622  0.1493 -0.1202 -0.2717
14748W        W19148  17.628   6.239   5.665 -0.1119 -0.0260  0.0277
14749W        W19149   0.221   6.395   1.509  0.1945  0.1308  0.1559
14750W        W19150  12.578   5.816   0.438  0.2055  0.3129 -0.0939
14751W        W19151  20.120   6.341   4.616 -0.1020 -0.0449  0.0343
14752W        W19152  21.137   5.964  19.821 -0.3143 -0.0681 -0.2098
14753W        W19153   5.511   3.138   4.290  0.1902  0.2391 -0.0642
14754W        W19154   1.881   6.771   0.938 -0.0006 -0.2346  0.0449
14755W        W19155  21.469   1.440   8.113 -0.0466  0.2208 -0.1458
14756W        W19156  26.213   1.512   6.132  0.3159 -0.0604  0.1967
14757W        W19157  11.858   5.861  17.783 -0.3025  0.1445  0.0426
14758W        W19158   5.279   1.969   4.923  0.0751  0.0530 -0.2003
14759W        W19159  27.188   5.382  19.251  0.0630 -0.0186  0.3161
14760W        W19160  16.214   1.187  18.810 -0.0400  0.1437  0.0801
14761W        W19161  10.874   7.689  25.343  0.2046 -0.0029  0.0081
14762W        W19162   2.859   1.715   2.753  0.2187 -0.0904 -0.0756
14763W        W19163   7.865   4.467   4.505  0.1690  0.1821  0.0864
14764W        W19164  26.105   5.237   9.819 -0.1987  0.2619 -0.2434
14765W        W19165  21.523   1.971  19.889 -0.1255  0.0309 -0.0920
14766W        W19166  24.270   5.714   8.579  0.3514 -0.0516  0.0622
14767W        W19167  17.548   2.064  19.203  0.2878  0.4041 -0.0940
14768W        W19168  17.816   0.398  19.301 -0.3787  0.2562  0.2293
14769W        W19169  25.695   0.649  25.967 -0.2644  0.0263  0.4074
14770W        W19170  24.658   5.949  25.672 -0.0071 -0.3446 -0.2343
14771W        W19171  11.640   6.432   8.578 -0.1658  0.1068  0.2790
14772W        W19172  21.453   2.961  18.611  0.0813 -0.0531  0.3090
14773W        W19173   3.980   1.362  25.113  0.2830  0.0880  0.2420
14774W        W19174  25.450   4.851  21.341  0.2335 -0.0932 -0.1991
14775W        W19175  24.289   3.851   7.119 -0.2039  0.2056  0.1709
14776W        W19176  31.043   5.316  21.543 -0.1518  0.0362  0.3964
14777W        W19177  15.185   1.525   6.677 -0.3175  0.2926  0.1320
14778W        W19178  28.944   3.188   9.269 -0.2088  0.0346 -0.0348
14779W        W19179  20.255   0.744  20.739  0.0115 -0.2701 -0.0292
14780W        W19180  27.966   4.186   2.294 -0.0762  0.2532  0.2052
14781W        W19181  27.468   0.315   1.721  0.0687  0.1125  0.0579
14782W        W19182   1.173   4.129  10.943  0.2125 -0.1478 -0.1377
14783W        W19183   7.799   6.330  19.571  0.1367 -0.1681  0.1129
14784W        W19184   7.045   4.424   3.219 -0.3598  0.2449  0.0115
14785W        W19185   0.339   5.217  18.336 -0.0501  0.1634 -0.2827
14786W        W19186   3.478   5.416   2.541 -0.1468  0.1451  0.2204
14787W        W19187  19.367   4.811   6.138 -0.1751  0.2809 -0.0239
14788W        W19188   3.122   5.750  23.473 -0.1643  0.1308 -0.0344
14789W        W19189   5.860   3.742   0.912 -0.0698  0.1899 -0.1369
14790W        W19190   4.202   5.506  18.767 -0.2412 -0.1026 -0.0292
14791W        W19191  31.271   6.585  17.664  0.0132  0.1578  0.0244
14792W        W19192  28.328   4.262  25.564  0.1504 -0.2956  0.2092
14793W        W19193  17.041   5.000  10.750 -0.1393  0.2169  0.0832
14794W        W19194  17.447   2.245   6.469  0.2287  0.2686  0.3506
14795W        W19195  14.043   1.944  23.551 -0.2851 -0.1143  0.4017
14796W        W19196  22.546   2.540  19.293 -0.0797 -0.2560 -0.2868
14797W        W19197  18.693   2.543   6.558 -0.0203 -0.0292  0.3112
14798W        W19198   8.484   0.489  22.111  0.1469  0.2282  0.0046
14799W        W19199   8.293   3.122  23.180 -0.0947  0.0606  0.0055
14800W        W19200  18.739   2.905  19.989 -0.0655  0.0362 -0.1025
14801W        W19201  15.414   2.678  24.079  0.1933 -0.0718  0.1673
14802W        W19202  14.418   7.123  21.276 -0.1065  0.1075 -0.2149
14803W        W19203   3.291   7.586   2.145 -0.1287 -0.2599 -0.1948
14804W        W19204   4.114   4.467  18.957 -0.0477  0.1277  0.0702
14805W        W19205  26.599   4.446  18.340 -0.0032 -0.1203 -0.4126
14806W        W19206  24.002   7.473   0.338  0.0004  0.2707  0.0494
14807W        W19207  22.550   7.018  26.048  0.1526 -0.1055  0.3031
14808W        W19208   2.634   7.657  19.604 -0.0997  0.0730 -0.0093
14809W        W19209  11.312   7.467  23.055  0.0243 -0.0177 -0.3266
14810W        W19210  27.614   1.372   2.312 -0.1364 -0.0973  0.0730
14811W        W19211  29.914   0.739  16.495  0.1062  0.2102 -0.0731
14812W        W19212  29.601   6.914  23.899  0.1482  0.0537 -0.3981
14813W        W19213  20.720   3.036   4.363  0.3082  0.1825  0.0759
14814W        W19214   0.819   5.713   0.946  0.0154 -0.0056  0.2084
14815W        W19215  30.022   0.804   2.361  0.3073  0.0638  0.2291
14816W        W19216  25.295   5.197  25.906  0.1702  0.0982  0.1272
14817W        W19217  22.300   6.367  17.885 -0.2614 -0.2746  0.2133
14818W        W19218  14.065   6.971  24.278 -0.1661 -0.3600 -0.0615
14819W        W19219  24.925   2.994  25.252 -0.1648  0.1299  0.0011
14820W        W19220  15.677   5.165  22.133 -0.0002  0.1346  0.2521
14821W        W19221  11.803   7.654   7.595 -0.0257  0.0661 -0.0641
14822W        W19222   0.806   6.823  16.086 -0.2190 -0.2605  0.2633
14823W        W19223   1.828   1.761   3.731  0.5952  0.3405  0.0576
14824W        W19224   2.332   6.562  11.137 -0.2454 -0.0525  0.3490
14825W        W19225  30.824   3.568   0.330  0.0400 -0.4347 -0.4010
14826W        W19226   9.411   3.113  23.737  0.0415  0.1288 -0.0904
14827W        W19227  30.284   4.974  17.493  0.0043  0.1101  0.0161
14828W        W19228  24.813   1.498  22.735 -0.0523  0.0338  0.0448
14829W        W19229  13.283   4.135   1.269 -0.0373  0.2363  0.1770
14830W        W19230  12.433   3.346   5.974 -0.0733 -0.1244 -0.1673
14831W        W19231   8.136   6.389  24.348  0.1033  0.0227  0.1518
14832W        W19232   3.120   6.829   8.896 -0.1130  0.3125  0.0080
14833W        W19233   6.371   1.538   6.987  0.3730 -0.1157 -0.1905
14834W        W19234   3.156   3.807   3.712  0.4263  0.0217  0.1080
14835W        W19235  28.178   0.515   7.744 -0.2187 -0.2104  0.1136
14836W        W19236   9.911   1.701   7.186 -0.0043 -0.2113  0.2755
14837W        W19237  21.853   2.962  21.915 -0.1569 -0.0923 -0.2986
14838W        W19238   1.253   0.151  25.391 -0.2723  0.1870 -0.0820
14839W        W19239  10.376   1.566   4.056  0.1750 -0.0344 -0.2024
14840W        W19240  15.077   3.698   2.024 -0.2041  0.1284  0.1639
14841W        W19241  13.327   6.494   4.836 -0.0099 -0.0748 -0.0585
14842W        W19242  23.583   7.661   4.762  0.2766 -0.0000 -0.1567
14843W        W19243  29.308   7.442   9.602 -0.0487 -0.0812  0.0189
14844W        W19244  21.030   0.474  17.965  0.1993 -0.2535  0.1735
14845W        W19245  10.125   1.904   9.555 -0.1260  0.0966  0.0764
14846W        W19246  10.354   0.373   1.462 -0.1751 -0.0578 -0.3693
14847W        W19247   0.337   7.319   3.651  0.0496  0.3772  0.1082
14848W        W19248   9.183   5.734  24.276  0.0027 -0.2854 -0.0626
14849W        W19249   6.702   6.879  24.475  0.2038  0.0859  0.3670
14850W        W19250  25.285   0.980  25.911  0.2053 -0.0106 -0.2931
14851W        W19251   8.545   2.407   1.153  0.2143  0.3555 -0.3291
14852W        W19252   6.190   6.576  21.382  0.1001 -0.2185  0.1084
14853W        W19253   0.431   0.310   0.451  0.0180  0.0139 -0.1940
14854W        W19254  27.578   2.763   3.371  0.0843 -0.1596  0.1881
14855W        W19255   3.527   0.838  23.001  0.0366 -0.1511 -0.1646
14856W        W19256  21.268   7.780  16.880 -0.2372  0.0817  0.4078
14857W        W19257  10.554   7.004  22.568  0.0808 -0.0587  0.1868
14858W        W19258  20.941   4.450   9.052  0.2206  0.0876 -0.0222
14859W        W19259  25.266   1.041  20.626 -0.1611 -0.2757 -0.3527
14860W        W19260   4.354   7.104   3.363  0.0458 -0.1190 -0.3141
14861W        W19261   9.288   6.724   7.287 -0.0029 -0.0129 -0.0133
14862W        W19262   3.660   7.550  18.654 -0.3509 -0.1427 -0.0441
14863W        W19263   9.823   4.354   1.808 -0.1917 -0.0004 -0.2935
14864W        W19264   7.287   7.654  23.266  0.0080  0.1788  0.0541
14865W        W19265  16.441   0.226  25.264  0.0911  0.1353  0.0499
14866W        W19266   0.628   7.666   0.533 -0.1291  0.3022 -0.0046
14867W        W19267  29.537   5.250   7.216 -0.0674  0.1978 -0.1068
14868W        W19268   1.996   2.825  10.710 -0.1902  0.0213  0.0756
14869W        W19269  17.458   7.674  23.555 -0.2573  0.0087  0.3574
14870W        W19270  27.081   6.969   7.872  0.2577 -0.2534  0.0293
14871W        W19271   5.271   2.888   5.312 -0.1076 -0.0474  0.1530
14872W        W19272  11.998   6.192   2.337 -0.1582  0.0523 -0.2781
14873W        W19273   7.780   3.126  25.050 -0.0198 -0.4187  0.1851
14874W        W19274   6.944   6.836  16.263  0.0850 -0.0415 -0.2482
14875W        W19275  23.663   4.996  17.689 -0.3658 -0.0478  0.2386
14876W        W19276   9.137   5.164  23.106 -0.1687 -0.1118  0.3782
14877W        W19277  28.609   5.971   3.448 -0.1821 -0.3245 -0.3606
14878W        W19278  24.040   2.524   5.170 -0.1584  0.0771  0.1892
14879W        W19279   9.437   3.664  23.487  0.2812 -0.0243 -0.0027
14880W        W19280   4.481   5.896  24.508  0.1324 -0.0635  0.2289
14881W        W19281  19.268   3.056  19.851  0.2089 -0.0579 -0.0531
14882W        W19282  14.310   5.787  10.046  0.1775  0.1419  0.0777
14883W        W19283  10.165   3.700   8.522 -0.0987  0.0831  0.0362
14884W        W19284  25.834   6.742   5.132 -0.0253  0.2645 -0.2284
14885W        W19285  26.287   5.566  16.610 -0.0872  0.1226 -0.3441
14886W        W19286   2.095   4.529  24.306 -0.0430 -0.0194  0.0542
14887W        W19287   7.136   1.875  19.105  0.1457 -0.0747  0.2046
14888W        W19288  18.356   4.890   7.430 -0.0632  0.0719 -0.1274
14889W        W19289   5.247   1.592   6.825 -0.0612 -0.2530 -0.0862
14890W        W19290  19.948   6.833   5.242 -0.0032 -0.1346  0.2347
14891W        W19291  14.677   0.902   1.104  0.1062 -0.1468  0.1888
14892W        W19292   9.809   1.572   4.860 -0.0200  0.1667 -0.1943
14893W        W19293   3.005   5.304   2.764 -0.0860  0.0161  0.1649
14894W        W19294  29.012   5.509  24.292 -0.1600  0.0105  0.1762
14895W        W19295  14.447   3.565  15.716 -0.1397 -0.1378 -0.2110
14896W        W19296   4.299   7.327  20.537 -0.0287 -0.1692 -0.0931
14897W        W19297  11.369   4.908   7.825 -0.0449 -0.1333  0.1099
14898W        W19298  20.075   6.003   5.009  0.0898 -0.1328  0.1400
14899W        W19299  29.457   2.190  21.985  0.0127  0.1363 -0.2478
14900W        W19300   8.692   5.943   1.398 -0.1025 -0.2352 -0.1447
14901W        W19301  27.498   2.737  25.240 -0.0751 -0.4795 -0.4188
14902W        W19302  24.718   2.156   8.182 -0.0041 -0.1209  0.3980
14903W        W19303   1.987   3.407  19.654  0.0251 -0.1139 -0.0115
14904W        W19304  29.520   0.294   6.055  0.0060 -0.1834  0.0434
14905W        W19305  25.490   6.997  24.260  0.0876 -0.0257 -0.1410
14906W        W19306  21.020   7.251  24.534 -0.3874 -0.1508 -0.0267
14907W        W19307   2.639   0.927  16.492 -0.1558 -0.0687 -0.0708
14908W        W19308  12.837   6.607   1.124  0.2953 -0.1059  0.2650
14909W        W19309  12.359   4.936  22.375 -0.1388 -0.2296 -0.3642
14910W        W19310  23.940   5.614  10.479  0.2604 -0.0670  0.1904
14911W        W19311   1.272   6.612  15.939 -0.2030  0.2550  0.2308
14912W        W19312  23.906   6.576   8.058  0.3532  0.2163  0.3024
14913W        W19313   2.244   6.315   6.399  0.2619  0.2341 -0.0159
14914W        W19314  21.295   3.381  18.412  0.1875 -0.1911  0.2015
14915W        W19315  28.272   0.016   3.489 -0.1226  0.2821 -0.1074
14916W        W19316   5.444   5.713  24.174 -0.3025  0.0362  0.1640
14917W        W19317  28.449   5.536  24.277 -0.3098  0.0597 -0.1359
14918W        W19318  12.214   3.174  15.804  0.0143 -0.0845 -0.0904
14919W        W19319  17.532   4.339  18.775  0.0223  0.1563 -0.1924
14920W        W19320   6.938   3.806   4.435  0.1576 -0.2185 -0.1116
14921W        W19321  18.460   4.139  25.204  0.1823  0.2239  0.1713
14922W        W19322  24.151   0.471  21.414  0.0877  0.0779 -0.1453
14923W        W19323   2.218   7.183   0.737 -0.0211  0.2751  0.2037
14924W        W19324   2.268   3.734   5.692 -0.0626  0.1022  0.1608
14925W        W19325   8.775   7.342  20.112 -0.0983  0.0079 -0.0156
14926W        W19326  17.536   1.423  14.728 -0.2119  0.0323  0.1900
14927W        W19327  21.611   6.398   9.226 -0.0901 -0.2081  0.2341
14928W        W19328   5.100   3.406   7.518 -0.0967 -0.0484 -0.3526
14929W        W19329   9.934   5.975  24.809  0.2257 -0.1336 -0.1168
14930W        W19330  27.195   7.563   0.629 -0.2537  0.2537 -0.0858
14931W        W19331  14.734   5.797   5.630  0.2967 -0.1982  0.1666
14932W        W19332  15.747   6.540   0.141  0.0912 -0.0609 -0.1568
14933W        W19333  19.466   6.814  10.689 -0.0857  0.0586 -0.1196
14934W        W19334  17.083   0.302  17.640 -0.0528 -0.0932  0.0003
14935W        W19335   1.653   7.547   9.090  0.2056 -0.1263  0.4124
14936W        W19336  30.541   7.174   5.478 -0.0078 -0.1371 -0.0559
14937W        W19337   4.177   2.747   7.150  0.2198 -0.1493 -0.0912
14938W        W19338  25.287   2.847  18.779 -0.2388  0.0552  0.1129
14939W        W19339   6.326   0.404  25.557 -0.2588 -0.2573 -0.0840
14940W        W19340   3.665   3.243   5.566 -0.1885  0.0505  0.0635
14941W        W19341   1.838   3.858   8.969  0.0107  0.1230 -0.2338
14942W        W19342   4.981   5.164   8.660  0.0226 -0.0588  0.1668
14943W        W19343  22.212   2.207  26.020 -0.0085  0.0055 -0.1123
14944W        W19344   0.187   1.442   0.744 -0.0403  0.0877 -0.3030
14945W        W19345   5.687   7.163  21.112 -0.0785 -0.0356  0.4332
14946W        W19346  31.208   6.740  12.131 -0.0304 -0.0241  0.3183
14947W        W19347  25.955   0.128  15.339 -0.1035 -0.2559  0.0868
14948W        W19348  24.207   3.249  15.701  0.3197  0.1811  0.0539
14949W        W19349   0.364   3.393  17.157  0.2208  0.3071 -0.2476
14950W        W19350   6.314   5.358  16.666  0.0879 -0.0099  0.1768
14951W        W19351  24.664   2.022  19.385  0.2381  0.1924 -0.1477
14952W        W19352  15.273   5.823  10.753  0.0739  0.0589 -0.0509
14953W        W19353  27.578   4.334  15.661  0.1194  0.1250 -0.0321
14954W        W19354  24.025   5.356  16.931  0.0365  0.0042 -0.0814
14955W        W19355  29.740   4.735  16.460 -0.0085  0.0588  0.1482
14956W        W19356   6.979   6.053  11.459  0.2449  0.1179 -0.0959
14957W        W19357   2.652   1.917   3.147 -0.1035 -0.0396 -0.0510
14958W        W19358  22.040   6.972  22.025 -0.0871 -0.1020  0.0263
14959W        W19359  23.519   6.494  26.191 -0.1711  0.1666 -0.0059
14960W        W19360  18.004   6.669  20.851  0.1840 -0.1706  0.1961
14961W        W19361  27.594   4.814  25.509  0.1837  0.0472  0.2469
14962W        W19362   3.239   0.210  24.716  0.2528 -0.0325  0.0281
14963W        W19363  31.293   1.430  22.917  0.0570 -0.0921 -0.2614
14964W        W19364  29.830   3.410  16.613 -0.0434 -0.1047 -0.1172
14965W        W19365   8.282   5.629  22.617  0.2441 -0.1405 -0.0645
14966W        W19366  30.681   4.520  24.453 -0.0103  0.0720  0.0202
14967W        W19367   3.534   3.108   1.851 -0.2527  0.1062 -0.1076
14968W        W19368  17.534   1.846   5.318  0.3067 -0.1296 -0.0608
14969W        W19369   5.939   4.227   5.263 -0.1966  0.0635  0.2386
14970W        W19370   5.625   2.157   9.822 -0.0814  0.1895  0.0325
14971W        W19371   5.130   1.672  20.562 -0.0929  0.1235 -0.0515
14972W        W19372  23.097   7.723  18.641 -0.1984  0.0829  0.2025
14973W        W19373  13.993   5.836  22.814  0.3043  0.0142  0.0556
14974W        W19374   1.066   4.057  24.988  0.1539 -0.1271 -0.1166
14975W        W19375  21.635   7.640   4.928 -0.2746 -0.0114 -0.0412
14976W        W19376   4.635   1.405  19.731 -0.0844 -0.1438  0.4587
14977W        W19377   1.113   1.188   5.320 -0.1871 -0.1869 -0.0324
14978W        W19378  12.713   5.364  18.087  0.0734  0.1417  0.1676
14979W        W19379   7.369   7.217   6.150 -0.4650  0.0431  0.0033
14980W        W19380  24.609   6.945   4.325 -0.3414 -0.0395 -0.0739
14981W        W19381  26.801   0.030  16.215 -0.1053  0.0407  0.1430
14982W        W19382  16.204   1.480   4.384 -0.2144 -0.1068  0.0206
14983W        W19383  23.447   5.359  19.656 -0.1393 -0.1915 -0.1443
14984W        W19384  12.461   6.675  22.809  0.0476  0.0171  0.1199
14985W        W19385  26.761   3.420   3.613  0.2063  0.2654 -0.0195
14986W        W19386   3.427   6.644   4.306  0.0021 -0.0990 -0.2593
14987W        W19387  22.682   5.581  19.243 -0.1885  0.1781  0.3301
14988W        W19388  10.783   6.670   5.283 -0.3911 -0.1070 -0.2124
14989W        W19389   2.909   6.112   3.698  0.0150 -0.2472  0.1148
14990W        W19390   3.967   0.010   8.206 -0.1987 -0.3004  0.1264
14991W        W19391   6.027   7.625   6.347 -0.1228 -0.0766  0.0376
14992W        W19392   3.658   0.042  24.148 -0.0415 -0.1979 -0.0685
14993W        W19393  11.686   3.606   3.325 -0.2701 -0.0186  0.1733
14994W        W19394  26.366   7.120  17.187 -0.0123  0.0085 -0.1734
14995W        W19395  16.165   5.232   8.681  0.1228 -0.1535 -0.0512
14996W        W19396   7.999   1.369  22.672  0.0482 -0.2501 -0.0165
14997W        W19397  23.116   0.625  15.924 -0.1377  0.3352  0.0005
14998W        W19398  18.402   2.442   5.046 -0.1560 -0.0224 -0.1301
14999W        W19399  21.969   5.959  16.218 -0.1395 -0.0350  0.0167
15000W        W19400   7.751   7.460   3.611  0.0191 -0.0873  0.2789
15001W        W19401  17.251   6.610   5.871  0.2036  0.0906  0.2466
15002W        W19402   3.550   4.882   8.846 -0.0432  0.0622 -0.0714
15003W        W19403   9.769   0.649  16.280 -0.0968  0.1659 -0.1739
15004W        W19404  18.562   2.065  21.058 -0.0842 -0.2648 -0.0992
15005W        W19405  30.295   4.849  21.320 -0.0039 -0.0805 -0.0566
15006W        W19406  20.842   4.842  25.134 -0.1976  0.0362 -0.0145
15007W        W19407  10.892   1.376  20.835 -0.1019 -0.0785  0.3876
15008W        W19408   5.195   3.506  22.984 -0.0891  0.1032  0.1377
15009W        W19409  24.154   2.691  17.833  0.0246  0.0184 -0.1866
15010W        W19410  26.373   6.185   9.489  0.0021  0.2556  0.3186
15011W        W19411   1.186   7.281   3.986  0.0622  0.2352  0.1039
15012W        W19412  21.061   0.633  25.100 -0.1540 -0.0512  0.0202
15013W        W19413   0.217   5.797  25.949  0.0230  0.0285  0.1367
15014W        W19414   6.945   4.591  26.080  0.0482 -0.0733 -0.0304
15015W        W19415   2.146   2.084   2.530 -0.0993  0.2454 -0.0643
15016W        W19416  28.557   3.339  25.519  0.0733 -0.0521  0.0196
15017W        W19417  20.413   4.647  21.465 -0.2821 -0.1776 -0.0946
15018W        W19418  17.028   1.769   4.220 -0.1039 -0.2364  0.1286
15019W        W19419  23.093   1.754  23.846 -0.2780  0.2641  0.1193
15020W        W19420  16.159   3.303  20.148  0.0268 -0.1960 -0.1970
15021W        W19421   5.256   1.106  19.775 -0.1399 -0.0685  0.2968
15022W        W19422  27.046   1.990  10.116  0.3134 -0.1147 -0.0949
15023W        W19423   3.967   1.282  20.717 -0.3102 -0.3758 -0.1980
15024W        W19424  26.879   3.014  20.883  0.0720 -0.1209  0.2571
15025W        W19425  22.929   7.325   5.927 -0.1158 -0.1089 -0.0049
15026W        W19426  20.383   5.071  17.626 -0.0259 -0.0752  0.0997
15027W        W19427   8.584   1.376   3.368  0.1276  0.1077 -0.0681
15028W        W19428  14.979   4.821  25.041  0.0773  0.2541  0.1957
15029W        W19429  23.132   7.763  23.483  0.0939 -0.4502  0.0495
15030W        W19430  11.488   7.042   4.763 -0.1771  0.2677  0.1356
15031W        W19431  17.923   7.488   3.987  0.1731 -0.2242  0.2993
15032W        W19432  29.787   7.728   2.979  0.1180  0.0242 -0.0575
15033W        W19433  29.852   3.098  19.949  0.2864  0.3109  0.1440
15034W        W19434  11.899   3.358   6.102  0.3451  0.0021 -0.2319
15035W        W19435   3.980   5.583  10.771  0.2709 -0.1015 -0.0494
15036W        W19436  19.897   0.958   2.382  0.1799 -0.0129  0.4459
15037W        W19437  22.580   1.720  25.311 -0.3135  0.2563  0.0891
15038W        W19438   7.576   6.582  24.586 -0.0230 -0.2009  0.1337
15039W        W19439   3.650   1.054   9.142  0.0822 -0.3059  0.1557
15040W        W19440  17.076   2.856  22.369 -0.2056 -0.1223 -0.0616
15041W        W19441   3.831   3.163  22.164  0.1058 -0.1415  0.1598
15042W        W19442  29.919   2.585  16.458  0.0177  0.0628  0.1706
15043W        W19443  18.106   0.479  14.757 -0.2895  0.2513 -0.0268
15044W        W19444  21.940   5.911   2.052 -0.1848 -0.2312  0.2333
15045W        W19445  10.968   2.220   0.072 -0.1019  0.1502 -0.0597
15046W        W19446  12.602   5.505  15.764 -0.0815 -0.2306  0.0857
15047W        W19447  11.240   1.894  18.157  0.1237  0.3220 -0.0286
15048W        W19448   0.731   3.693  10.533  0.2191  0.1629  0.0576
15049W        W19449   0.541   0.421  10.898 -0.1211  0.1025  0.2952
15050W        W19450  17.927   0.483  24.835  0.0111 -0.0294 -0.1699
15051W        W19451  13.558   5.937  23.034 -0.0608  0.3172 -0.0292
15052W        W19452  28.232   0.018   7.456 -0.1199  0.2491  0.0499
15053W        W19453   8.971   5.290  20.988 -0.1110 -0.1246  0.2748
15054W        W19454   2.774   1.054   6.222 -0.0085  0.1667  0.1016
15055W        W19455  19.676   3.138   5.748  0.1195  0.3154 -0.0083
15056W        W19456  26.058   5.797  18.834 -0.2145  0.2159  0.0838
15057W        W19457   5.977   4.802  17.243 -0.0089  0.0439  0.1487
15058W        W19458  20.082   4.618  19.234  0.2647 -0.4119 -0.1173
15059W        W19459  10.423   4.287  18.862  0.1327 -0.1389  0.0057
15060W        W19460  13.849   7.477  25.795  0.0173 -0.4270  0.0846
15061W        W19461  15.138   5.566   3.271  0.3634  0.1532  0.1954
15062W        W19462  28.973   4.428  16.688  0.0291 -0.0217 -0.0438
15063W        W19463   3.724   3.753   1.123  0.2507  0.2200 -0.1283
15064W        W19464  23.233   2.117   2.576 -0.0348  0.0219  0.4257
15065W        W19465   0.576   4.752  15.932  0.1331 -0.1274 -0.2941
15066W        W19466   8.381   3.671   8.017 -0.0688  0.2024  0.2929
15067W        W19467   1.455   5.383  16.286  0.0650 -0.4473  0.0520
15068W        W19468  19.544   4.841   0.494 -0.0691 -0.1245 -0.0151
15069W        W19469  29.269   2.489  19.854  0.0447 -0.2737 -0.3285
15070W        W19470  17.932   1.740  20.770  0.0617 -0.2402  0.0714
15071W        W19471  23.573   5.269   6.087 -0.0286 -0.1548 -0.3463
15072W        W19472  12.467   6.188  17.508  0.0251 -0.0484  0.1105
15073W        W19473   6.358   0.183   6.518  0.3964 -0.0543 -0.0708
15074W        W19474  14.292   2.167   9.395  0.0035  0.0707  0.2154
15075W        W19475  11.027   2.200  10.214  0.2772  0.1316 -0.0754
15076W        W19476  16.518   1.520  20.498 -0.1858 -0.3114 -0.2810
15077W        W19477  23.969   3.136  25.182  0.1182  0.0157  0.1905
15078W        W19478   0.921   0.526  10.590  0.0119  0.2219 -0.2432
15079W        W19479  12.421   4.510   2.339 -0.2053  0.1351 -0.0672
15080W        W19480  30.772   7.814   7.616  0.1708 -0.0469  0.1189
15081W        W19481  24.653   3.218   7.936 -0.0937  0.1468 -0.0819
15082W        W19482   4.335   4.627   5.247 -0.1447  0.1129  0.1138
15083W        W19483  29.212   3.908  15.521  0.0441  0.1418  0.0581
15084W        W19484  25.968   2.734   1.586 -0.1638 -0.2203  0.1192
15085W        W19485  24.131   5.047   6.944 -0.3718  0.0647  0.0441
15086W        W19486  30.370   0.451  15.377  0.2571 -0.3417  0.0350
15087W        W19487   2.325   1.684   7.950  0.2020  0.2268  0.4081
15088W        W19488  25.475   6.185  18.030 -0.2954 -0.2105  0.0200
15089W        W19489  28.209   0.319  21.904  0.3046  0.0217  0.0996
15090W        W19490   3.743   0.461   2.525 -0.0536 -0.1975 -0.1465
15091W        W19491  12.162   7.700  17.359  0.1399  0.1227 -0.2552
15092W        W19492  27.898   3.019  23.357 -0.0432  0.0010 -0.0835
15093W        W19493   2.650   5.544  22.836 -0.0943  0.2860  0.1695
15094W        W19494  23.015   2.521  10.536  0.0625 -0.0459  0.0078
15095W        W19495  20.108   7.619   2.780 -0.3134  0.0213 -0.0702
15096W        W19496  13.046   1.550   5.283  0.2713 -0.0102 -0.2739
15097W        W19497   5.844   0.652  22.834 -0.2108 -0.0080  0.0267
15098W        W19498  15.015   1.995  24.846 -0.2513 -0.1611  0.1779
15099W        W19499  22.417   6.549  23.518 -0.2028 -0.0221  0.2579
15100W        W19500  11.283   2.707  20.095 -0.2430  0.0253  0.1294
15101W        W19501  24.714   1.481   4.021  0.1134 -0.1853 -0.1232
15102W        W19502  26.010   7.422  23.475  0.5328  0.1943  0.0669
15103W        W19503   6.656   4.168  19.643 -0.2181 -0.0870  0.0609
15104W        W19504  26.694   4.650   0.537 -0.0450 -0.1218  0.1920
15105W        W19505  26.156   1.968   6.910 -0.1588  0.0431 -0.1796
15106W        W19506  27.043   4.478  19.233 -0.0829  0.0818  0.0564
15107W        W19507   9.089   6.664   6.825 -0.1108 -0.1048  0.0843
15108W        W19508  24.081   4.607  17.738  0.0322 -0.2688 -0.2265
15109W        W19509   7.882   5.294  17.308  0.1114 -0.1902 -0.2650
15110W        W19510  14.629   4.147   5.230 -0.0856 -0.1793 -0.2962
15111W        W19511  19.740   5.959  20.451 -0.3270 -0.1310  0.1475
15112W        W19512  11.690   0.104   4.308 -0.1252 -0.3844  0.0329
15113W        W19513   2.736   5.852  18.362 -0.0028 -0.0965  0.1218
15114W        W19514   9.416   0.668  23.599 -0.0187 -0.1499  0.2047
15115W        W19515   9.760   2.177   9.016  0.0036  0.1467 -0.0074
15116W        W19516  13.370   2.555  16.381 -0.0801  0.0743  0.0626
15117W        W19517  17.587   1.912   8.386 -0.1904  0.0833  0.4007
15118W        W19518   5.159   4.083  16.177 -0.2037  0.2118  0.0877
15119W        W19519  28.125   1.058  20.806 -0.1201 -0.0501  0.1130
15120W        W19520  28.446   0.965   6.027 -0.3930 -0.0935  0.0482
15121W        W19521   8.073   2.576  17.172  0.0437  0.1952 -0.0040
15122W        W19522   4.968   4.299  25.689 -0.1231  0.0235  0.0177
15123W        W19523   7.782   5.403   7.285 -0.1447  0.0511  0.0078
15124W        W19524  30.749   1.380  26.138 -0.0126  0.1976 -0.2490
15125W        W19525   8.820   2.285  23.108 -0.0056  0.5877  0.2222
15126W        W19526  26.613   1.637  11.245  0.1951 -0.0652 -0.2426
15127W        W19527  26.062   1.700  21.595 -0.2179 -0.1351 -0.2225
15128W        W19528  21.592   4.642  25.599  0.2395 -0.0678  0.1504
15129W        W19529  21.638   1.485   3.868 -0.2384  0.0984 -0.0775
15130W        W19530   3.547   2.122   5.671  0.0490  0.0062 -0.2396
15131W        W19531  10.632   2.045   1.139  0.0595 -0.2201  0.1361
15132W        W19532  11.147   5.820  24.459  0.1416 -0.1336 -0.1191
15133W        W19533  10.005   1.380   7.761 -0.1453 -0.0503 -0.2004
15134W        W19534   8.130   6.789   8.854 -0.1663  0.1342  0.2585
15135W        W19535  26.876   7.782  18.250  0.0608  0.0994  0.1907
15136W        W19536   9.380   5.450   5.046  0.0540 -0.2150  0.1054
15137W        W19537  21.884   7.530   6.589 -0.0986 -0.0458 -0.4952
15138W        W19538  16.101   2.700   6.168 -0.1399 -0.0452 -0.2142
15139W        W19539  19.926   3.750   5.456 -0.1542 -0.2126  0.0564
15140W        W19540  15.244   3.247   6.933  0.0176  0.2667 -0.0294
15141W        W19541  25.792   0.634   5.268 -0.1027  0.1029 -0.2546
15142W        W19542  25.881   2.635   4.392 -0.0435  0.0298  0.3071
15143W        W19543  21.518   4.609   8.491 -0.0339  0.2585 -0.1047
15144W        W19544  25.275   0.340  23.981  0.3522  0.1303  0.1248
15145W        W19545   5.403   0.934   1.616 -0.1734  0.2541  0.0951
15146W        W19546  12.746   2.625  22.255  0.1317 -0.3568  0.2221
15147W        W19547   4.304   0.662   6.088 -0.0271 -0.0637  0.0826
15148W        W19548  25.283   1.447  10.655 -0.2485 -0.2734  0.1901
15149W        W19549   1.589   3.340   0.763 -0.0675 -0.0374 -0.2143
15150W        W19550  21.037   0.514  17.415  0.2983  0.0679 -0.2685
15151W        W19551  16.269   5.186   1.911  0.1947  0.2686 -0.0366
15152W        W19552  23.315   0.379  16.845  0.0979  0.1744  0.0258
15153W        W19553  24.154   1.051  16.256 -0.0479  0.0592  0.0849
15154W        W19554   3.539   5.459   4.060  0.0618  0.1857  0.2117
15155W        W19555  16.643   7.689   4.569  0.0205 -0.2649  0.0800
15156W        W19556  23.726   7.567  25.538 -0.1227  0.0554 -0.0555
15157W        W19557  10.675   4.824   8.560 -0.3635 -0.1644 -0.0594
15158W        W19558  27.407   4.629  21.025  0.0490 -0.0293 -0.3167
15159W        W19559  27.190   1.439   8.482 -0.0211 -0.0366  0.0936
15160W        W19560  23.601   1.952  11.103  0.1921  0.3041  0.2943
15161W        W19561  21.236   2.624   2.362 -0.1154  0.1499  0.0366
15162W        W19562  10.927   2.543   6.134 -0.1866 -0.0162 -0.2636
15163W        W19563  11.792   1.011  10.318 -0.1307 -0.0105 -0.0435
15164W        W19564   5.461   6.582  24.368  0.2244  0.1082 -0.1321
15165W        W19565  15.813   6.214   1.126 -0.0667  0.1176  0.2278
15166W        W19566  18.098   3.484  16.807  0.1402 -0.1711 -0.2985
15167W        W19567  17.608   4.412  10.388  0.1239  0.2240 -0.1874
15168W        W19568  24.019   0.430   3.589 -0.0423  0.0318  0.0753
15169W        W19569   6.126   3.801  22.138  0.2447  0.0538 -0.2875
15170W        W19570  29.612   0.159  21.196 -0.2968  0.1811  0.0976
15171W        W19571  10.912   4.554  21.939  0.0149  0.2666  0.0162
15172W        W19572  13.078   3.753  24.243 -0.3045  0.1611 -0.1062
15173W        W19573   3.623   0.346   0.267  0.1444  0.0428  0.0851
15174W        W19574  20.922   7.328  20.443 -0.2861  0.1738 -0.0685
15175W        W19575  12.737   3.526   8.973  0.2682  0.0372  0.0716
15176W        W19576  16.463   1.642   5.330  0.1886  0.1175  0.0238
15177W        W19577   6.187   1.026   1.335 -0.1522 -0.1382  0.0169
15178W        W19578   9.606   3.291   4.826 -0.1443  0.1129  0.0035
15179W        W19579   7.420   1.444  16.687 -0.0239 -0.0489 -0.0793
15180W        W19580  26.961   0.336  16.606  0.3330 -0.2461 -0.1551
15181W        W19581   8.366   0.945   9.951 -0.0647 -0.0157 -0.1599
15182W        W19582  16.393   1.333  24.008 -0.2174  0.2259 -0.1998
15183W        W19583  24.966   3.824   7.479 -0.3187  0.2338  0.2308
15184W        W19584  30.681   3.603  26.022  0.1802  0.0042 -0.2483
15185W        W19585  29.795   7.406  23.132 -0.0393 -0.2492 -0.1200
15186W        W19586  15.761   6.931   8.198 -0.3182  0.2108 -0.3276
15187W        W19587   4.687   7.714   4.049 -0.3177  0.0969 -0.0906
15188W        W19588  16.215   3.105   8.375  0.0782  0.1180 -0.0150
15189W        W19589   2.473   1.474  17.405 -0.0102 -0.1033 -0.2024
15190W        W19590   6.090   6.382  19.020  0.1358  0.0158  0.1060
15191W        W19591  22.395   0.876   2.141 -0.2668 -0.1551 -0.1266
15192W        W19592   0.477   7.562   1.338 -0.3159  0.0201  0.0560
15193W        W19593   5.834   7.625  20.780  0.0218  0.1689  0.1097
15194W        W19594   3.684   5.425  21.357  0.0157  0.1943 -0.1971
15195W        W19595  19.851   7.451   4.716  0.3037  0.2235 -0.0370
15196W        W19596   0.992   3.104   0.529  0.1092 -0.1872  0.0201
15197W        W19597  27.750   3.667   4.828  0.2657  0.0094  0.1289
15198W        W19598  30.412   3.612   8.634  0.0783 -0.2888  0.2285
15199W        W19599  10.363   6.324   5.480 -0.1881 -0.3766  0.5111
15200W        W19600   3.828   7.323   1.549  0.0589  0.0377  0.1006
15201W        W19601  21.645   0.809   7.725  0.0941 -0.2570 -0.0180
15202W        W19602  12.757   4.378  23.737 -0.3057 -0.0335  0.1530
15203W        W19603   5.565   6.864   2.838 -0.1188 -0.1204 -0.0879
15204W        W19604  23.309   2.384   8.810 -0.1416 -0.0347 -0.1704
15205W        W19605  11.369   0.566  17.872 -0.1399  0.3383 -0.1578
15206W        W19606   7.089   3.326   3.302  0.0906 -0.1202  0.0185
15207W        W19607   1.747   1.746   4.390 -0.0025 -0.0407 -0.0302
15208W        W19608   0.249   2.913  20.382  0.0030 -0.1953  0.1737
15209W        W19609  16.133   4.868   9.998 -0.1685  0.1096 -0.1296
15210W        W19610  22.847   5.755   6.067 -0.3071  0.0386 -0.0316
15211W        W19611   9.389   3.512  18.338 -0.0604 -0.0912  0.1498
15212W        W19612  19.240   2.080   7.744 -0.0928  0.1081  0.1684
15213W        W19613   4.168   3.640   4.635  0.3375 -0.0627 -0.0070
15214W        W19614   5.584   3.040  23.999 -0.0296 -0.0944 -0.0287
15215W        W19615  21.493   5.979  20.352 -0.0527 -0.2401 -0.1936
15216W        W19616  28.296   2.037  11.107 -0.2150  0.2626 -0.1241
15217W        W19617  24.660   6.551  16.183  0.0817  0.0578  0.0246
15218W        W19618   3.602   3.939   4.982 -0.0327  0.1925  0.5092
15219W        W19619  13.545   4.362   2.847 -0.0330  0.0532  0.2418
15220W        W19620   6.420   0.533  19.473  0.2436 -0.0226  0.4527
15221W        W19621  17.889   7.020   2.627 -0.0099 -0.2577  0.0478
15222W        W19622  15.005   2.966   0.944 -0.1488  0.0282 -0.4048
15223W        W19623  29.263   3.725   0.086  0.1462  0.1795 -0.0412
15224W        W19624  11.486   5.942  23.044  0.0515 -0.2767 -0.2888
15225W        W19625  24.143   1.516  18.504  0.0496  0.0702  0.0175
15226W        W19626  25.029   2.534   5.449  0.0351  0.0214  0.1652
15227W        W19627   3.293   1.344  10.996  0.1964 -0.1708 -0.0134
15228W        W19628  19.850   5.383   0.120 -0.0822  0.2842  0.1915
15229W        W19629   8.781   6.560   7.729 -0.2554  0.0137 -0.2289
15230W        W19630  13.619   1.022  15.151  0.1327 -0.0245 -0.1172
15231W        W19631  24.396   4.917  24.317  0.3094  0.0201  0.0324
15232W        W19632  24.422   1.712  10.432 -0.0386  0.0830 -0.1074
15233W        W19633  20.132   7.172   1.909 -0.0399 -0.2134 -0.0131
15234W        W19634  18.306   0.349  22.896 -0.1925 -0.0719 -0.0793
15235W        W19635   3.894   5.458   3.449 -0.1520  0.0992 -0.0430
15236W        W19636  16.845   5.726  22.256 -0.2945  0.0048 -0.0926
15237W        W19637  15.773   7.649  17.303  0.1963  0.0454 -0.0300
15238W        W19638  10.938   0.296  19.429  0.2226 -0.2159  0.3140
15239W        W19639  22.462   4.098   6.798  0.2228  0.0402 -0.0625
15240W        W19640   7.980   7.102  16.043 -0.0873 -0.0104  0.0346
15241W        W19641  15.954   1.491  19.739 -0.2937  0.1070 -0.1388
15242W        W19642  13.233   6.965  20.114 -0.0589  0.3084 -0.0581
15243W        W19643  28.044   1.276  22.701 -0.1425 -0.1134  0.0767
15244W        W19644   9.612   5.501  22.400 -0.2228  0.0413  0.2431
15245W        W19645   4.935   6.206   7.422  0.0341 -0.1640  0.1033
15246W        W19646   7.118   3.970  22.180 -0.1700 -0.2047 -0.0526
15247W        W19647  15.011   0.700   4.249  0.1351  0.1477  0.2439
15248W        W19648   4.784   2.946  16.179  0.0815  0.1680 -0.2679
15249W        W19649  22.543   2.952  23.161  0.0110  0.2316  0.3115
15250W        W19650   9.677   3.692  20.491 -0.2931 -0.2564 -0.0628
15251W        W19651  17.833   0.743  17.188  0.0220  0.2438  0.5013
15252W        W19652  12.110   3.051   9.997 -0.1058 -0.1369  0.0297
15253W        W19653  29.907   5.785   3.949 -0.0505  0.1738 -0.2087
15254W        W19654   2.950   3.397  18.232 -0.2122  0.1738 -0.1052
15255W        W19655  29.336   6.978   9.864 -0.1650 -0.2604  0.1590
15256W        W19656  21.450   2.876   1.253  0.2201  0.1732  0.0631
15257W        W19657   3.278   0.794  23.933 -0.2993  0.1255 -0.0576
15258W        W19658  12.473   1.637   8.303  0.0190  0.1427 -0.1753
15259W        W19659  29.325   1.951   2.539  0.2232 -0.1309  0.1052
15260W        W19660   8.718   7.479  22.812  0.0264  0.3129 -0.1217
15261W        W19661   7.634   6.076   8.897  0.0484 -0.0798 -0.1282
15262W        W19662  18.752   4.252   5.577  0.0071  0.3440  0.0731
15263W        W19663  24.924   3.683   1.093  0.1951  0.1530  0.0650
15264W        W19664  17.062   6.976  19.183 -0.0577 -0.0664  0.1097
15265W        W19665   7.478   5.052  15.575  0.0154 -0.1134 -0.2395
15266W        W19666  17.282   3.359  19.602 -0.0329  0.0208 -0.1672
15267W        W19667  10.864   3.500  10.010 -0.0069 -0.4940 -0.2644
15268W        W19668  13.981   3.756  25.802 -0.2792  0.0937  0.0392
15269W        W19669  28.847   0.490  20.892 -0.0496 -0.4677  0.4572
15270W        W19670  12.094   2.438  10.932  0.2125 -0.1283 -0.1085
15271W        W19671  22.093   6.316   1.772  0.0868 -0.0809  0.0665
15272W        W19672  30.166   2.810   3.144  0.3600  0.2129  0.0528
15273W        W19673   4.298   0.704  16.047 -0.1745 -0.2871 -0.0187
15274W        W19674   7.087   6.529   0.662  0.2087 -0.1118 -0.0626
15275W        W19675  15.575   0.815   8.717 -0.0628  0.2853 -0.1715
15276W        W19676  18.952   4.480  18.496  0.4524  0.2068 -0.0369
15277W        W19677  25.667   0.508  18.539  0.1889  0.1196 -0.0094
15278W        W19678  27.841   6.576   6.795  0.0023  0.0936 -0.0457
15279W        W19679   9.340   0.431   2.271 -0.1880  0.0112  0.1656
15280W        W19680  30.706   1.500  23.702 -0.5146  0.1197 -0.0464
15281W        W19681  23.726   2.632  19.243 -0.0723 -0.2061 -0.1642
15282W        W19682  12.541   2.078  22.044  0.2442 -0.1091 -0.1097
15283W        W19683  28.962   2.455   6.094 -0.1009 -0.0406 -0.1905
15284W        W19684   8.354   5.820  19.175  0.0862  0.3323 -0.0163
15285W        W19685   9.531   3.430   3.865 -0.0107 -0.2030  0.1625
15286W        W19686   4.751   7.414   8.876 -0.0231  0.3530  0.2839
15287W        W19687  22.849   4.603  15.643  0.0782 -0.2005 -0.0671
15288W        W19688  12.177   1.764  25.706  0.0959  0.2340  0.0493
15289W        W19689  22.119   0.426  25.936  0.0974 -0.0751  0.0451
15290W        W19690  19.036   3.673   8.777 -0.0530 -0.2317  0.3756
15291W        W19691  29.083   1.432  18.586 -0.1292 -0.0120 -0.0454
15292W        W19692  30.481   4.280  24.821  0.2704 -0.1954  0.0132
15293W        W19693  31.192   0.366  16.555  0.0943 -0.0435 -0.0744
15294W        W19694  22.095   5.139   7.781 -0.0050  0.0195 -0.0726
15295W        W19695   3.429   0.562   5.006 -0.1866  0.2606 -0.2845
15296W        W19696  27.619   6.588  16.187 -0.0242  0.2207 -0.0097
15297W        W19697   6.817   4.065  25.168 -0.1492  0.3552  0.0810
15298W        W19698   9.927   3.360   6.485 -0.1349 -0.3276 -0.0734
15299W        W19699   3.956   3.159  22.725  0.2193  0.0040  0.1069
15300W        W19700  25.632   7.606  21.522 -0.1424  0.1083  0.2792
15301W        W19701  27.571   2.669  25.789  0.2853 -0.3263 -0.1449
15302W        W19702  26.565   3.281  22.179  0.3056  0.0186 -0.0959
15303W        W19703   5.026   3.207  17.343 -0.1407  0.0443  0.1056
15304W        W19704  26.699   0.721  15.592  0.2962  0.0418 -0.3715
15305W        W19705  13.459   7.060  10.271 -0.1135  0.0054 -0.4231
15306W        W19706  17.810   3.506   3.028  0.0257  0.0860  0.4531
15307W        W19707   5.175   7.494   4.179  0.1253 -0.2084 -0.0752
15308W        W19708  18.405   7.265   2.696  0.0716  0.0155 -0.1024
15309W        W19709  27.616   6.495  10.998 -0.0849  0.0352  0.0305
15310W        W19710  19.271   0.993   3.658 -0.0131  0.1878 -0.0275
15311W        W19711  26.842   5.071   6.940 -0.0337  0.1990 -0.0484
15312W        W19712   5.752   2.034   9.184  0.1835 -0.0998 -0.1481
15313W        W19713  28.654   0.875  10.623  0.2197  0.2998 -0.1695
15314W        W19714  18.376   1.933   7.107  0.0350 -0.0926  0.0299
15315W        W19715  15.109   1.446  22.789  0.1114  0.3779 -0.1872
15316W        W19716   9.018   4.448  23.301 -0.3490  0.2499  0.1158
15317W        W19717  28.233   1.983  16.702 -0.2280  0.2359  0.3035
15318W        W19718  17.776   2.860  21.598  0.0615 -0.0646  0.0189
15319W        W19719  22.690   4.711  17.331  0.0438  0.0169 -0.1511
15320W        W19720  11.697   0.893   7.803  0.2134  0.3663 -0.0845
15321W        W19721  23.335   7.457   1.542  0.0580  0.2198 -0.2274
15322W        W19722  31.054   4.576  15.936  0.2396  0.0551 -0.4189
15323W        W19723  14.083   0.770   1.223  0.1340  0.1414  0.2373
15324W        W19724   9.432   5.140   0.809 -0.1434 -0.3453  0.0802
15325W        W19725  28.215   0.315   4.802 -0.2846 -0.1095 -0.1453
15326W        W19726   1.490   0.708   6.692 -0.1128  0.4593 -0.4422
15327W        W19727   3.197   6.280  20.847  0.1668  0.3373  0.0085
15328W        W19728  12.789   5.820  17.382 -0.1391  0.0385 -0.1067
15329W        W19729  22.932   3.341  17.611  0.1700 -0.4351  0.0911
15330W        W19730  16.379   3.666   8.455  0.2717  0.3216 -0.0187
15331W        W19731  16.196   1.080  10.233  0.4094  0.2073  0.0147
15332W        W19732  15.500   3.331  15.509  0.0207  0.0983 -0.0840
15333W        W19733   8.456   4.084   6.617 -0.0317 -0.1062  0.5270
15334W        W19734  24.782   2.588  21.325  0.0286  0.0606  0.1338
15335W        W19735   1.213   2.379  24.341 -0.0898 -0.1060 -0.0972
15336W        W19736  19.534   6.737  20.916 -0.0168  0.3009 -0.0236
15337W        W19737  29.843   5.372  24.063 -0.1132  0.1866 -0.0707
15338W        W19738   1.292   0.241   6.571  0.0732 -0.0751  0.0427
15339W        W19739  26.069   4.949  22.001 -0.0413 -0.1995  0.0668
15340W        W19740   6.364   3.444  22.972  0.1527  0.1509 -0.0949
15341W        W19741  14.813   0.879  18.028  0.0238 -0.0141  0.2852
15342W        W19742  27.572   7.062   4.830 -0.0492  0.2365  0.1390
15343W        W19743  22.094   7.671  16.772  0.1099 -0.1930  0.3091
15344W        W19744   7.157   7.374   5.044  0.2001  0.1219  0.1030
15345W        W19745  14.389   3.041  10.765  0.2047 -0.1819  0.3415
15346W        W19746  31.096   1.305  10.326 -0.2553  0.0724  0.1158
15347W        W19747  13.854   7.263   0.495 -0.0571  0.1020  0.3722
15348W        W19748  20.835   1.199   2.675  0.0592  0.1477  0.0729
15349W        W19749   1.790   3.978  20.052  0.0814 -0.0230  0.2635
15350W        W19750  20.140   7.447  18.689 -0.2159 -0.0203 -0.0062
15351W        W19751  15.571   0.540  25.303  0.2399 -0.2456  0.0376
15352W        W19752  12.123   5.702  14.658 -0.2655 -0.1881  0.0370
15353W        W19753  13.630   6.605  19.678 -0.1017  0.0515  0.0400
15354W        W19754  27.495   5.183  10.062 -0.1040  0.2160 -0.4625
15355W        W19755   3.215   5.183   9.072  0.0966  0.2284 -0.2658
15356W        W19756   9.483   1.027  16.386 -0.3257 -0.0723  0.2056
15357W        W19757  30.362   1.254  22.964 -0.0008  0.0730 -0.3871
15358W        W19758   0.091   2.416   7.657 -0.0958 -0.0448 -0.0353
15359W        W19759  30.058   1.426  15.526  0.1478  0.0296  0.1941
15360W        W19760  20.219   0.018  19.909 -0.0406 -0.1119 -0.2622
15361W        W19761  20.668   6.337   4.450 -0.2996  0.0005 -0.3650
15362W        W19762   2.513   2.023   3.573  0.1032 -0.1878 -0.0791
15363W        W19763  12.014   2.795   6.949 -0.1318  0.0205 -0.1305
15364W        W19764   9.418   5.949  24.665  0.3531 -0.1746  0.1774
15365W        W19765   1.673   6.614   3.639  0.3923  0.1670 -0.1005
15366W        W19766  22.735   6.745   1.527 -0.1520 -0.2003 -0.0725
15367W        W19767  25.378   0.267  23.455  0.1237  0.1175  0.1451
15368W        W19768  23.522   3.155   8.268 -0.1172  0.0278 -0.0114
15369W        W19769   4.967   4.440   2.630  0.0606 -0.1754 -0.0165
15370W        W19770  15.776   3.364   7.731  0.1056  0.0906  0.3084
15371W        W19771  17.718   5.451   3.582 -0.0270  0.2639 -0.0738
15372W        W19772  23.141   0.460   9.903 -0.0591 -0.2048  0.0705
15373W        W19773  24.951   0.232   8.971  0.0145  0.1847  0.2691
15374W        W19774  28.706   7.068   2.530 -0.0418  0.1291 -0.0130
15375W        W19775  16.069   1.323  23.583  0.0226 -0.1272  0.0531
15376W        W19776  11.242   4.554   8.680  0.0891 -0.1482 -0.0777
15377W        W19777   4.492   1.375  25.132 -0.2272  0.0396  0.4097
15378W        W19778  18.498   2.242  16.847  0.0682  0.0874  0.0975
15379W        W19779  26.214   3.492  24.013 -0.1532 -0.0415  0.1238
15380W        W19780  10.507   4.452   1.157 -0.0683 -0.0521 -0.1159
15381W        W19781   9.034   2.322  23.579 -0.0842 -0.0951  0.1552
15382W        W19782   5.612   1.535   2.401  0.3217 -0.3332 -0.0217
15383W        W19783  12.692   3.640  22.265 -0.2088  0.1161  0.2109
15384W        W19784   5.733   4.405   1.485  0.2226 -0.0238  0.0732
15385W        W19785  12.327   3.353  18.671 -0.0974  0.0955  0.0558
15386W        W19786  20.360   0.862   0.608 -0.1668  0.0918 -0.0037
15387W        W19787   8.564   3.975  20.084 -0.0785  0.1680 -0.1243
15388W        W19788  28.960   5.238  23.557 -0.0342  0.2734  0.1280
15389W        W19789  26.609   7.299  15.319 -0.1031 -0.0316  0.1248
15390W        W19790  20.623   0.705  16.607  0.0593  0.2302 -0.3641
15391W        W19791  21.383   0.155   0.942  0.0336  0.1316 -0.0246
15392W        W19792   2.781   1.016   4.710  0.1728  0.1495  0.3391
15393W        W19793  14.285   5.552  15.538  0.1613  0.0371 -0.4269
15394W        W19794  20.777   6.075   6.004  0.1264 -0.0592 -0.0048
15395W        W19795  21.821   3.600  24.883 -0.1949 -0.0870  0.1036
15396W        W19796  16.007   7.400   8.189 -0.0764  0.0602  0.1255
15397W        W19797  21.737   2.490   0.481 -0.1191  0.1785 -0.3213
15398W        W19798  15.676   2.082  22.075  0.3065 -0.1971  0.1281
15399W        W19799  22.919   1.251   3.663 -0.2103  0.0841 -0.3008
15400W        W19800  10.152   5.757   7.188 -0.2123  0.1098  0.0697
15401W        W19801  11.921   5.405  19.028  0.0475  0.1858 -0.0049
15402W        W19802  22.080   0.000   4.951 -0.2857 -0.1193 -0.0898
15403W        W19803  17.685   2.750  21.078 -0.1703  0.2277 -0.1308
15404W        W19804  18.600   5.232  20.191 -0.1236  0.0744  0.1650
15405W        W19805  26.523   1.183  10.373 -0.2631 -0.0366 -0.0894
15406W        W19806   6.686   0.924   9.424  0.0754 -0.4690 -0.0467
15407W        W19807  21.034   6.258   1.940  0.0889  0.1687  0.0694
15408W        W19808  15.506   1.773  23.082  0.1747 -0.0537 -0.0830
15409W        W19809   0.958   6.065  21.957  0.0624 -0.1197  0.3399
15410W        W19810  17.301   6.231   0.161 -0.1323  0.0127 -0.0775
15411W        W19811  21.634   3.713  18.177 -0.1369  0.0980  0.0405
15412W        W19812  17.122   6.400  10.974  0.1800  0.0915 -0.2406
15413W        W19813  30.989   6.503  22.555 -0.1864 -0.1135 -0.0609
15414W        W19814   7.847   6.883   3.498  0.1161  0.0596  0.3055
15415W        W19815  27.171   7.004   8.417 -0.1476 -0.0485 -0.1080
15416W        W19816  22.428   6.437   9.202 -0.0191  0.1927 -0.0133
15417W        W19817   4.017   5.569  22.066  0.1761 -0.1296 -0.2587
15418W        W19818  19.392   7.095  16.136 -0.1728 -0.0112  0.0017
15419W        W19819   3.057   0.349  25.708  0.0683  0.0743 -0.0559
15420W        W19820  12.643   3.525  18.185  0.1541  0.3796  0.1145
15421W        W19821   7.132   0.248  17.771 -0.1663  0.0948  0.0695
15422W        W19822  11.938   4.151   2.899 -0.0740 -0.1281  0.2041
15423W        W19823  14.641   1.116  19.909  0.0380  0.0000  0.2109
15424W        W19824   4.615   2.056   2.754  0.1660  0.0980  0.0771
15425W        W19825  28.940   5.111   3.753  0.1364 -0.3694 -0.0914
15426W        W19826  30.608   1.942   7.839 -0.1960 -0.2467  0.0092
15427W        W19827  16.224   0.156   6.029  0.2619  0.0009  0.0924
15428W        W19828   7.773   1.671  15.638 -0.2637  0.0927 -0.0049
15429W        W19829   6.664   1.555  19.849 -0.0607  0.0137  0.0440
15430W        W19830  20.529   1.176  20.620  0.2931  0.0573  0.0121
15431W        W19831   6.090   6.901   6.970 -0.1217  0.2665  0.0160
15432W        W19832  23.180   2.773   4.221 -0.1694 -0.3509 -0.0004
15433W        W19833  11.873   0.504   2.327 -0.0180  0.1504 -0.1217
15434W        W19834  30.185   0.140   3.191  0.3050 -0.0661 -0.1844
15435W        W19835  15.824   0.476  20.489 -0.0948 -0.3956  0.0429
15436W        W19836   1.694   1.603  10.777  0.1096 -0.0443 -0.1202
15437W        W19837  14.305   6.120  24.765  0.0753  0.2107  0.2336
15438W        W19838  20.944   4.603  10.473 -0.2103 -0.0047 -0.0668
15439W        W19839  20.600   1.228  15.401 -0.0062 -0.0425 -0.1274
15440W        W19840   8.101   1.349   3.070  0.0659  0.4711  0.1405
15441W        W19841   7.953   7.343   4.514  0.0158  0.0505  0.0069
15442W        W19842  24.124   3.032   1.027 -0.0152  0.2635 -0.0640
15443W        W19843  26.401   2.929   1.737  0.0786  0.0846  0.3106
15444W        W19844   2.357   2.438   4.807  0.2543  0.0532 -0.0887
15445W        W19845   1.373   5.949  19.922  0.0429 -0.1153  0.2666
15446W        W19846   0.218   7.821  22.383 -0.2747  0.0231  0.3533
15447W        W19847   8.197   6.408   1.848 -0.1872 -0.0307  0.2172
15448W        W19848  16.916   3.123   6.359  0.0879  0.0050  0.0289
15449W        W19849  11.169   3.025  25.197 -0.0597 -0.3237  0.1334
15450W        W19850  11.280   0.757   3.451 -0.1689 -0.1865 -0.0801
15451W        W19851  12.697   4.240  15.846 -0.1610  0.1617  0.1177
15452W        W19852  21.882   6.999  20.164  0.2649  0.0382  0.0369
15453W        W19853  15.177   5.728  20.707 -0.0441  0.0210  0.4835
15454W        W19854  21.425   6.827  15.493 -0.0296 -0.1675 -0.0628
15455W        W19855  20.361   2.968   3.052 -0.1181  0.2136  0.0475
15456W        W19856   7.580   0.717  17.001  0.0219  0.0064  0.2957
15457W        W19857   8.956   2.319   4.229 -0.3237 -0.1263 -0.2866
15458W        W19858   8.107   4.012  16.970  0.2033  0.0793  0.3014
15459W        W19859  26.571   7.347  10.887 -0.0961  0.0248  0.2522
15460W        W19860  23.112   5.604   2.263  0.1199  0.1346 -0.0682
15461W        W19861  15.243   2.657  25.499 -0.2043 -0.0742  0.3214
15462W        W19862  14.606   5.762   1.696 -0.1636 -0.0832 -0.0588
15463W        W19863  20.881   4.181   7.208  0.1834 -0.1634  0.4302
15464W        W19864  20.253   2.355   9.530 -0.0471  0.1613 -0.2876
15465W        W19865  27.303   0.052   6.479 -0.1515  0.1152  0.0136
15466W        W19866   9.382   7.543   8.576  0.0649  0.1013  0.1560
15467W        W19867  30.938   0.806  16.487  0.0733  0.3062 -0.1314
15468W        W19868  25.698   1.598  16.449 -0.0931 -0.0310  0.1384
15469W        W19869   0.629   0.560   0.784 -0.0952 -0.1703 -0.3036
15470W        W19870  29.171   0.459  23.186  0.1383 -0.2713  0.2073
15471W        W19871   6.769   2.616  18.683 -0.0605  0.1705  0.0969
15472W        W19872  17.787   1.666  19.406  0.2419 -0.0876  0.1293
15473W        W19873  14.246   5.134  22.446 -0.1043 -0.1135  0.3867
15474W        W19874  28.257   7.072  20.475 -0.1474  0.0204  0.2440
15475W        W19875  26.915   1.529  18.582 -0.2347  0.1593 -0.0238
15476W        W19876  27.910   0.321  19.602  0.0787 -0.0496 -0.2118
15477W        W19877   2.423   3.288   1.308  0.0134 -0.1099 -0.3313
15478W        W19878   9.012   6.881   1.806  0.2722  0.0221  0.0495
15479W        W19879  11.704   1.734  19.153  0.1708  0.1501  0.1789
15480W        W19880   7.069   7.198   1.285 -0.0809  0.3710  0.2372
15481W        W19881  14.234   4.058   4.989  0.1485 -0.0446  0.1881
15482W        W19882  16.613   3.970  10.194 -0.0096  0.2442  0.0176
15483W        W19883   8.984   0.044   0.407 -0.1080  0.0088  0.0345
15484W        W19884  26.033   1.676  15.286 -0.0510 -0.4763  0.0555
15485W        W19885   0.502   1.867  17.436  0.1318  0.1981  0.1287
15486W        W19886   5.599   2.087  11.686 -0.0972  0.4768  0.0299
15487W        W19887   0.605   3.020   9.000 -0.1974 -0.0324 -0.1741
15488W        W19888  17.487   2.416  18.773  0.2796 -0.0165 -0.1969
15489W        W19889  15.675   1.249   5.793 -0.1276 -0.0886 -0.1473
15490W        W19890  10.087   6.106  22.762 -0.1186 -0.2529 -0.2067
15491W        W19891  24.764   6.738  25.568  0.2098 -0.0430  0.0303
15492W        W19892  19.054   1.416  23.671  0.2044  0.0779  0.1975
15493W        W19893   9.463   6.743  25.541  0.0898  0.1870 -0.0494
15494W        W19894   3.426   7.628  25.591 -0.6084 -0.2415  0.1962
15495W        W19895  10.376   6.562   6.684  0.0992 -0.1331 -0.1428
15496W        W19896   5.124   1.916  10.754  0.1879  0.0039 -0.0831
15497W        W19897  11.047   5.152  25.732 -0.1170 -0.3034 -0.0478
15498W        W19898  30.526   7.441   0.081  0.0191 -0.1050  0.0808
15499W        W19899  17.462   3.273  16.405 -0.0451  0.0284 -0.0386
15500W        W19900   9.085   0.078  19.878  0.0066 -0.0414  0.1295
15501W        W19901   2.585   1.795   6.658  0.0011  0.0914  0.3285
15502W        W19902  14.693   2.201   8.484 -0.0211  0.3424 -0.1298
15503W        W19903   3.026   4.780  24.270 -0.1269 -0.2106 -0.0900
15504W        W19904  12.113   2.811   2.016 -0.0516 -0.1257  0.1564
15505W        W19905   0.533   3.917   2.244  0.0308 -0.2496  0.0008
15506W        W19906   9.510   4.221  17.807  0.2004 -0.0569 -0.0553
15507W        W19907   4.596   0.252  21.854  0.3716  0.2755  0.0602
15508W        W19908  19.325   4.134  24.376  0.0187  0.0076  0.1145
15509W        W19909   6.675   7.008   9.973  0.1289 -0.2762 -0.0289
15510W        W19910  28.932   3.317  20.315 -0.0255  0.0134 -0.4610
15511W        W19911  29.648   2.649   5.530  0.2673 -0.0946 -0.0014
15512W        W19912  12.483   1.541   7.784 -0.0990  0.2843  0.0983
15513W        W19913   7.120   3.004   2.816 -0.0557  0.1517 -0.2034
15514W        W19914   6.150   6.265  10.359  0.1020  0.1637  0.1653
15515W        W19915   1.742   7.208   1.057  0.0712  0.2440 -0.2131
15516W        W19916   8.809   0.698   3.854 -0.0078 -0.0342 -0.0594
15517W        W19917   8.470   0.493  25.327  0.1805  0.0594  0.0523
15518W        W19918  17.383   1.302  19.266 -0.0193 -0.3763  0.2475
15519W        W19919  12.430   4.272  20.503 -0.1372  0.1005 -0.2040
15520W        W19920   8.101   4.527  21.793  0.2200  0.0213 -0.1505
15521W        W19921  13.722   0.076  25.918 -0.1566 -0.0614  0.3173
15522W        W19922  12.276   1.122  18.127 -0.0443 -0.2369  0.0416
15523W        W19923  28.465   6.006   7.759  0.0650 -0.1261  0.3879
15524W        W19924   9.338   0.765   8.372 -0.1638  0.1231 -0.2102
15525W        W19925  22.159   6.557  18.640  0.3767  0.3425  0.1903
15526W        W19926  26.745   5.765  22.012 -0.2863 -0.0032  0.0682
15527W        W19927   0.429   1.073   3.284 -0.3675  0.3932  0.0506
15528W        W19928   6.688   7.287   5.949 -0.1845 -0.0168 -0.0342
15529W        W19929   4.370   6.552   5.226  0.1461 -0.1266  0.1433
15530W        W19930   0.700   6.304  24.766 -0.0168  0.0769  0.0382
15531W        W19931  19.339   3.897  23.940  0.0126  0.0846  0.0307
15532W        W19932  16.513   4.144  21.615  0.0927 -0.2543 -0.1999
15533W        W19933  13.329   3.991  18.081  0.0175 -0.1169  0.1990
15534W        W19934  14.226   6.959   3.970 -0.2855 -0.1940 -0.0487
15535W        W19935  30.005   5.313   9.226 -0.1289  0.2365 -0.4703
15536W        W19936   7.401   6.760  23.292 -0.1250 -0.0033 -0.1371
15537W        W19937  20.479   7.685  25.667 -0.0633  0.0323 -0.0109
15538W        W19938  25.569   5.856  15.260 -0.0839  0.2495  0.5306
15539W        W19939   5.209   6.303   8.290 -0.3308 -0.2063 -0.0203
15540W        W19940  23.026   1.946  24.514  0.2061 -0.2513  0.3484
15541W        W19941  12.698   2.395  15.880 -0.2838 -0.1384  0.2981
15542W        W19942   3.371   7.294   8.863  0.0112 -0.1010 -0.0805
15543W        W19943   3.998   5.433  25.592  0.2569  0.1155  0.0430
15544W        W19944  20.390   3.158  17.627 -0.3772 -0.1229 -0.0137
15545W        W19945  29.008   1.629  20.814 -0.1004  0.0077  0.2232
15546W        W19946  20.716   3.206  16.379 -0.1501 -0.0581 -0.0238
15547W        W19947  22.068   4.750  25.873 -0.0761  0.2913  0.2862
15548W        W19948   6.953   0.757   5.613 -0.0934  0.0951  0.2636
15549W        W19949   0.876   6.582   4.594 -0.2678  0.0118 -0.1937
15550W        W19950  18.975   1.330   1.298 -0.2120 -0.0432  0.0212
15551W        W19951  14.651   4.192   3.587 -0.1398 -0.0544 -0.0204
15552W        W19952  10.946   6.781   9.761 -0.2575  0.2406 -0.0205
15553W        W19953  25.222   5.062  18.672  0.2444 -0.0585  0.1198
15554W        W19954  21.444   7.283  23.648  0.0865  0.0025  0.2299
15555W        W19955   6.242   4.555   6.804 -0.0560 -0.0390 -0.1642
15556W        W19956  23.813   3.558   0.914  0.1863  0.2295  0.1446
15557W        W19957  16.855   5.930   0.916  0.0342 -0.1512 -0.0774
15558W        W19958  25.386   1.899  18.327 -0.0852  0.0457  0.0903
15559W        W19959  17.364   7.693  15.301 -0.0600  0.4865 -0.2027
15560W        W19960  12.740   5.481   7.573  0.0458 -0.1804 -0.1375
15561W        W19961  24.626   3.131  10.345 -0.0579 -0.0013  0.0719
15562W        W19962  26.484   1.520   5.698  0.2644  0.1311 -0.0507
15563W        W19963  26.075   5.348  24.203  0.1358 -0.3721  0.2372
15564W        W19964  28.220   3.160   3.060  0.3053  0.0742  0.0585
15565W        W19965  15.545   2.121  16.694 -0.0061 -0.1008  0.1603
15566W        W19966  11.246   2.949   3.794 -0.2964 -0.1151 -0.1296
15567W        W19967  11.807   7.243  18.606  0.1970  0.2346  0.1397
15568W        W19968  28.991   5.823  10.354  0.2677 -0.1466  0.1974
15569W        W19969   0.628   3.508  19.781 -0.0645  0.1120  0.0145
15570W        W19970   4.694   5.819   1.087  0.1315 -0.4911  0.1185
15571W        W19971  19.693   7.395   0.040 -0.1081 -0.1220 -0.2072
15572W        W19972  15.559   1.086   6.794 -0.3272 -0.1097 -0.0267
15573W        W19973  13.195   6.634  18.537 -0.0065  0.0351 -0.0080
15574W        W19974   3.222   5.281  20.586  0.1355  0.0159 -0.0675
15575W        W19975  14.242   7.810  17.934 -0.1769  0.0445 -0.1411
15576W        W19976   5.734   3.066   9.281  0.0025  0.1458 -0.2079
15577W        W19977  30.272   7.180   0.878  0.0995 -0.0046 -0.0149
15578W        W19978  10.073   7.400   1.076 -0.0789 -0.1460 -0.0385
15579W        W19979  11.762   2.144  25.857  0.0001 -0.1839 -0.0999
15580W        W19980   7.268   6.409   6.845 -0.0934 -0.3655  0.0033
15581W        W19981   9.939   3.532   8.985  0.0443  0.0220  0.0985
15582W        W19982  12.925   3.542   1.695  0.4442  0.1074  0.1220
15583W        W19983   9.605   5.877  19.758  0.1295 -0.0182 -0.0050
15584W        W19984  29.944   0.572   3.350 -0.2611 -0.1236 -0.0621
15585W        W19985   3.327   0.789   2.699  0.1547 -0.3300 -0.0066
15586W        W19986  16.386   4.858  19.975 -0.1433 -0.4719 -0.1486
15587W        W19987  12.600   6.145   8.247 -0.2017 -0.0808 -0.0808
15588W        W19988   6.077   6.751  23.481  0.3354 -0.1439  0.2325
15589W        W19989   5.052   0.915  17.155 -0.3041 -0.3940 -0.0968
15590W        W19990  10.988   0.754   5.571 -0.0049 -0.0576  0.3916
15591W        W19991  16.114   3.464  22.675  0.3893  0.0263  0.1977
15592W        W19992  29.963   2.529   9.291 -0.1579 -0.1959  0.1319
15593W        W19993  23.534   6.142  23.542 -0.1391 -0.0132 -0.1431
15594W        W19994  21.843   1.774  21.315  0.0332  0.0919  0.1589
15595W        W19995  28.519   1.896  17.729 -0.0757 -0.0398  0.3637
15596W        W19996  14.285   6.887  21.705 -0.1959  0.2511 -0.0918
15597W        W19997  17.563   3.642   9.828 -0.0853 -0.0050 -0.0154
15598W        W19998  21.127   4.137  25.509  0.0370 -0.1947  0.0381
15599W        W19999  15.726   0.457  19.922 -0.2879  0.1667  0.1389
15600W        W20000  11.140   1.352  17.945 -0.2322 -0.0248  0.0132
15601W        W20001  22.810   7.403  15.269  0.1589 -0.0834 -0.1980
15602W        W20002  15.318   0.404   7.581  0.1151  0.0597 -0.1260
15603W        W20003  28.121   5.088  15.526  0.4489 -0.1231  0.0106
15604W        W20004  11.025   6.971  23.163  0.0660 -0.1205 -0.1428
15605W        W20005   3.472   3.358  23.568  0.2080 -0.3489 -0.1603
15606W        W20006  14.538   0.514   3.452  0.1164 -0.2458 -0.1952
15607W        W20007  17.311   0.894  15.853 -0.3089 -0.2975 -0.1570
15608W        W20008  30.101   1.075  11.233  0.0505  0.2377 -0.0117
15609W        W20009  29.193   0.245  22.632  0.0573 -0.1339  0.0465
15610W        W20010   4.651   1.368  11.139  0.1424 -0.0801  0.4711
15611W        W20011   5.219   2.771   5.927 -0.1428 -0.3292 -0.0504
15612W        W20012   0.234   0.812  25.806  0.2548  0.2338 -0.1614
15613W        W20013   4.607   7.325   8.389  0.2644 -0.0714 -0.3277
15614W        W20014  15.600   3.567  19.382 -0.1412 -0.0105 -0.1064
15615W        W20015   3.414   7.324  21.699 -0.0308  0.0291  0.2434
15616W        W20016  27.204   2.533  19.742 -0.0365 -0.0786 -0.0592
15617W        W20017   3.516   5.369  10.502 -0.0484  0.0999  0.0427
15618W        W20018  29.002   3.982   8.490  0.1004  0.1018 -0.1470
15619W        W20019  23.930   1.022  22.352 -0.0707 -0.1073 -0.0238
15620W        W20020  31.069   2.657   1.708 -0.0802  0.0015  0.1866
15621W        W20021  23.765   6.834   7.604 -0.0562  0.0846  0.1011
15622W        W20022  31.227   4.045  22.342  0.1933  0.0178  0.2300
15623W        W20023  22.707   7.414  19.791 -0.1362  0.0227  0.2287
15624W        W20024   7.539   1.380  20.832  0.1104 -0.0820  0.1909
15625W        W20025  10.495   5.860   6.302 -0.3455 -0.0980  0.0513
15626W        W20026   2.305   4.045  10.839  0.0319 -0.2031 -0.1380
15627W        W20027  30.242   1.234  25.174  0.1677  0.4388  0.1077
15628W        W20028  20.341   5.076  23.981 -0.2248 -0.0765 -0.3823
15629W        W20029  15.131   5.263  22.882  0.0312 -0.0647  0.0936
15630W        W20030   0.527   2.371  18.013 -0.2230  0.0313 -0.0388
15631W        W20031   9.399   4.727  23.149  0.0290 -0.1013  0.0958
15632W        W20032  28.410   4.074   4.450  0.3932 -0.0103  0.1750
15633W        W20033  18.895   3.603   3.575 -0.0074 -0.2487 -0.2246
15634W        W20034  10.984   5.028  24.562 -0.3092 -0.0451  0.0122
15635W        W20035  12.310   0.823   0.576 -0.0051 -0.2007  0.1944
15636W        W20036   9.014   0.445   8.163  0.3264 -0.2411 -0.0425
15637W        W20037  10.672   7.136   8.967  0.0008 -0.0626  0.2070
15638W        W20038  11.716   4.275  24.696 -0.3977  0.1839  0.0330
15639W        W20039  29.933   4.885  24.187 -0.2180  0.1241  0.2588
15640W        W20040   2.208   4.702   3.021  0.0288 -0.2220 -0.0791
15641W        W20041  25.306   3.375  19.344  0.0234 -0.1292 -0.2011
15642W        W20042  14.857   4.403   5.749 -0.0609 -0.0118  0.0824
15643W        W20043   4.752   6.789  10.719 -0.0166 -0.2820  0.1139
15644W        W20044  31.095   7.116  17.487  0.0415  0.1087 -0.0591
15645W        W20045  23.791   2.199   3.791  0.1204  0.2476 -0.5927
15646W        W20046  30.418   4.341   3.744  0.0870 -0.1206 -0.1842
15647W        W20047  17.817   6.962  16.381 -0.0417  0.2335 -0.2088
15648W        W20048  23.047   6.136   6.715 -0.3137 -0.1486  0.1333
15649W        W20049  18.076   2.680  23.773 -0.1208  0.2488  0.0416
15650W        W20050   1.018   4.386   9.632  0.0227 -0.3121  0.1814
15651W        W20051  11.100   3.464  24.949  0.1497 -0.1465 -0.0173
15652W        W20052  29.121   1.269   7.975  0.0788  0.0561 -0.1444
15653W        W20053   4.130   1.414   2.958 -0.2432 -0.1756 -0.2461
15654W        W20054  16.640   4.919  20.402  0.2804 -0.1281 -0.0724
15655W        W20055  18.939   5.441   0.385  0.2915 -0.2528 -0.0738
15656W        W20056  11.989   4.231   6.585  0.6886 -0.0071  0.3337
15657W        W20057  13.809   3.362  20.140  0.0297  0.2446 -0.1007
15658W        W20058   3.999   4.104   3.428 -0.0590 -0.0598  0.2516
15659W        W20059  27.913   4.629  21.005 -0.3172 -0.1508  0.1321
15660W        W20060  23.123   2.081  15.597 -0.0572 -0.0869 -0.1950
15661W        W20061  11.220   4.127  22.741  0.1842  0.0041 -0.1903
15662W        W20062   3.071   3.906  24.213 -0.0522  0.0873 -0.1921
15663W        W20063   9.639   4.136  22.227 -0.2117 -0.1175  0.3587
15664W        W20064  23.979   5.788  18.505 -0.0589  0.0536  0.0400
15665W        W20065  25.015   2.244  10.258  0.2577 -0.0177 -0.2295
15666W        W20066  14.278   1.248  24.735  0.3024  0.2162  0.1752
15667W        W20067   2.644   1.572  23.054 -0.3253 -0.0063  0.1464
15668W        W20068  22.492   3.106  14.947  0.0566  0.2010 -0.1563
15669W        W20069   7.058   2.856   1.568 -0.0404  0.0012  0.0320
15670W        W20070   9.858   7.107  16.130  0.0162 -0.1526 -0.0149
15671W        W20071  28.672   0.060  25.159  0.3074 -0.0541 -0.0532
15672W        W20072   2.151   1.071  18.410 -0.0311  0.0101 -0.0201
15673W        W20073  16.167   1.511  24.379  0.0216  0.0693 -0.0495
15674W        W20074  10.880   3.571  25.553 -0.0606  0.2618 -0.1815
15675W        W20075  23.484   5.966  20.726 -0.1194  0.0505  0.1365
15676W        W20076   6.414   0.965  25.426  0.0384 -0.3135 -0.0513
15677W        W20077  28.673   2.908  20.541 -0.1210  0.2061 -0.0253
15678W        W20078  30.190   1.800   9.448  0.0303  0.2149  0.0190
15679W        W20079  18.112   2.004  14.702 -0.1338 -0.1984 -0.2495
15680W        W20080   4.124   0.951   3.702 -0.0570 -0.0205 -0.1070
15681W        W20081  14.229   5.010   7.839  0.1864  0.0648 -0.1712
15682W        W20082   2.288   6.932   6.526  0.2241 -0.2800 -0.1392
15683W        W20083  29.171   6.115  20.910  0.2555 -0.2635  0.2776
15684W        W20084  21.424   6.021   2.171  0.0753  0.2878  0.1397
15685W        W20085  17.098   1.240   3.766  0.0726  0.1314  0.2110
15686W        W20086  21.223   7.366   7.375  0.0017  0.0700  0.2428
15687W        W20087   7.024   1.572  22.940  0.2035 -0.1609 -0.3130
15688W        W20088  24.039   1.380  23.071 -0.1234  0.5351 -0.2523
15689W        W20089   9.601   1.722   6.385 -0.2574 -0.1779 -0.1773
15690W        W20090   7.198   6.310   6.355 -0.0028 -0.1542  0.0855
15691W        W20091  31.163   5.861  16.275 -0.1592  0.0273  0.0560
15692W        W20092   8.464   4.439  19.862 -0.0500  0.0059 -0.0487
15693W        W20093  12.240   2.146   8.266  0.4914  0.0690 -0.2432
15694W        W20094   4.309   2.776  25.291  0.3570  0.1525 -0.0148
15695W        W20095   8.426   1.493   1.634  0.3645  0.0612 -0.3469
15696W        W20096   2.406   0.829   5.035  0.2685 -0.1790 -0.3071
15697W        W20097  29.061   2.989  22.910  0.0787  0.0641  0.2993
15698W        W20098  28.200   6.900   2.438  0.1175  0.0754 -0.2188
15699W        W20099  11.140   1.414   6.656  0.1568  0.0545 -0.3201
15700W        W20100   1.675   1.624  25.640 -0.5920 -0.1721 -0.0777
15701W        W20101  23.625   5.525  16.564  0.0523 -0.0323  0.1925
15702W        W20102  22.189   5.362  25.084  0.0322 -0.0358 -0.2611
15703W        W20103  28.996   7.193  24.646 -0.0884  0.0325 -0.0206
15704W        W20104   4.491   3.565  18.454  0.0603  0.0235 -0.1702
15705W        W20105  23.660   0.283  17.382  0.1911  0.1123 -0.1486
15706W        W20106  22.633   0.059  16.639 -0.2292 -0.0925 -0.1474
15707W        W20107  22.707   2.580  25.370 -0.1127  0.0110 -0.1724
15708W        W20108  16.647   6.047   9.420 -0.2922 -0.1365 -0.0289
15709W        W20109   1.766   4.717  17.143  0.1128  0.0253 -0.0400
15710W        W20110  24.252   1.525   1.896 -0.0544 -0.1016  0.0414
15711W        W20111  29.691   5.292   9.816 -0.2264 -0.0941  0.0772
15712W        W20112  16.740   2.586   5.468 -0.0862 -0.2621  0.1894
15713W        W20113   8.180   0.020  15.492 -0.1275  0.1390 -0.0448
15714W        W20114  27.786   1.323  15.978 -0.0455  0.0922 -0.0517
15715W        W20115   2.518   0.665  24.664  0.0530  0.0280  0.2844
15716W        W20116  20.492   6.185  21.594 -0.2394 -0.0551  0.1640
15717W        W20117   1.487   6.685   5.744  0.1706 -0.1879  0.0952
15718W        W20118  20.212   0.702   3.764  0.1580  0.2950  0.0929
15719W        W20119  12.098   7.027   6.083 -0.0376  0.0956  0.0431
15720W        W20120   7.536   4.627  21.669 -0.0820 -0.0893 -0.4581
15721W        W20121  29.842   3.374  20.526 -0.1073 -0.0295 -0.0441
15722W        W20122  23.054   2.238   7.863 -0.4007 -0.1927  0.1779
15723W        W20123   7.295   4.843  22.041  0.2218  0.1567 -0.0775
15724W        W20124  29.780   2.131   3.580 -0.1611  0.2420 -0.0685
15725W        W20125   1.036   4.009  17.303  0.3904  0.1250  0.1738
15726W        W20126   5.373   3.022  18.594 -0.0943  0.4560  0.0392
15727W        W20127   2.198   1.924   6.979 -0.3077  0.2528 -0.1293
15728W        W20128   2.543   7.209   8.944 -0.0984  0.1951 -0.0016
15729W        W20129  19.779   0.411   2.604  0.0697  0.0187  0.2164
15730W        W20130  23.069   2.933  17.969  0.0965 -0.0179  0.0815
15731W        W20131   6.269   1.584   1.537  0.1224 -0.3102 -0.1254
15732W        W20132  21.035   7.089  18.767  0.2776  0.1139 -0.1153
15733W        W20133  13.430   4.874  19.030 -0.2201  0.0803 -0.1113
15734W        W20134   5.938   0.644   9.379 -0.1600 -0.2061 -0.0745
15735W        W20135  21.722   5.512  25.220 -0.0219  0.0424  0.0112
15736W        W20136  21.560   2.689  23.959 -0.0249 -0.2187  0.0082
15737W        W20137   7.678   0.813  18.859 -0.0305 -0.0473 -0.1438
15738W        W20138  13.014   6.384   8.461 -0.0334  0.0033  0.0476
15739W        W20139  21.814   0.111  21.704 -0.3784 -0.2608  0.0556
15740W        W20140  12.535   3.128  20.868  0.1720 -0.0376 -0.0846
15741W        W20141  24.491   5.686  26.142 -0.1502  0.0945 -0.0426
15742W        W20142  25.479   7.777   3.644 -0.1371 -0.0578 -0.2611
15743W        W20143   4.005   4.711  24.058 -0.0982 -0.1023  0.2222
15744W        W20144  14.873   2.594  23.077  0.0474  0.0886  0.2377
15745W        W20145  11.031   1.701   0.387 -0.0857 -0.2856  0.2486
15746W        W20146   7.004   5.898  23.733  0.1084  0.0791 -0.0495
15747W        W20147  26.193   0.735  15.817 -0.0249  0.1233 -0.2702
15748W        W20148  18.436   2.637  20.319  0.1898 -0.1056 -0.3085
15749W        W20149   7.875   1.155   5.951 -0.0213  0.2996 -0.1419
15750W        W20150  11.003   7.163  18.562  0.2423 -0.1733 -0.2069
15751W        W20151  18.032   2.528  21.862 -0.1003 -0.2223 -0.5229
15752W        W20152  17.657   1.530   9.048 -0.0620 -0.0341  0.0272
15753W        W20153   1.019   0.380  19.400 -0.1315  0.1254 -0.0522
15754W        W20154  18.776   4.911  24.268  0.1509 -0.0395 -0.0639
15755W        W20155  29.913   1.042  22.828 -0.2376  0.1931  0.0631
15756W        W20156   1.675   5.512  22.832 -0.0656  0.1307 -0.1926
15757W        W20157  16.497   0.925  19.983  0.2357 -0.2467 -0.0869
15758W        W20158  10.589   5.306   7.235 -0.3345 -0.0525 -0.0700
15759W        W20159  30.421   0.561   3.092  0.3459  0.0267 -0.1035
15760W        W20160  22.212   5.725   3.525  0.2960  0.0711  0.0513
15761W        W20161   5.885   1.252   3.615 -0.1839  0.4401 -0.1439
15762W        W20162  21.403   7.450   5.307 -0.2191 -0.0042  0.0040
15763W        W20163  29.386   6.793   6.847  0.4249 -0.2564 -0.2896
15764W        W20164  20.857   3.032   3.842  0.1889  0.1192 -0.1374
15765W        W20165   1.412   6.647   6.260 -0.1253  0.0737  0.1786
15766W        W20166  10.573   1.521  24.726 -0.2898 -0.0924 -0.2458
15767W        W20167   4.166   2.712   4.809 -0.0979 -0.0584 -0.0345
15768W        W20168   9.075   3.888   3.791  0.1134 -0.1298 -0.1824
15769W        W20169   7.504   7.345  23.960  0.1816 -0.4353  0.0643
15770W        W20170   5.471   7.258  18.632 -0.1212 -0.0035 -0.2450
15771W        W20171   8.140   6.609   1.232 -0.0893  0.3595 -0.1940
15772W        W20172  19.307   3.929   3.434  0.0265  0.1145  0.0048
15773W        W20173  12.901   6.774   3.067 -0.1355  0.1759 -0.1045
15774W        W20174  19.835   5.681   3.247 -0.1523  0.2946 -0.0290
15775W        W20175  17.936   7.533   0.622 -0.2207  0.0656  0.0149
15776W        W20176  14.101   1.028   2.018 -0.1467 -0.0300  0.0628
15777W        W20177  19.211   2.399  10.368  0.1571 -0.1323  0.0238
15778W        W20178  28.068   6.810  16.006  0.0342 -0.0682 -0.2592
15779W        W20179  17.024   4.785   9.778  0.1107  0.0628  0.1126
15780W        W20180   1.313   7.012  18.923 -0.4092 -0.0431  0.1741
15781W        W20181   5.307   5.699  10.296  0.3414 -0.0915 -0.3012
15782W        W20182  11.683   4.022  22.907 -0.0657  0.2237  0.1493
15783W        W20183  20.376   0.547  17.084  0.0005  0.2017  0.1379
15784W        W20184   9.688   3.465  17.410 -0.2008  0.2896  0.3871
15785W        W20185  26.380   5.811   7.608  0.2297  0.0443 -0.5011
15786W        W20186  10.808   0.832  19.470  0.1315  0.2962 -0.2516
15787W        W20187   3.027   2.387   1.306  0.0464  0.0348 -0.0008
15788W        W20188  14.519   5.926  20.640 -0.1449 -0.1792 -0.2237
15789W        W20189  13.793   1.929  15.074 -0.3401 -0.0304 -0.2402
15790W        W20190   4.205   6.183  20.610  0.0190 -0.0805 -0.0912
15791W        W20191  12.385   4.040  19.939 -0.0113 -0.0219 -0.0052
15792W        W20192  28.553   4.168  26.084  0.1337 -0.0288 -0.1016
15793W        W20193  14.289   2.179   1.919  0.2356 -0.0821 -0.0627
15794W        W20194   4.152   2.807  22.350  0.1410 -0.0147  0.0241
15795W        W20195   2.344   7.632  21.423  0.0744 -0.3011 -0.1951
15796W        W20196  18.963   0.338  24.633 -0.0248 -0.1025 -0.1875
15797W        W20197   6.379   7.410   3.735  0.0444 -0.2164 -0.4942
15798W        W20198   1.813   6.695   4.944 -0.1004 -0.0684 -0.0629
15799W        W20199  21.272   3.539  20.966 -0.2804  0.1558 -0.0473
15800W        W20200  16.542   1.809   8.455 -0.3116  0.0985 -0.0472
15801W        W20201   1.112   3.576  24.512  0.0208 -0.1437  0.0004
15802W        W20202   5.556   5.312   0.370  0.3437 -0.1534  0.1578
15803W        W20203   0.218   7.758  19.881  0.1905 -0.0776 -0.0807
15804W        W20204  26.745   4.561   2.620  0.1327  0.0304  0.1985
15805W        W20205  12.319   3.737  23.577  0.3247  0.0478  0.0078
15806W        W20206  17.907   5.033  15.238 -0.1032 -0.0223 -0.1715
15807W        W20207  20.475   4.072  24.250  0.0619  0.4875  0.1818
15808W        W20208   9.248   0.897   9.985  0.2303  0.1471 -0.0763
15809W        W20209  18.527   7.245   9.447  0.0206  0.1665 -0.2627
15810W        W20210  30.046   7.646  16.718  0.0446  0.0340 -0.0200
15811W        W20211  17.395   3.111   6.071  0.1411 -0.0114 -0.0163
15812W        W20212  11.274   0.123  17.628  0.0275 -0.1422 -0.0091
15813W        W20213  13.672   1.240  22.863 -0.1192  0.1093 -0.1285
15814W        W20214  13.949   7.552  18.512  0.2331 -0.0845 -0.0675
15815W        W20215  15.764   5.325   9.422 -0.1701  0.1844  0.0942
15816W        W20216  15.575   1.463   3.262  0.5489  0.0892 -0.1270
15817W        W20217   3.946   4.600   1.392 -0.0340 -0.1414 -0.3811
15818W        W20218   8.467   4.444   5.352  0.2183 -0.0265  0.0217
15819W        W20219  14.769   7.463  21.364  0.2463 -0.1523  0.0869
15820W        W20220  26.755   2.826  19.518  0.3001  0.1362 -0.1326
15821W        W20221  27.670   0.036  18.822 -0.3838 -0.0420  0.0626
15822W        W20222  24.868   3.895   9.245 -0.1590  0.0364  0.0438
15823W        W20223  14.795   7.084   8.582 -0.0632  0.1378 -0.0568
15824W        W20224   3.589   6.812  22.583  0.0857 -0.0284  0.2282
15825W        W20225  23.227   3.706  16.550 -0.3002 -0.1845 -0.2417
15826W        W20226  12.243   6.674   4.838 -0.1179  0.4141  0.0514
15827W        W20227  11.365   7.734  21.863 -0.1228  0.4510 -0.1768
15828W        W20228  24.069   0.299  14.353 -0.0583 -0.0349  0.1021
15829W        W20229   9.301   6.045  20.302  0.0007 -0.4307 -0.2793
15830W        W20230   9.423   5.345  23.500  0.0044 -0.0626  0.1085
15831W        W20231  15.474   3.317  10.521 -0.0356 -0.1147 -0.0809
15832W        W20232  25.262   3.151  25.636  0.5098 -0.0200 -0.1009
15833W        W20233   1.834   5.789  11.545 -0.1586 -0.2229 -0.2530
15834W        W20234   2.864   6.960   4.108 -0.1651  0.0935  0.1262
15835W        W20235  15.757   6.593  20.383 -0.1970  0.5011 -0.3217
15836W        W20236  14.509   4.733  22.530  0.0075  0.1404  0.0271
15837W        W20237  20.859   0.260  21.914  0.0154 -0.2468  0.2142
15838W        W20238  16.671   1.963  10.165 -0.0094 -0.0543  0.1100
15839W        W20239   1.748   7.749  16.149 -0.2042  0.1582  0.0829
15840W        W20240  16.741   4.770   3.796 -0.0088  0.0318 -0.2119
15841W        W20241  21.180   3.024  17.278  0.2087 -0.2833  0.0846
15842W        W20242  24.827   1.024  21.919  0.4394 -0.0169 -0.1383
15843W        W20243  21.593   6.249  16.542 -0.1006 -0.3022 -0.1274
15844W        W20244  17.913   4.731   9.765  0.1518  0.0679 -0.2695
15845W        W20245  17.190   7.087  23.564 -0.4006 -0.0036 -0.0849
15846W        W20246  24.012   6.661   5.132 -0.1561 -0.0680  0.1166
15847W        W20247   8.434   7.656  24.163 -0.0521  0.0301  0.0201
15848W        W20248  20.735   2.441  20.257  0.0452  0.0550  0.2974
15849W        W20249  30.178   0.461   5.659 -0.1218 -0.2455  0.2006
15850W        W20250  30.562   0.200   2.700 -0.0170  0.2165  0.1924
15851W        W20251   1.556   5.569  11.182  0.1057  0.0076  0.0938
15852W        W20252  12.720   2.299  20.698 -0.1593  0.1577  0.2169
15853W        W20253  13.773   1.007  19.437 -0.1928  0.4762 -0.1509
15854W        W20254  29.579   7.759   0.103  0.0970 -0.1040 -0.0692
15855W        W20255   9.190   3.171  25.837  0.0126  0.1906 -0.4851
15856W        W20256   6.230   6.679  24.451 -0.1964  0.1838  0.1241
15857W        W20257  26.217   1.866  18.867  0.1072 -0.0232 -0.2772
15858W        W20258  24.295   2.264  23.839  0.0000 -0.1457  0.0636
15859W        W20259  30.476   1.877  20.516 -0.0628  0.0111  0.1441
15860W        W20260  18.936   4.768   2.228  0.0200  0.3433 -0.1756
15861W        W20261  15.036   3.354   8.473  0.2419  0.0733 -0.0970
15862W        W20262  17.813   4.910   2.920 -0.0806 -0.1993  0.1848
15863W        W20263   9.849   6.252  21.758  0.2077  0.0699  0.0540
15864W        W20264  25.928   6.638   6.304  0.3087  0.4003  0.0220
15865W        W20265  13.058   3.845   7.625  0.0332 -0.3198 -0.2229
15866W        W20266  27.071   6.747  15.657  0.0007  0.0640  0.0303
15867W        W20267  20.244   7.472  18.178  0.0411  0.1697  0.3675
15868W        W20268   2.287   7.242   3.231  0.0187 -0.0769  0.0700
15869W        W20269   3.834   1.455  22.344  0.0992  0.0931  0.0566
15870W        W20270  17.792   0.383  25.316 -0.1296  0.3658  0.1408
15871W        W20271  28.519   0.432   5.924  0.0105  0.3600  0.0423
15872W        W20272  21.537   4.981  16.961  0.0264  0.2866  0.0385
15873W        W20273   9.555   4.415  19.366  0.0121 -0.1043 -0.0605
15874W        W20274   4.916   0.331   0.105  0.2209 -0.0833  0.4453
15875W        W20275   7.575   3.866  21.221 -0.1671 -0.2536  0.0668
15876W        W20276   2.885   2.368  22.750 -0.0524 -0.1763 -0.3124
15877W        W20277   7.646   1.672   2.979 -0.0843 -0.0038  0.0050
15878W        W20278  15.931   4.353  16.094 -0.0836 -0.2169  0.0125
15879W        W20279   6.275   6.196  22.711  0.0884  0.0401 -0.4144
15880W        W20280   3.442   1.617   0.218  0.0769 -0.1114 -0.5010
15881W        W20281  23.874   2.620   6.716  0.4225 -0.0744  0.0470
15882W        W20282  17.514   1.039   2.443 -0.4233  0.1807  0.1639
15883W        W20283   1.489   7.551  25.700 -0.3098  0.2911  0.1567
15884W        W20284  17.261   2.388  24.273  0.0154 -0.2969 -0.0117
15885W        W20285   1.006   2.452  23.686 -0.2908  0.3259  0.1461
15886W        W20286   2.956   6.505  17.582  0.3703  0.1934 -0.0504
15887W        W20287   3.430   1.950  18.791  0.1425 -0.0171 -0.0163
15888W        W20288  25.030   6.711   5.298  0.0855  0.0376 -0.0250
15889W        W20289  22.612   2.596   7.643  0.2887  0.2039  0.0792
15890W        W20290  27.190   3.857  10.195  0.0955  0.1045 -0.2078
15891W        W20291  24.769   2.125   0.151 -0.3219 -0.4877 -0.1544
15892W        W20292   1.199   2.430  25.251  0.4333  0.1867  0.0316
15893W        W20293   6.394   4.925  10.328 -0.2304 -0.0587 -0.0937
15894W        W20294  20.062   2.548  15.518 -0.1571  0.1460 -0.0757
15895W        W20295  14.179   6.004   4.969 -0.2298 -0.0686 -0.0309
15896W        W20296   7.467   3.225  15.574 -0.0894 -0.0421 -0.2181
15897W        W20297  22.909   0.774   9.624  0.1419  0.0497 -0.0939
15898W        W20298  12.166   0.632  16.546 -0.1390  0.2004 -0.0741
15899W        W20299   3.280   0.159   4.682  0.0582  0.1910 -0.4286
15900W        W20300  20.678   0.793   5.540  0.0702 -0.0801 -0.1206
15901W        W20301  17.582   6.830   1.359 -0.2530 -0.1317  0.0516
15902W        W20302  24.173   6.492  24.417  0.1560 -0.2433 -0.0289
15903W        W20303   4.100   5.941   1.520  0.0574 -0.3266 -0.2172
15904W        W20304  10.713   3.640   8.434 -0.0682  0.1152  0.2069
15905W        W20305  13.389   3.365  16.289  0.2515 -0.2691 -0.2417
15906W        W20306  23.349   3.956  18.121 -0.0843  0.0151 -0.2265
15907W        W20307   8.253   1.216  16.152 -0.1751  0.2899  0.2666
15908W        W20308   3.709   1.519  25.981  0.0716 -0.0649 -0.2956
15909W        W20309   6.760   5.616   8.357  0.0154 -0.0524  0.2926
15910W        W20310  13.759   4.416  22.743 -0.0312  0.0578 -0.0491
15911W        W20311   5.544   0.571   8.413 -0.1614  0.0856 -0.1419
15912W        W20312  29.152   2.879  20.615 -0.2034  0.1285  0.1534
15913W        W20313  14.193   6.038   5.453 -0.2416  0.1195  0.1917
15914W        W20314  11.287   1.291   4.574  0.0661 -0.3852  0.0427
15915W        W20315  23.001   2.401   7.289  0.1068  0.0821 -0.0191
15916W        W20316  20.757   1.793  19.331  0.1040  0.0255  0.0604
15917W        W20317  28.649   7.074  15.528 -0.0633  0.2398  0.0920
15918W        W20318  22.530   2.671   6.203 -0.0025 -0.0228 -0.2657
15919W        W20319  28.167   2.091   3.391 -0.3462 -0.1753 -0.1037
15920W        W20320   6.571   1.772  17.403  0.0049 -0.1106  0.1087
15921W        W20321  16.019   1.978  22.979  0.1021  0.0447  0.0157
15922W        W20322  16.769   3.949  19.176 -0.0951 -0.1402 -0.1634
15923W        W20323  26.538   5.464   0.444  0.1567 -0.0268 -0.0782
15924W        W20324   8.024   0.887  22.913 -0.1601  0.0668  0.0928
15925W        W20325   7.331   7.322   7.269  0.2519 -0.0868  0.2618
15926W        W20326  19.994   4.200   2.877 -0.0164 -0.0364 -0.0450
15927W        W20327  14.484   6.523  18.778  0.2051 -0.2373  0.1603
15928W        W20328  26.279   5.379  15.553 -0.0138 -0.0573 -0.2857
15929W        W20329   3.912   7.120  21.683  0.1244  0.0028  0.5048
15930W        W20330   5.079   4.561  17.345 -0.0169 -0.1931  0.2389
15931W        W20331  26.872   3.950  10.898 -0.0685  0.0521 -0.1434
15932W        W20332  21.351   2.395  10.856  0.1865  0.2483  0.1541
15933W        W20333   7.232   1.563  14.540 -0.0109  0.1149 -0.0894
15934W        W20334  13.427   6.126  17.251  0.1670  0.0907 -0.0011
15935W        W20335  26.449   5.964   4.803 -0.0413  0.1786  0.1423
15936W        W20336   0.411   2.158   9.349  0.0114  0.0410  0.0125
15937W        W20337  27.918   4.311  16.590  0.0716  0.1221 -0.0240
15938W        W20338  23.001   2.142  25.369 -0.1282  0.0933  0.4707
15939W        W20339  28.796   1.427  16.537  0.0713  0.2018 -0.2309
15940W        W20340   0.128   2.001  17.078 -0.0928 -0.2616 -0.0080
15941W        W20341  24.409   6.612  17.419  0.0748  0.1432  0.0339
15942W        W20342  29.590   6.578  19.113  0.0003  0.0851  0.3070
15943W        W20343  22.108   0.742  16.093  0.2516  0.2234  0.2100
15944W        W20344  30.403   3.761  10.973 -0.1705  0.1731 -0.2260
15945W        W20345  15.876   7.782   5.144 -0.0077 -0.0151  0.1847
15946W        W20346   7.426   4.801   4.480 -0.4822  0.1904 -0.1344
15947W        W20347   6.333   0.037  19.582 -0.2133 -0.0534  0.0355
15948W        W20348  24.930   1.966   9.225  0.2292  0.1998  0.0746
15949W        W20349  25.024   2.538  17.024  0.2017 -0.0080  0.3888
15950W        W20350   8.248   0.704   1.126 -0.0559 -0.3741  0.2556
15951W        W20351   5.791   6.959  24.464 -0.4044  0.0752  0.3194
15952W        W20352  10.344   5.635  16.993  0.1432  0.3914 -0.1761
15953W        W20353  18.508   2.102  26.107  0.0821 -0.1649 -0.2137
15954W        W20354   7.289   0.358  17.300  0.0828 -0.2297 -0.0715
15955W        W20355  25.426   2.112   9.287 -0.2434 -0.0602 -0.0095
15956W        W20356   8.081   3.186   7.584  0.1351  0.1333  0.2094
15957W        W20357  14.951   2.921   8.258 -0.0236 -0.0031 -0.0201
15958W        W20358   9.623   2.202  19.551 -0.2051 -0.2871  0.1025
15959W        W20359  23.505   4.784  23.885  0.0857  0.1574 -0.0108
15960W        W20360  29.431   4.242   5.622  0.0245  0.0044  0.1887
15961W        W20361  19.460   0.182  24.993  0.3769 -0.0873 -0.2700
15962W        W20362   7.762   3.173   6.591 -0.0839 -0.4139  0.0444
15963W        W20363  19.225   7.562   8.916 -0.1446  0.0875  0.0681
15964W        W20364  23.232   6.026  22.264  0.0432 -0.1752  0.2006
15965W        W20365  12.807   0.127  15.259 -0.0543 -0.0813 -0.0110
15966W        W20366  14.918   1.727  23.113  0.0243  0.0570 -0.2992
15967W        W20367  19.119   7.143  18.649 -0.0863 -0.1572  0.2346
15968W        W20368  25.275   3.944   5.953 -0.1731  0.0874 -0.0631
15969W        W20369   4.487   2.276   3.465 -0.1272  0.2118  0.0860
15970W        W20370   9.925   3.740   4.093 -0.2341 -0.3121  0.2781
15971W        W20371   5.848   6.064   7.728 -0.0823  0.3069  0.4489
15972W        W20372   6.927   7.546   6.951  0.0898  0.0809  0.1507
15973W        W20373   6.729   5.473  15.810 -0.0820 -0.0569  0.0749
15974W        W20374  21.444   1.893   1.762 -0.2344  0.0382 -0.0341
15975W        W20375   5.677   3.338  15.754  0.0177  0.1063  0.0903
15976W        W20376  15.003   1.530   9.269  0.1550 -0.1622  0.0798
15977W        W20377  15.093   0.445   3.293  0.2892 -0.0458 -0.1505
15978W        W20378  30.374   0.821  16.899 -0.0492 -0.1071  0.0934
15979W        W20379   0.769   7.282  24.589 -0.0708 -0.0634 -0.0030
15980W        W20380  21.281   3.501  17.867  0.0531 -0.1880 -0.0875
15981W        W20381  10.006   6.647  19.834  0.1768 -0.1799  0.2499
15982W        W20382   3.758   1.848  22.087 -0.1067  0.0491  0.0621
15983W        W20383  16.463   6.784  22.817  0.0361 -0.1291 -0.0055
15984W        W20384  20.095   2.443  18.165 -0.1999 -0.1555  0.2558
15985W        W20385  22.567   0.937   9.939 -0.0356 -0.1515 -0.1121
15986W        W20386  30.236   5.397   9.670  0.1598  0.0475  0.1738
15987W        W20387   6.433   3.013  16.029  0.1920  0.1305 -0.0696
15988W        W20388  20.785   5.241   3.465 -0.2776 -0.2001  0.3685
15989W        W20389  26.586   7.729   2.066 -0.1402  0.0024 -0.2981
15990W        W20390  24.456   5.094   6.163  0.0442  0.0727  0.0046
15991W        W20391   4.445   2.105  22.963  0.0499  0.0166  0.0354
15992W        W20392  13.540   0.481   6.317 -0.0150 -0.0590  0.1125
15993W        W20393  10.550   1.355   3.488  0.0665 -0.1228 -0.1527
15994W        W20394  25.346   5.562   0.446  0.2987 -0.2549 -0.1109
15995W        W20395   1.409   3.771   0.078  0.1642 -0.0533  0.1785
15996W        W20396  19.400   4.163   3.902  0.3108  0.1818  0.0256
15997W        W20397  27.130   0.529  25.566  0.3718 -0.0338 -0.0503
15998W        W20398  31.090   3.524   7.050  0.0972 -0.1932  0.1696
15999W        W20399  20.627   3.025  25.898  0.0355 -0.2449  0.2449
16000W        W20400   6.666   2.648   5.927 -0.0780  0.2233 -0.0011
16001W        W20401   8.788   6.776  23.832 -0.0407  0.0585  0.0159
16002W        W20402   3.210   6.045  10.232 -0.0277 -0.1267  0.3379
16003W        W20403  25.796   3.318  19.359 -0.0157  0.2465  0.1646
16004W        W20404  10.322   3.222   8.329  0.3556  0.0218 -0.2466
16005W        W20405   1.010   7.753  20.765  0.1829 -0.1232  0.1701
16006W        W20406   0.714   6.360   0.104 -0.2920 -0.0322  0.2333
16007W        W20407  22.273   2.190   5.688 -0.0218  0.0561  0.1182
16008W        W20408  11.896   7.381  16.498  0.3117 -0.0008 -0.0633
16009W        W20409   8.248   3.168  24.858 -0.1027 -0.1563 -0.1328
16010W        W20410  17.007   5.595  20.411 -0.0599  0.0377  0.2967
16011W        W20411  27.037   0.714   3.297 -0.1641  0.1195 -0.3143
16012W        W20412  20.136   0.801   3.276  0.1597  0.1202  0.2756
16013W        W20413   0.386   1.554   3.014  0.0272 -0.2204  0.2999
16014W        W20414   8.373   1.500  25.650  0.3962 -0.0251  0.0114
16015W        W20415  19.191   5.930  17.072 -0.1749 -0.1776 -0.0081
16016W        W20416  16.149   3.137  17.550 -0.0522  0.1380 -0.0963
16017W        W20417   9.619   1.724   8.232 -0.2487 -0.2311  0.2633
16018W        W20418   3.438   2.023   5.188 -0.1472 -0.0662 -0.0143
16019W        W20419   3.752   4.668   4.560  0.0741  0.2850  0.4645
16020W        W20420  29.741   0.601  20.390  0.3694 -0.1680 -0.1406
16021W        W20421  29.289   4.063  24.319 -0.1586  0.1435 -0.0996
16022W        W20422   9.506   3.049   9.306 -0.0211  0.1316  0.1204
16023W        W20423   9.040   7.619   9.196  0.0799  0.1877 -0.1749
16024W        W20424  19.236   2.706  17.075 -0.0679 -0.0103  0.0734
16025W        W20425  22.654   4.768   3.777  0.1278  0.2957 -0.0533
16026W        W20426   2.017   3.955   7.415 -0.1965  0.0449  0.4149
16027W        W20427  12.203   4.271   4.773  0.0472  0.1391 -0.0658
16028W        W20428  11.938   7.473  21.416  0.2225 -0.0005  0.0424
16029W        W20429  28.432   2.531  10.114  0.1382  0.0120  0.1205
16030W        W20430  18.369   7.586  19.208  0.0114  0.0344  0.0004
16031W        W20431  11.039   7.757   8.552 -0.2665  0.2349 -0.1116
16032W        W20432  24.993   1.356   1.790  0.0688  0.0233  0.3336
16033W        W20433   8.344   0.410   6.333 -0.1747 -0.0485  0.2303
16034W        W20434   8.378   3.467   0.994 -0.1031 -0.0739 -0.0002
16035W        W20435  22.174   4.552   6.899  0.2761  0.1553  0.2284
16036W        W20436  15.837   5.754  23.919 -0.0187 -0.1689  0.0796
16037W        W20437   0.251   6.655  24.472 -0.0886 -0.2527  0.1359
16038W        W20438  18.215   0.739  18.874  0.3391 -0.2114  0.3944
16039W        W20439  19.086   3.437   6.959 -0.0496 -0.0001 -0.0599
16040W        W20440  23.897   5.654   8.060  0.1573  0.3566  0.1147
16041W        W20441  11.618   3.141  20.954  0.0752  0.0262 -0.0393
16042W        W20442   1.180   2.693   6.603 -0.1162 -0.1980  0.1026
16043W        W20443  29.051   1.964   5.778 -0.0448 -0.1987  0.0367
16044W        W20444   9.403   5.062   8.520  0.0634  0.0725  0.0657
16045W        W20445  23.459   3.157  25.234 -0.0312  0.0684  0.0546
16046W        W20446  19.205   2.871  25.573 -0.0563 -0.3975 -0.0444
16047W        W20447  25.331   0.773   2.336 -0.1773  0.1177  0.1468
16048W        W20448  27.395   6.977  10.168  0.1371  0.0526  0.1321
16049W        W20449  16.884   2.309  17.140  0.2737  0.1552  0.3061
16050W        W20450   5.195   2.986   1.522 -0.0472  0.1456  0.1067
16051W        W20451  17.255   5.914   2.991  0.0930 -0.1034  0.0317
16052W        W20452  27.669   6.903   2.346  0.0692  0.1347  0.0518
16053W        W20453  12.468   0.276   5.525  0.0535 -0.0293 -0.1830
16054W        W20454  31.198   3.201  15.949  0.1557 -0.3656  0.1118
16055W        W20455  25.539   4.075   2.556  0.0999  0.1213  0.3143
16056W        W20456  26.771   2.381   5.876  0.2992 -0.0254  0.1073
16057W        W20457   0.054   1.095   9.680  0.2325  0.1516 -0.2812
16058W        W20458  11.154   3.551   3.406 -0.4191  0.1430  0.0020
16059W        W20459  25.731   3.632  10.283  0.0674 -0.1345  0.0697
16060W        W20460   6.701   5.144  26.171  0.4175  0.2034 -0.0477
16061W        W20461  11.005   7.565   7.393  0.1074 -0.1702 -0.2275
16062W        W20462  18.761   5.631  19.179  0.1289  0.0143 -0.0537
16063W        W20463   5.478   5.223   4.358  0.0140  0.0459  0.0805
16064W        W20464  22.551   2.101   3.377 -0.1145  0.0090  0.0186
16065W        W20465  29.286   6.880   3.194  0.1649  0.0232 -0.1082
16066W        W20466   6.217   6.173   1.249  0.1306 -0.2916  0.0815
16067W        W20467   5.095   3.684  19.394  0.1936 -0.2236 -0.4688
16068W        W20468  13.482   1.820   6.156  0.0908  0.0138 -0.1947
16069W        W20469  24.158   6.819   3.202 -0.1067 -0.1196  0.0755
16070W        W20470   8.554   7.483  19.278 -0.4524  0.1436  0.1601
16071W        W20471  16.083   4.227  25.785  0.1957  0.1854 -0.2800
16072W        W20472  20.258   5.845   3.060  0.1583 -0.0630 -0.0525
16073W        W20473   0.205   2.710  18.309 -0.3251  0.1880 -0.1139
16074W        W20474  17.451   3.533   1.824  0.2219 -0.2705 -0.0841
16075W        W20475  28.695   0.957  19.145  0.2872  0.0341  0.0998
16076W        W20476  26.336   4.736   1.528  0.1406  0.1832  0.0907
16077W        W20477  18.066   7.491   4.543  0.0957  0.0823 -0.2016
16078W        W20478  30.395   0.335  20.412 -0.1319  0.2115 -0.1777
16079W        W20479   2.854   1.010  20.878 -0.4363  0.1769  0.0199
16080W        W20480   3.331   1.473  22.279  0.2801 -0.0994 -0.1176
16081W        W20481  12.477   5.966  16.281  0.1407  0.0105  0.0291
16082W        W20482  23.034   2.882  15.897 -0.2851 -0.1766 -0.0248
16083W        W20483   5.236   1.392   1.385 -0.1402 -0.0878 -0.2543
16084W        W20484   3.202   7.076   3.243  0.2922  0.0490 -0.1292
16085W        W20485   0.588   6.757   1.583  0.0707 -0.0147 -0.0773
16086W        W20486   2.221   2.260  21.085 -0.2626  0.1315  0.0475
16087W        W20487   3.604   1.205  10.140  0.1630 -0.0180 -0.3779
16088W        W20488  28.418   2.178  15.105 -0.0701  0.0935 -0.0870
16089W        W20489  30.948   5.275  24.741  0.0210  0.0893  0.1925
16090W        W20490   8.422   6.536  15.591 -0.0026  0.0944  0.0300
16091W        W20491  29.307   7.624   2.674  0.0236  0.1806 -0.2276
16092W        W20492  27.370   0.964   8.162  0.1480  0.1871 -0.0865
16093W        W20493  14.119   1.182   5.765  0.0216 -0.1160  0.0379
16094W        W20494  14.590   2.921   1.245  0.0833 -0.0868 -0.2269
16095W        W20495  10.949   6.692   1.684  0.0284 -0.0743 -0.0119
16096W        W20496   1.753   1.051   9.024 -0.0038 -0.1529 -0.0991
16097W        W20497  26.416   4.319   2.244  0.2330 -0.2208 -0.1661
16098W        W20498  14.112   1.345   4.496 -0.1471  0.1109 -0.0968
16099W        W20499   2.273   4.329  22.942 -0.1872  0.0835 -0.0546
16100W        W20500  20.869   4.762  15.601  0.0120  0.2123  0.0662
16101W        W20501  26.260   7.781   7.878 -0.1497 -0.1866  0.0592
16102W        W20502   6.050   4.730   5.507  0.0889 -0.1015  0.1459
16103W        W20503  25.016   3.420   3.690  0.3120 -0.2087 -0.1216
16104W        W20504   2.702   4.195  25.670 -0.0018  0.0497 -0.0409
16105W        W20505  22.823   2.512  16.264 -0.0079 -0.0962 -0.2109
16106W        W20506   2.181   6.450  21.886 -0.0468  0.1766  0.3970
16107W        W20507  27.387   3.830  22.200 -0.0798  0.1368  0.1792
16108W        W20508  24.642   5.845  17.741 -0.2828 -0.1082  0.0645
16109W        W20509  15.718   1.195  10.076 -0.0108 -0.1021 -0.0193
16110W        W20510   5.281   4.819  15.777  0.0660  0.2780 -0.0524
16111W        W20511   9.672   5.188   6.590 -0.0544 -0.0756  0.1967
16112W        W20512  31.295   3.275  16.658  0.0237  0.2266 -0.1831
16113W        W20513  20.983   3.945  21.918  0.1955 -0.1652  0.0387
16114W        W20514  20.413   6.658  24.224  0.0567  0.1213 -0.0011
16115W        W20515   9.728   6.330  18.239  0.2730 -0.0295  0.2286
16116W        W20516  22.380   1.714   9.802  0.0951 -0.3100  0.1684
16117W        W20517  28.846   4.674   6.884 -0.1040 -0.0552  0.3404
16118W        W20518  25.537   3.436  21.791 -0.1123  0.0173  0.0093
16119W        W20519  13.262   4.407   5.460  0.0699  0.0634  0.1045
16120W        W20520   5.846   6.336  26.043  0.1144 -0.0753  0.0159
16121W        W20521  24.558   6.491   3.514  0.1122 -0.0917 -0.0930
16122W        W20522  16.309   6.305   6.756  0.0189 -0.2484  0.0246
16123W        W20523  14.706   2.349  22.323 -0.0670  0.2153 -0.1772
16124W        W20524   0.197   6.199  16.235 -0.0138  0.3128  0.0693
16125W        W20525  31.134   6.469  24.625 -0.0928 -0.2238 -0.1438
16126W        W20526  17.099   4.734   0.297  0.1123 -0.1129  0.0826
16127W        W20527  15.073   1.942  16.890  0.0697  0.0716  0.0226
16128W        W20528  25.839   3.415  17.845  0.2491 -0.2203 -0.3130
16129W        W20529  20.618   3.331   8.415  0.2894  0.2265 -0.0396
16130W        W20530  24.540   6.948   6.125 -0.0255 -0.1419  0.3806
16131W        W20531  30.967   3.794   5.198 -0.1132  0.1212 -0.0923
16132W        W20532  14.378   3.614  17.678  0.0107 -0.0614  0.0653
16133W        W20533   5.525   3.853   5.310 -0.0179  0.0415  0.0893
16134W        W20534  14.620   5.796  18.286  0.0115 -0.1720 -0.0920
16135W        W20535   1.840   0.603  17.459  0.1639 -0.0259  0.0593
16136W        W20536   0.094   3.460  24.780 -0.1841  0.1407  0.2998
16137W        W20537  17.735   5.774  25.658 -0.2104 -0.1900  0.0615
16138W        W20538  17.648   3.422   2.348  0.1039 -0.0827 -0.0200
16139W        W20539  18.395   5.320   0.575  0.1451  0.0773  0.0856
16140W        W20540  14.150   4.575   8.191 -0.1731 -0.0016  0.0662
16141W        W20541  17.999   0.019   1.029 -0.0937  0.1317 -0.2205
16142W        W20542  18.591   7.414   1.706  0.0676 -0.1940  0.1933
16143W        W20543  13.932   6.190   1.670  0.0413  0.0560 -0.0764
16144W        W20544  31.078   1.394  18.035 -0.0444 -0.2629  0.0840
16145W        W20545   1.933   7.331   1.993  0.3022  0.0557 -0.0508
16146W        W20546   2.714   5.206   1.338  0.0256 -0.0397 -0.1391
16147W        W20547  30.431   2.886   7.378  0.0745 -0.0096 -0.1881
16148W        W20548  13.553   5.633   0.787 -0.0687 -0.0213  0.1516
16149W        W20549  14.233   3.374  16.307 -0.1001 -0.0861 -0.2167
16150W        W20550   3.013   4.020   9.749  0.2804  0.0052 -0.1041
16151W        W20551  10.870   6.997  21.564 -0.1117  0.1045  0.1154
16152W        W20552  19.023   5.815  21.576 -0.2046  0.0864 -0.0485
16153W        W20553  15.956   3.482  16.669  0.1331 -0.0872  0.0629
16154W        W20554  27.510   0.618   3.324  0.1441 -0.1723  0.0394
16155W        W20555  20.012   4.124  25.081  0.0468 -0.3219 -0.0116
16156W        W20556  19.326   4.468  18.934  0.0467  0.2880  0.3724
16157W        W20557  29.906   5.344  18.279  0.1979  0.1864  0.1674
16158W        W20558  15.274   2.079  19.202 -0.0647 -0.0949 -0.2734
16159W        W20559   1.359   5.727   0.077  0.2538 -0.0088 -0.1546
16160W        W20560  11.876   3.512  23.913 -0.0681 -0.1076 -0.1805
16161W        W20561  11.261   3.858   6.931 -0.0499 -0.2825 -0.0867
16162W        W20562  10.135   0.051  15.838 -0.0970 -0.4308  0.0176
16163W        W20563   2.433   6.423  17.662 -0.1728 -0.1167 -0.0627
16164W        W20564   5.340   3.409   8.951 -0.0555 -0.3220  0.2124
16165W        W20565  25.126   1.266   3.435 -0.2280  0.1973 -0.1086
16166W        W20566   7.526   0.587   8.657 -0.0775  0.3126  0.2894
16167W        W20567   8.143   6.641   0.095 -0.0188 -0.0018 -0.0509
16168W        W20568   3.158   4.675   8.597 -0.2075 -0.3332 -0.1728
16169W        W20569  14.815   3.189   5.101  0.0437  0.0732  0.2896
16170W        W20570  17.282   5.487  15.663 -0.0667 -0.2336 -0.2677
16171W        W20571   4.254   4.669  21.952 -0.0312 -0.1213 -0.1839
16172W        W20572   4.632   7.675  22.440 -0.3185 -0.0388  0.0168
16173W        W20573  10.902   0.601   6.120  0.0290 -0.0655  0.1996
16174W        W20574  13.645   7.287  23.965 -0.1543 -0.1284 -0.1171
16175W        W20575  31.145   0.683   4.487  0.2890 -0.0268  0.1121
16176W        W20576  24.347   1.425   9.053  0.2674 -0.0330 -0.0204
16177W        W20577  30.688   1.669  23.118 -0.2981 -0.1160  0.1357
16178W        W20578  25.071   3.771   5.430 -0.0104 -0.0697 -0.0596
16179W        W20579  10.124   6.338  19.019  0.0146  0.0793 -0.2142
16180W        W20580   7.027   4.377   7.483  0.1380 -0.0976 -0.3220
16181W        W20581  23.549   7.140   6.876 -0.3403 -0.1374 -0.1025
16182W        W20582  19.739   3.069  21.189 -0.0010  0.1119  0.0424
16183W        W20583  15.809   3.217   3.490  0.1188 -0.2242 -0.0630
16184W        W20584  12.385   6.773  20.286 -0.2764  0.2553 -0.0791
16185W        W20585   6.635   7.026   7.809  0.1623  0.1684 -0.0491
16186W        W20586   4.228   4.320   7.765 -0.0783  0.0395  0.0131
16187W        W20587  22.711   7.724  22.929 -0.0956  0.0493  0.1200
16188W        W20588   7.473   2.563  24.248 -0.3810 -0.0139 -0.3460
16189W        W20589  15.515   5.376   1.211 -0.4399  0.4080 -0.2616
16190W        W20590   4.253   0.248   2.711  0.0247 -0.4400 -0.1736
16191W        W20591  30.113   6.202   6.491  0.2062 -0.1043  0.1795
16192W        W20592  18.289   3.701   5.192 -0.0836 -0.1009  0.0961
16193W        W20593   4.017   4.861   7.942 -0.0751  0.2209  0.0814
16194W        W20594  28.635   6.520   8.237  0.0832  0.0862  0.2363
16195W        W20595  11.616   3.239  23.160 -0.0225 -0.0594  0.0968
16196W        W20596   7.695   2.855  23.496 -0.0442  0.0998 -0.2430
16197W        W20597  12.943   4.453   9.502 -0.2160 -0.1898  0.1206
16198W        W20598  19.667   1.115   4.499  0.1019  0.0116 -0.2793
16199W        W20599  23.653   5.882  23.931 -0.1054 -0.2714  0.0538
16200W        W20600   9.712   6.122   4.655  0.1921 -0.1284 -0.3281
16201W        W20601   3.239   4.606  21.426  0.1561 -0.0563 -0.2506
16202W        W20602  15.698   2.216  23.874  0.0133 -0.3305 -0.1684
16203W        W20603   6.381   3.149  15.112  0.2065 -0.0977  0.2436
16204W        W20604  23.538   3.633  21.628  0.2723 -0.0530 -0.2494
16205W        W20605   5.325   5.021   0.795 -0.0996  0.0197 -0.1018
16206W        W20606  26.770   0.460  18.373  0.0506  0.1425 -0.4698
16207W        W20607  28.765   5.828  22.425 -0.1079  0.1191  0.3734
16208W        W20608   0.364   5.882  22.833 -0.1042 -0.1903  0.1831
16209W        W20609  23.060   5.471  25.290 -0.1529 -0.3954  0.3772
16210W        W20610   0.637   5.917  25.171 -0.1176  0.0128 -0.1275
16211W        W20611  18.565   0.583  24.359  0.0655  0.0353  0.1251
16212W        W20612  10.711   7.557   3.927  0.1804  0.1559  0.1225
16213W        W20613   0.563   2.693  20.036  0.0345 -0.1068 -0.0191
16214W        W20614  25.268   0.804   4.340  0.0198  0.0654  0.1426
16215W        W20615   3.025   6.556  19.017 -0.2772 -0.1051  0.0156
16216W        W20616  25.404   3.402   0.883  0.0800  0.1189  0.1520
16217W        W20617  30.399   4.546  25.925 -0.2097  0.1436  0.0163
16218W        W20618  17.583   6.932   5.042  0.0830  0.3335 -0.2648
16219W        W20619   6.719   1.795  24.616  0.2279 -0.2518  0.0396
16220W        W20620  30.177   6.573  19.749 -0.1343 -0.1213  0.0963
16221W        W20621  23.040   6.786  24.039 -0.1082 -0.0463  0.0327
16222W        W20622  14.951   0.442   1.263 -0.1845 -0.2727 -0.0867
16223W        W20623  27.546   4.169   9.852 -0.1994 -0.0982 -0.0096
16224W        W20624  29.538   3.003  17.286  0.0132  0.0327 -0.1424
16225W        W20625  24.984   5.476   1.865 -0.0161 -0.3706  0.2471
16226W        W20626   1.927   0.575  23.913 -0.2867 -0.3119 -0.1202
16227W        W20627   4.232   1.810  24.341  0.0468  0.1541  0.0018
16228W        W20628  11.970   7.388  20.061  0.1419  0.1398  0.0974
16229W        W20629  20.887   2.714   1.417 -0.1907  0.2028 -0.0699
16230W        W20630  27.489   0.962   9.117  0.2478  0.3293  0.0428
16231W        W20631  12.031   5.704   8.843  0.1674 -0.1951 -0.1834
16232W        W20632  25.185   6.196  18.517 -0.2281 -0.0168 -0.1255
16233W        W20633   1.620   0.241  21.294 -0.0630 -0.1675  0.1386
16234W        W20634  27.783   1.764  18.621 -0.1244  0.1845 -0.2934
16235W        W20635  20.251   0.479  21.790 -0.0011  0.0236 -0.1100
16236W        W20636   8.040   3.363   2.937 -0.1363  0.0626  0.0273
16237W        W20637   5.245   6.146   0.555  0.2585  0.0871  0.0950
16238W        W20638   2.526   0.464   5.557  0.2197  0.0236  0.2490
16239W        W20639  16.595   6.326   5.715 -0.0066  0.0483 -0.1459
16240W        W20640  13.792   2.114   5.018 -0.3118  0.0602 -0.1621
16241W        W20641  27.480   2.309  16.048  0.1527 -0.1778 -0.1138
16242W        W20642   3.963   5.130  19.985 -0.1094  0.1261  0.2944
16243W        W20643  19.295   3.092  16.145  0.0154 -0.5338  0.1114
16244W        W20644  13.248   3.875   7.158  0.0199 -0.0693 -0.1305
16245W        W20645  11.404   0.912   3.957 -0.0684  0.1945 -0.0084
16246W        W20646   2.876   6.205  19.877 -0.0423  0.1393 -0.0388
16247W        W20647   1.330   7.654  21.158  0.0396  0.0490 -0.0090
16248W        W20648  23.597   2.981  10.129 -0.3569  0.1581 -0.2532
16249W        W20649  24.180   3.289   5.730 -0.1042  0.0182 -0.0059
16250W        W20650   7.241   0.496  25.769  0.2142 -0.0434  0.1869
16251W        W20651  12.745   6.230   0.783  0.1501 -0.2348 -0.1398
16252W        W20652  17.660   4.129  23.070 -0.1384 -0.1025  0.0463
16253W        W20653  10.015   1.494  23.472  0.1928  0.0847  0.2487
16254W        W20654  25.717   2.743  20.030 -0.3803 -0.1060  0.1696
16255W        W20655  28.502   3.403   0.482 -0.0667  0.1097  0.1483
16256W        W20656  29.592   3.559   2.158 -0.0962  0.1297  0.0441
16257W        W20657  25.922   1.751   3.940  0.0812 -0.1299 -0.0417
16258W        W20658  19.109   4.765  16.356 -0.1752 -0.1333  0.2533
16259W        W20659   2.832   3.645   6.996  0.0822  0.0109 -0.0524
16260W        W20660   2.720   6.318   0.468  0.1073 -0.0981  0.0282
16261W        W20661  20.924   4.147   1.717 -0.1089  0.1780  0.0793
16262W        W20662  23.673   7.245   4.979 -0.0868 -0.1990 -0.1866
16263W        W20663  28.763   3.341  19.044  0.0557  0.0993 -0.3101
16264W        W20664  23.917   4.948  20.314 -0.0556  0.0094 -0.0575
16265W        W20665  21.426   6.651   2.157 -0.0722 -0.1862 -0.2989
16266W        W20666   6.666   1.861   3.914  0.0915  0.1107  0.1117
16267W        W20667  27.922   0.395   3.480  0.0305  0.0843  0.0157
16268W        W20668   7.237   5.198  19.003 -0.0038  0.0844  0.0792
16269W        W20669  16.999   3.429   1.645 -0.1036  0.0468 -0.1345
16270W        W20670  11.572   1.200   5.783  0.3076  0.2425 -0.2536
16271W        W20671  23.034   2.773  10.054 -0.2135  0.2730  0.0077
16272W        W20672  19.548   7.214  24.481  0.2452 -0.1101  0.2698
16273W        W20673  24.113   0.678  19.621 -0.0515 -0.2651  0.2668
16274W        W20674  29.150   1.408   1.296 -0.2972 -0.0191 -0.2636
16275W        W20675  21.645   0.987   5.173 -0.1452 -0.1574  0.0207
16276W        W20676  24.962   1.438  24.189 -0.4102 -0.1570 -0.1180
16277W        W20677  20.928   5.562  22.545 -0.1952  0.3159  0.0237
16278W        W20678   5.903   2.433  17.376  0.0768 -0.3153  0.0496
16279W        W20679   4.176   0.563  23.984 -0.0270  0.1940  0.2316
16280W        W20680   3.834   4.586  21.698 -0.4136 -0.0825 -0.0127
16281W        W20681  28.951   0.324  25.656 -0.2490 -0.1361 -0.2876
16282W        W20682  26.720   6.782  22.020 -0.0482 -0.0218 -0.1566
16283W        W20683  15.516   1.262   6.334 -0.0736  0.1169 -0.0041
16284W        W20684  22.511   5.144   1.672  0.3553  0.0518 -0.2116
16285W        W20685   3.611   3.835   5.640  0.0135  0.0409  0.0754
16286W        W20686   1.114   0.985  23.210  0.0875  0.1054  0.0038
16287W        W20687  14.055   3.191   1.112 -0.2158 -0.1865  0.0909
16288W        W20688  13.839   7.346   5.228 -0.3399 -0.2298  0.0176
16289W        W20689  26.859   0.100   6.674  0.1722  0.0788  0.1386
16290W        W20690   9.335   4.058  14.736  0.2105 -0.1240  0.0228
16291W        W20691  16.064   2.221   9.655  0.3051 -0.0287 -0.0985
16292W        W20692   2.620   5.090  19.666 -0.1261 -0.0671 -0.2821
16293W        W20693  11.556   7.012  22.306 -0.0339  0.0672  0.1205
16294W        W20694   3.332   3.965  10.126 -0.2692 -0.0277  0.0977
16295W        W20695   7.362   2.006  20.808  0.0900 -0.2130  0.1221
16296W        W20696  30.852   1.048   4.415 -0.3938 -0.3761  0.1673
16297W        W20697  30.547   7.787  21.496  0.2644 -0.2451  0.1655
16298W        W20698  13.666   6.611  25.807  0.1816  0.0523  0.0204
16299W        W20699  23.769   2.969   5.096 -0.1679  0.2064 -0.0482
16300W        W20700   7.718   3.986   9.182  0.3421 -0.1395 -0.2641
16301W        W20701  18.054   6.913  21.794 -0.0396 -0.2959 -0.0139
16302W        W20702  24.553   7.792  19.218  0.0885  0.0257  0.1511
16303W        W20703  25.977   6.039  15.085 -0.0047 -0.2848  0.2693
16304W        W20704  21.474   0.207  24.749  0.0598 -0.1599  0.1324
16305W        W20705  18.430   5.321  26.146 -0.0804  0.2665  0.1859
16306W        W20706  11.152   7.110  16.873 -0.0148  0.1359 -0.1935
16307W        W20707  14.842   2.029  21.440  0.0810 -0.0471  0.3681
16308W        W20708  30.764   0.855   2.119 -0.1434 -0.0926  0.2903
16309W        W20709  23.731   6.293  24.472 -0.0437 -0.1570  0.1779
16310W        W20710  28.161   6.566  18.494  0.1632  0.1275  0.0745
16311W        W20711   8.424   5.913   8.343  0.0053 -0.1499 -0.0554
16312W        W20712  24.393   2.101  18.444 -0.0517 -0.1160  0.0968
16313W        W20713  17.024   2.069   3.328  0.2885 -0.0600 -0.0343
16314W        W20714  24.840   4.908   8.778  0.0042  0.4768 -0.2013
16315W        W20715  22.810   5.125  17.485 -0.1425 -0.3207  0.0171
16316W        W20716   8.602   3.859  23.704  0.0634 -0.2471  0.1252
16317W        W20717  17.385   2.116  25.388 -0.5161  0.1438  0.0245
16318W        W20718   2.946   7.135  22.569 -0.0931 -0.2089  0.1020
16319W        W20719   9.477   2.507  19.969  0.0602  0.0510 -0.1235
16320W        W20720  18.352   4.401   9.896 -0.2457  0.1486 -0.0123
16321W        W20721   1.257   3.089  18.441 -0.2300  0.1278  0.2114
16322W        W20722  19.010   6.685  18.902  0.4010 -0.0686  0.1054
16323W        W20723  21.761   0.177   3.554  0.1084 -0.4274 -0.1209
16324W        W20724  14.365   0.908  16.645 -0.1709  0.2153  0.2100
16325W        W20725  27.249   6.811  17.331 -0.0814  0.2055  0.3118
16326W        W20726  25.653   5.435  26.164 -0.1333 -0.1223  0.0293
16327W        W20727  12.102   4.235  16.377  0.1756 -0.1008  0.0248
16328W        W20728  30.677   3.392   9.489 -0.1423  0.2282  0.1180
16329W        W20729  24.127   3.637   3.481 -0.0205  0.0903  0.0049
16330W        W20730  23.355   5.082  22.908  0.0302  0.3109  0.1874
16331W        W20731   9.930   2.823   7.633  0.2678 -0.2480  0.0098
16332W        W20732  29.773   4.183  23.101  0.0918 -0.0377  0.4498
16333W        W20733  11.028   0.805  23.676 -0.1510 -0.3440 -0.0780
16334W        W20734   6.980   1.586   2.701 -0.0189  0.0515 -0.1690
16335W        W20735   7.630   7.754   1.554 -0.0241 -0.1032 -0.0247
16336W        W20736  28.085   3.274   1.046 -0.0865  0.1582  0.1566
16337W        W20737   3.854   1.224  17.543  0.1251  0.2610 -0.1836
16338W        W20738   6.943   5.495   6.511 -0.1368  0.0909  0.0494
16339W        W20739  14.434   3.367  20.379  0.0947  0.0905 -0.0437
16340W        W20740  17.798   1.384   4.732  0.0898 -0.1925  0.0334
16341W        W20741  17.579   4.364   7.305  0.0620  0.0128 -0.2116
16342W        W20742   0.384   0.489   1.211 -0.0424 -0.1176  0.0861
16343W        W20743  27.274   5.247  10.469  0.1188 -0.2319 -0.2721
16344W        W20744   2.394   2.378   7.086  0.2626 -0.1690  0.2234
16345W        W20745   2.332   6.676   6.091 -0.0067 -0.3521  0.0507
16346W        W20746  21.614   4.402   4.728  0.0142  0.1606  0.1375
16347W        W20747  13.300   7.711  16.793  0.3594 -0.1714  0.1270
16348W        W20748  29.431   2.160  19.029 -0.2658 -0.0963  0.1543
16349W        W20749  16.285   2.490   3.005 -0.1425 -0.1769 -0.1956
16350W        W20750   8.633   5.151   5.836 -0.0817 -0.1425  0.1012
16351W        W20751   3.160   7.753   0.927  0.3265 -0.2048  0.1841
16352W        W20752  30.703   4.040  11.189 -0.1125 -0.1448  0.2905
16353W        W20753   9.882   0.516   4.716  0.0507 -0.1946 -0.0027
16354W        W20754  15.347   4.300  21.883 -0.3470 -0.0554 -0.0410
16355W        W20755  13.598   0.154  23.436 -0.1543 -0.3206 -0.1558
16356W        W20756  30.703   6.312  19.250  0.0280  0.0255  0.2426
16357W        W20757  23.831   7.283  22.752 -0.2204 -0.2006 -0.0319
16358W        W20758   5.532   2.288   2.565 -0.0784  0.0649 -0.0745
16359W        W20759   6.580   3.307   6.596  0.0053 -0.2733 -0.0338
16360W        W20760  25.860   7.213   5.402  0.2751 -0.0959 -0.0642
16361W        W20761   6.225   0.116   2.503  0.0052  0.0951 -0.1471
16362W        W20762  27.722   7.323   7.131 -0.0571  0.0628 -0.2149
16363W        W20763  27.740   3.060   5.813  0.4114 -0.1791  0.3520
16364W        W20764  18.305   4.902   3.085 -0.0167  0.2165 -0.1344
16365W        W20765  15.355   1.728  15.945 -0.0155 -0.3117 -0.3154
16366W        W20766  17.056   3.428  22.990  0.0211 -0.0913  0.1058
16367W        W20767  28.919   7.544  19.803 -0.1183 -0.0494 -0.0855
16368W        W20768  13.498   1.346  23.330  0.2854 -0.0843  0.2234
16369W        W20769   7.934   7.803  26.047 -0.3244 -0.1246 -0.2454
16370W        W20770  13.383   2.114   5.708 -0.1986 -0.0335  0.1113
16371W        W20771  20.467   5.894  15.949 -0.1518  0.1207  0.1839
16372W        W20772  12.351   4.109  16.775  0.1528 -0.2075 -0.0606
16373W        W20773  10.925   0.102  10.378  0.3098 -0.0775 -0.2742
16374W        W20774  20.679   6.639  19.703  0.1105  0.1726 -0.5080
16375W        W20775   6.557   3.974   1.535 -0.0239  0.2438 -0.2328
16376W        W20776   7.171   4.987   0.232  0.1428  0.0019 -0.0254
16377W        W20777  18.250   0.538   3.894  0.1015  0.1599  0.0833
16378W        W20778  24.504   4.666  10.655 -0.1382  0.3166 -0.2349
16379W        W20779   9.926   4.253   0.503  0.0717 -0.0826  0.0697
16380W        W20780  14.478   3.153   7.494 -0.0483  0.1331  0.0378
16381W        W20781   7.286   3.770   3.298 -0.0779 -0.2149 -0.2124
16382W        W20782  10.762   6.608   8.979 -0.3660  0.1943 -0.0290
16383W        W20783  23.937   4.075  21.498 -0.1614 -0.0908 -0.3311
16384W        W20784  16.174   2.991   0.063  0.0098 -0.3002 -0.1851
16385W        W20785  30.306   6.628  20.898 -0.1385  0.2856  0.3215
16386W        W20786  19.866   5.398   3.644  0.1728 -0.1262  0.0041
16387W        W20787   6.966   1.493  15.883  0.0703 -0.2323  0.0509
16388W        W20788   0.063   0.394   5.922  0.0993  0.4788 -0.1330
16389W        W20789   4.821   2.784   6.300 -0.0880  0.0716 -0.0885
16390W        W20790  26.782   2.890   5.141  0.0844 -0.2161 -0.1257
16391W        W20791   8.470   1.580  20.338 -0.0418  0.1365 -0.0742
16392W        W20792   2.389   7.206  11.369 -0.1240  0.3700  0.0003
16393W        W20793   3.992   2.366   5.708 -0.2104 -0.1910  0.2194
16394W        W20794  24.342   1.291  22.668 -0.2084 -0.0817 -0.0323
16395W        W20795  24.878   5.598  21.684 -0.0634 -0.0371 -0.3400
16396W        W20796  12.648   1.933  24.786  0.0868  0.2257 -0.1359
16397W        W20797  12.827   7.240  18.456 -0.1503 -0.1411 -0.0680
16398W        W20798  17.788   4.110  19.236  0.2501  0.3285  0.2137
16399W        W20799   9.955   6.096   0.246  0.0705 -0.0519  0.1455
16400W        W20800  14.082   1.824  18.136  0.0818 -0.2393 -0.3250
16401W        W20801   5.800   5.312  24.161 -0.2759 -0.0186 -0.0067
16402W        W20802   3.364   0.757   0.345  0.0434  0.0336  0.1129
16403W        W20803  17.701   1.089   0.132 -0.1265 -0.0073  0.2622
16404W        W20804  30.155   4.018   8.824  0.2408  0.3128  0.4301
16405W        W20805  18.167   4.495  23.861  0.3823  0.1766  0.2628
16406W        W20806  26.403   6.616  17.397 -0.3356 -0.1931  0.2079
16407W        W20807  10.549   6.988  23.499 -0.2132 -0.3378  0.4401
16408W        W20808  13.288   1.171  14.787 -0.1313 -0.0320 -0.0575
16409W        W20809  24.419   7.010  16.123 -0.4112  0.2490 -0.0633
16410W        W20810  19.272   1.442  24.803  0.0101 -0.2877  0.0483
16411W        W20811   3.036   3.411  24.335 -0.0079 -0.2532  0.1746
16412W        W20812  23.777   6.384  23.953 -0.0107  0.0761 -0.4214
16413W        W20813  22.332   2.883  21.100 -0.3025 -0.1309 -0.0348
16414W        W20814  30.241   7.618   8.280 -0.0138 -0.3624  0.0667
16415W        W20815  29.404   5.625  19.003  0.0545  0.2773 -0.1798
16416W        W20816  15.737   0.283  14.993 -0.1706  0.1241 -0.0880
16417W        W20817   1.527   6.557   7.654  0.0113 -0.0812  0.0028
16418W        W20818   9.008   3.793  16.643  0.1838  0.0044 -0.3449
16419W        W20819   2.815   2.213   6.894  0.2065  0.0864 -0.0278
16420W        W20820  22.826   0.039   7.830  0.3990  0.0840  0.3634
16421W        W20821  13.561   2.932  22.655 -0.2388  0.4861 -0.0240
16422W        W20822   0.178   2.012  20.635  0.0467 -0.0091  0.2072
16423W        W20823   8.026   1.000   6.470  0.0935  0.1496 -0.1779
16424W        W20824  17.413   1.443   5.043  0.1759  0.0330  0.0051
16425W        W20825  21.792   5.179   9.202  0.0016 -0.2825  0.0058
16426W        W20826   9.133   2.858   6.865  0.0544 -0.0896  0.1116
16427W        W20827   2.654   3.359   5.854  0.0559  0.1011  0.1573
16428W        W20828   9.996   3.676  24.750 -0.1058  0.2098  0.0621
16429W        W20829  27.388   5.738   7.663 -0.1213  0.1408 -0.1428
16430W        W20830  27.766   6.417   2.231  0.0829 -0.0205 -0.1196
16431W        W20831  15.588   3.855   9.743 -0.1949 -0.0907  0.0166
16432W        W20832  28.811   2.791  18.876  0.1558  0.0285  0.2655
16433W        W20833  20.145   4.371  14.975  0.1800 -0.0378 -0.1981
16434W        W20834   2.024   4.821  20.890  0.2790  0.0069 -0.0839
16435W        W20835  24.872   0.268   1.702 -0.1466 -0.2628  0.0231
16436W        W20836  28.162   7.356   6.776 -0.1009  0.0555 -0.0329
16437W        W20837  23.348   7.367  22.993  0.2628  0.0087  0.1858
16438W        W20838   8.422   5.220   0.941  0.2745  0.0022  0.2545
16439W        W20839   4.785   2.454   8.886  0.1274  0.0682 -0.0564
16440W        W20840   3.010   3.782  18.932  0.1225 -0.0441  0.2492
16441W        W20841  17.488   6.350  19.991  0.1689 -0.0880  0.0435
16442W        W20842   6.091   6.504  15.297  0.0312 -0.3179 -0.0246
16443W        W20843  27.812   1.479   0.936 -0.4058 -0.2853  0.0531
16444W        W20844   2.250   1.293   1.710 -0.1670  0.1361 -0.3130
16445W        W20845  27.218   5.672   4.773  0.1298 -0.2636  0.2924
16446W        W20846  23.984   2.358   2.946 -0.1213  0.1351 -0.2389
16447W        W20847   4.305   6.807  11.076  0.0261 -0.1399  0.1094
16448W        W20848   1.391   4.973   8.882 -0.2184 -0.1069  0.0515
16449W        W20849  21.944   2.224  24.994 -0.3729 -0.0252 -0.1313
16450W        W20850   6.560   5.288   5.092 -0.0654  0.0253  0.0720
16451W        W20851  24.120   3.167  25.661  0.0068 -0.1956 -0.3565
16452W        W20852  12.021   6.298  21.881 -0.2210  0.1618  0.0039
16453W        W20853  13.178   3.319   4.632  0.0140 -0.0040  0.0199
16454W        W20854  10.549   3.897  25.662 -0.2493 -0.3757  0.0489
16455W        W20855  22.505   7.760  15.540 -0.0274  0.0456 -0.0433
16456W        W20856  26.011   5.212   5.761 -0.0512  0.2617  0.0165
16457W        W20857  26.882   2.906  15.515  0.0839 -0.2461 -0.1683
16458W        W20858  17.187   0.181   6.139 -0.0661 -0.4613  0.0527
16459W        W20859  27.073   5.731  25.510 -0.0330 -0.0980 -0.0434
16460W        W20860  17.180   3.994   3.820 -0.3131  0.1200 -0.0175
16461W        W20861   8.755   5.282  10.521  0.1737 -0.1891  0.1369
16462W        W20862  20.447   5.459   2.226 -0.0185  0.0112 -0.0354
16463W        W20863  17.491   3.620  23.349  0.1245  0.0669  0.1153
16464W        W20864  23.912   0.197  19.581  0.2015  0.1779  0.1807
16465W        W20865   2.087   0.976  23.543  0.1954  0.0626  0.2311
16466W        W20866  11.117   2.391  23.472  0.0940 -0.0675 -0.0743
16467W        W20867  27.118   5.400  17.606  0.0892 -0.2472  0.1634
16468W        W20868  22.421   7.416  21.578  0.1398  0.0713 -0.1930
16469W        W20869  15.687   7.603   6.005  0.4233  0.1082 -0.0493
16470W        W20870  15.035   3.263  20.573 -0.0887 -0.2342 -0.2540
16471W        W20871  12.899   6.921   7.848  0.0129 -0.2299  0.0717
16472W        W20872   7.567   3.346   8.281 -0.0281  0.2517  0.4405
16473W        W20873  18.221   2.420   3.739  0.2770 -0.2328 -0.0679
16474W        W20874  12.736   4.469  14.971 -0.1759 -0.0621 -0.5315
16475W        W20875  28.671   2.973  10.688 -0.1090  0.2253  0.0339
16476W        W20876  21.196   3.992   9.136  0.0961 -0.1433  0.0691
16477W        W20877   2.174   3.305  22.056  0.0757 -0.1538 -0.0775
16478W        W20878  26.750   5.445   4.804 -0.0971 -0.0669  0.4603
16479W        W20879  13.419   2.976  26.024 -0.2837 -0.1579  0.0821
16480W        W20880   5.707   4.325   2.013  0.3044 -0.1782  0.1038
16481W        W20881   4.536   7.734   5.869 -0.3846  0.0007  0.0454
16482W        W20882  15.562   4.088  20.632 -0.5618  0.2434  0.0752
16483W        W20883  11.539   2.963   1.364 -0.0401 -0.0724  0.0438
16484W        W20884  22.435   6.209  17.384 -0.3122  0.1158  0.3122
16485W        W20885   1.133   5.879   6.484  0.1396  0.3935  0.0463
16486W        W20886  23.852   3.482   8.654  0.1702  0.1960 -0.0431
16487W        W20887  25.395   0.306  20.196 -0.0454  0.0917  0.2048
16488W        W20888  17.888   7.663  15.300 -0.0459  0.0644  0.1638
16489W        W20889  13.510   1.803  19.028  0.1403 -0.3215  0.2458
16490W        W20890  10.908   5.856   3.725  0.0608  0.2633  0.1674
16491W        W20891   2.219   5.836   7.166 -0.1944 -0.0683 -0.1448
16492W        W20892  19.240   3.459  19.562 -0.1404 -0.0141 -0.1277
16493W        W20893   0.069   4.474  23.985  0.1371  0.0519 -0.0597
16494W        W20894  29.510   6.165  25.626 -0.1497  0.0600  0.0309
16495W        W20895   9.604   0.127   2.895  0.1401 -0.1703 -0.3049
16496W        W20896  26.614   5.969  22.898  0.1030  0.0275 -0.0307
16497W        W20897  11.173   3.723   1.586 -0.0493 -0.2636 -0.3045
16498W        W20898   6.342   2.781  21.243  0.2482 -0.0734 -0.1602
16499W        W20899  20.027   0.272   3.415  0.3390  0.0210  0.2597
16500W        W20900  12.006   5.907  20.499 -0.0042  0.0165  0.0549
16501W        W20901  13.518   1.846  23.518 -0.0601 -0.0894 -0.1756
16502W        W20902  21.570   5.082   2.148 -0.3355 -0.0702  0.1432
16503W        W20903  20.863   2.065  25.132  0.0579 -0.0173 -0.0256
16504W        W20904  27.624   1.735  22.060  0.0695 -0.2966  0.2047
16505W        W20905   3.212   1.551  10.132  0.1786 -0.1905 -0.0042
16506W        W20906  25.161   7.624  15.825  0.0521  0.0307 -0.1719
16507W        W20907  26.102   1.855  19.767  0.3615  0.2585 -0.0051
16508W        W20908   8.168   3.809  23.941  0.4038 -0.0045  0.0523
16509W        W20909   6.654   1.510  22.465  0.1286 -0.2449  0.0033
16510W        W20910  24.015   6.701  21.505 -0.1364 -0.1451 -0.2471
16511W        W20911  28.540   0.790   8.148 -0.0436  0.0045  0.1563
16512W        W20912  23.770   2.650   3.351  0.2546  0.2306 -0.1104
16513W        W20913  27.136   3.518   9.820  0.0239 -0.2059 -0.3950
16514W        W20914  17.983   4.044   7.425 -0.1892 -0.0837 -0.1794
16515W        W20915  29.040   6.619  21.773  0.2116 -0.2534 -0.1624
16516W        W20916  15.903   2.780  24.277 -0.1596  0.0610 -0.0498
16517W        W20917   8.781   6.949   6.550 -0.0562  0.0211  0.0022
16518W        W20918   5.481   6.033  24.604  0.1277  0.1841 -0.2840
16519W        W20919  16.701   5.843   2.740 -0.0005 -0.2793  0.1602
16520W        W20920  18.040   6.673  18.124 -0.1613  0.1636  0.1158
16521W        W20921  29.128   0.201   1.887  0.2565  0.2090 -0.1265
16522W        W20922  27.598   2.004   4.839 -0.1319 -0.0549 -0.0232
16523W        W20923  19.090   6.930  26.056  0.1206  0.0950  0.0898
16524W        W20924   6.730   6.265  20.357  0.1911  0.1357  0.0772
16525W        W20925  16.944   3.476  19.276  0.0238  0.3624  0.0798
16526W        W20926  13.175   5.454  16.349 -0.1213 -0.1706  0.1591
16527W        W20927   1.421   7.077   2.830 -0.2514  0.0309  0.1143
16528W        W20928   8.596   6.964  25.612 -0.1853  0.1029  0.0190
16529W        W20929  14.947   2.460   7.456  0.0890  0.0457  0.0787
16530W        W20930   7.522   4.729  17.946  0.1218  0.2303 -0.2860
16531W        W20931   6.247   0.003   5.111 -0.0025 -0.1142 -0.0103
16532W        W20932  12.436   1.784   0.824  0.4472  0.0377 -0.0362
16533W        W20933   4.004   4.328  19.475  0.0437 -0.0411 -0.1033
16534W        W20934   0.527   5.355  11.873  0.2310 -0.0890 -0.1141
16535W        W20935  21.690   1.585   5.022 -0.2159 -0.1298 -0.2004
16536W        W20936  14.340   1.690   5.930 -0.0277  0.1779 -0.3654
16537W        W20937   2.105   0.121  16.900 -0.1277 -0.1844 -0.1710
16538W        W20938   5.385   2.352  10.684  0.0413 -0.0923 -0.2186
16539W        W20939   1.452   3.100  24.976 -0.2416  0.0003  0.2578
16540W        W20940  27.751   2.521   6.846 -0.1642 -0.0094  0.0655
16541W        W20941  10.518   0.588   4.210  0.1168 -0.2033  0.1025
16542W        W20942   4.330   1.272  23.297  0.3001 -0.2249  0.1019
16543W        W20943  17.731   1.912  18.015 -0.1022 -0.1763  0.1872
16544W        W20944  17.134   3.271   2.173 -0.0122 -0.0051  0.0014
16545W        W20945  14.531   3.150  18.236  0.2815  0.1852 -0.0386
16546W        W20946   3.381   4.447   2.949  0.2080  0.0092 -0.0330
16547W        W20947  18.315   7.639  23.903  0.2673  0.0463 -0.2963
16548W        W20948   9.584   3.820   8.759  0.0220 -0.0929 -0.0424
16549W        W20949  29.806   6.562  17.218  0.1551 -0.0299  0.2439
16550W        W20950  24.718   3.652  19.692 -0.0538 -0.1934 -0.4603
16551W        W20951   9.006   3.299  16.554 -0.1442  0.1266  0.1317
16552W        W20952  14.665   5.090  22.788 -0.0968 -0.0974 -0.0118
16553W        W20953  29.137   4.817  15.641  0.2192 -0.2813 -0.0262
16554W        W20954  31.149   5.584  22.826  0.0419  0.1230 -0.0316
16555W        W20955  16.281   1.827   7.196 -0.1175  0.1493 -0.1397
16556W        W20956   7.154   0.816  23.612  0.0063  0.2932  0.0749
16557W        W20957  12.744   5.038   7.770 -0.2456  0.1045  0.2726
16558W        W20958   9.811   1.994   0.785 -0.0316 -0.1174  0.1732
16559W        W20959   5.068   5.536   2.724  0.1206 -0.0543 -0.0798
16560W        W20960   4.234   6.442  25.318 -0.0936  0.3212 -0.3534
16561W        W20961   1.510   0.820   5.852  0.3684  0.0095  0.1292
16562W        W20962   1.258   4.983   7.858 -0.1478  0.2658  0.2116
16563W        W20963  28.208   1.450   5.259  0.1429 -0.0152  0.1134
16564W        W20964  19.687   3.972  23.573 -0.1597 -0.0112  0.0902
16565W        W20965  23.281   7.186  19.960  0.0437 -0.3099 -0.0398
16566W        W20966  18.916   1.062   2.711  0.0474 -0.1593  0.3388
16567W        W20967  30.306   0.031  16.313  0.0585  0.4720  0.1566
16568W        W20968  29.865   7.741   1.420  0.1591 -0.1137 -0.0054
16569W        W20969  28.838   5.127   1.664  0.2968  0.0422 -0.0354
16570W        W20970  31.213   3.570   8.727  0.0816  0.1771 -0.1367
16571W        W20971  16.441   4.961   3.418 -0.1704  0.1563  0.0579
16572W        W20972  15.713   3.390   9.552  0.0548  0.0550 -0.0354
16573W        W20973   3.761   2.944  16.135  0.0505 -0.1094  0.1102
16574W        W20974  25.761   3.578   8.266  0.0096 -0.0927 -0.1766
16575W        W20975  18.099   3.614   2.338 -0.0214  0.2565  0.0222
16576W        W20976  24.339   2.840  17.360  0.0034  0.0663 -0.2017
16577W        W20977  31.175   4.981   4.119 -0.1459 -0.2052  0.0697
16578W        W20978  28.513   1.077  25.522 -0.0093 -0.2130  0.0489
16579W        W20979   8.712   6.372  16.497 -0.2429 -0.1134  0.0242
16580W        W20980   4.724   1.364  17.873  0.0557 -0.0253  0.0525
16581W        W20981   0.950   2.417  20.663 -0.1064 -0.0172 -0.0295
16582W        W20982  10.985   0.749  21.659 -0.1968 -0.1619 -0.0311
16583W        W20983   2.941   4.361  10.120  0.2688 -0.1283  0.2288
16584W        W20984  15.557   2.448   6.772  0.1280 -0.2377  0.1306
16585W        W20985   2.970   6.801  23.497  0.0671  0.4402  0.1527
16586W        W20986  20.998   2.320  21.063  0.0323  0.0148  0.2159
16587W        W20987   5.188   1.854   1.055  0.1262  0.0960  0.0644
16588W        W20988  11.051   2.636   6.763  0.0803 -0.0381  0.1495
16589W        W20989   6.050   3.194   6.456  0.2725 -0.1922  0.1064
16590W        W20990  26.582   7.803  16.656  0.3187  0.1362  0.1163
16591W        W20991   8.058   7.482  22.482 -0.1236  0.1611 -0.3136
16592W        W20992   2.464   5.917   3.261 -0.0094  0.0044  0.1523
16593W        W20993  13.468   3.867   2.941 -0.0389 -0.0863 -0.2535
16594W        W20994  12.747   6.150   8.780 -0.0354  0.0122  0.0685
16595W        W20995   7.281   2.947   0.400  0.0608 -0.1891 -0.0065
16596W        W20996   0.552   6.099  11.237 -0.0624  0.0301  0.0665
16597W        W20997  22.064   1.054   7.819 -0.2946  0.2374 -0.0913
16598W        W20998   7.298   5.405  21.317  0.4460 -0.2354 -0.2307
16599W        W20999  19.044   3.265  20.217 -0.0264 -0.0318 -0.0756
16600W        W21000  25.641   0.879   2.726 -0.0305  0.1771 -0.0421
16601W        W21001  16.443   3.333   4.709 -0.0123  0.1153 -0.1369
16602W        W21002  28.122   5.335  18.865 -0.0566 -0.0603  0.1761
16603W        W21003   0.756   5.443   0.024  0.1528 -0.1930 -0.0455
16604W        W21004  15.335   1.499  23.917 -0.1790 -0.2235 -0.3588
16605W        W21005  21.334   4.286  23.759 -0.0673 -0.1124 -0.1783
16606W        W21006  20.237   5.267  16.573 -0.0660 -0.0624 -0.3420
16607W        W21007  28.967   2.899   4.824 -0.0889  0.2108  0.1845
16608W        W21008  24.161   2.664   6.261 -0.0777  0.0792  0.0310
16609W        W21009  31.125   4.886  11.280 -0.0389 -0.1726 -0.2226
16610W        W21010  10.919   4.684  25.493  0.3746 -0.1973 -0.2090
16611W        W21011  15.042   0.601  19.349 -0.1464  0.1086  0.1016
16612W        W21012   1.165   4.489  23.717 -0.0555 -0.0278 -0.2907
16613W        W21013  22.610   7.080   8.815 -0.4057 -0.4544 -0.4575
16614W        W21014  29.236   3.517  19.864 -0.3484 -0.0982 -0.0085
16615W        W21015  25.354   5.159   4.171 -0.1135  0.0508  0.0905
16616W        W21016  13.959   4.360   7.332 -0.0417  0.0420 -0.1173
16617W        W21017   9.559   5.161   8.027  0.3199  0.2561  0.1915
16618W        W21018  14.209   2.689  19.963  0.0043  0.0301 -0.1624
16619W        W21019   6.234   2.583   4.512 -0.2610 -0.0384 -0.3071
16620W        W21020  25.677   4.492   6.581 -0.0143 -0.0620 -0.3104
16621W        W21021   0.992   2.819   8.731 -0.0390 -0.3552 -0.2192
16622W        W21022  28.505   3.389  15.642 -0.0842  0.0603 -0.0082
16623W        W21023  31.183   2.048   6.722 -0.0417  0.3978 -0.0835
16624W        W21024   2.266   0.259  25.245  0.0904 -0.3384  0.2288
16625W        W21025  21.463   6.392   0.100  0.1655 -0.2193 -0.1746
16626W        W21026  29.622   7.547  22.326  0.0749 -0.0338 -0.0415
16627W        W21027   6.878   1.156   2.041  0.1362 -0.0744  0.2236
16628W        W21028  11.872   2.514  10.075 -0.0973 -0.0264  0.1164
16629W        W21029  18.975   7.505   5.387  0.1922 -0.3631  0.1681
16630W        W21030   8.542   3.557   6.539 -0.2117  0.0856 -0.1274
16631W        W21031   5.204   2.738  16.388  0.2895 -0.1536  0.0478
16632W        W21032   4.406   3.929  17.642  0.0588  0.0373  0.0511
16633W        W21033  16.059   2.523   0.478  0.3144  0.1147 -0.0192
16634W        W21034  12.102   0.603  22.313 -0.1150  0.0424 -0.3676
16635W        W21035   1.407   2.116   0.447  0.2570 -0.5408  0.2442
16636W        W21036   4.406   5.875   3.906 -0.1426  0.0584  0.0398
16637W        W21037  29.782   1.717  23.556  0.0394  0.2794 -0.0150
16638W        W21038  27.732   5.512  23.870 -0.0898 -0.0199  0.3918
16639W        W21039   5.082   7.418  10.968  0.2218  0.0803  0.0502
16640W        W21040  20.157   5.688  19.936 -0.3336 -0.0376 -0.2093
16641W        W21041  20.233   4.402  10.858 -0.0838  0.1261 -0.2311
16642W        W21042  18.419   1.463  19.362  0.0275  0.1304 -0.2363
16643W        W21043  31.228   3.508   9.630 -0.0249 -0.2336 -0.1481
16644W        W21044  19.201   1.266   1.826  0.0030 -0.3712  0.1637
16645W        W21045  30.871   5.749  18.065 -0.0547 -0.2513 -0.0565
16646W        W21046  20.692   3.688   5.070 -0.0002  0.0313 -0.2952
16647W        W21047   5.585   1.742   3.780 -0.1172 -0.2222 -0.0479
16648W        W21048  11.188   6.811   5.614 -0.0940  0.1762 -0.1858
16649W        W21049  15.904   6.894  21.482 -0.0341 -0.3312 -0.1609
16650W        W21050  19.843   7.093  20.178 -0.0631 -0.1933  0.0279
16651W        W21051   7.188   3.485   0.804 -0.1483 -0.3541 -0.2222
16652W        W21052  31.184   2.281   1.191  0.0396 -0.0294  0.0914
16653W        W21053   0.762   5.853   3.259 -0.1162  0.5476 -0.3098
16654W        W21054  23.172   1.836   6.452 -0.1195 -0.0702 -0.0205
16655W        W21055  12.777   5.351  20.366  0.1625 -0.2059 -0.0880
16656W        W21056  30.557   1.799   4.498 -0.1196  0.2948 -0.0039
16657W        W21057   8.611   7.577  20.548 -0.1161 -0.0069  0.2853
16658W        W21058  19.154   6.943   0.989  0.0711  0.3520  0.1283
16659W        W21059  23.906   6.802   1.554 -0.0970 -0.1377 -0.0794
16660W        W21060  27.331   0.985  11.225 -0.1480 -0.0717  0.3144
16661W        W21061   4.032   0.893   0.553 -0.0331  0.0622 -0.0008
16662W        W21062  22.103   3.613   2.271 -0.2517  0.2680 -0.0289
16663W        W21063  28.491   4.384  19.382 -0.1255  0.3600 -0.0164
16664W        W21064  26.301   0.571  18.304 -0.2070 -0.0565 -0.3499
16665W        W21065   6.655   7.301  18.023 -0.2429 -0.0603 -0.0459
16666W        W21066   1.529   0.332   5.664 -0.1790 -0.0112  0.0038
16667W        W21067   8.319   1.859   7.895  0.2733 -0.3047 -0.0372
16668W        W21068   7.395   3.249   2.416  0.1093 -0.1524 -0.1783
16669W        W21069  21.705   0.529  22.217  0.0259 -0.2585 -0.1836
16670W        W21070  21.920   1.853   4.473  0.0967  0.0404  0.1538
16671W        W21071  23.484   7.353   6.055 -0.0224  0.0422 -0.0574
16672W        W21072  13.223   4.762   3.082 -0.1969 -0.1085  0.1304
16673W        W21073  22.739   5.914   1.007  0.0271  0.2862  0.1477
16674W        W21074  21.097   4.635   7.442  0.1124  0.0201 -0.1090
16675W        W21075   8.680   4.276   2.811  0.0338  0.2815  0.0697
16676W        W21076  22.370   3.949  24.267 -0.1752 -0.2414 -0.2072
16677W        W21077  26.497   7.364  23.310  0.2100 -0.4102 -0.0400
16678W        W21078  13.118   4.319   2.254  0.0572 -0.0586  0.2351
16679W        W21079  18.651   1.422  22.344 -0.1186  0.0721  0.1536
16680W        W21080   7.081   3.102  20.723 -0.1254  0.0378 -0.2837
16681W        W21081  15.281   6.580  19.731  0.0607  0.2383 -0.1616
16682W        W21082   6.368   5.102   0.358  0.1406  0.0343  0.0729
16683W        W21083  24.269   5.864   6.754  0.0497 -0.1141  0.1854
16684W        W21084  21.565   6.905  15.967  0.1686  0.0749  0.0533
16685W        W21085   5.386   7.618  17.228  0.2105  0.1379 -0.2206
16686W        W21086  24.853   5.712  10.313  0.1029 -0.1575  0.2177
16687W        W21087  28.346   4.074   7.789 -0.1593 -0.1944  0.1745
16688W        W21088  12.505   3.267  16.958 -0.0896 -0.1075 -0.2908
16689W        W21089   6.692   2.218   7.491 -0.0062 -0.0813  0.1354
16690W        W21090  18.443   6.177   8.908 -0.0597  0.1315  0.0811
16691W        W21091  20.755   2.395  22.565  0.1396  0.2670  0.3821
16692W        W21092   4.068   6.690   6.378  0.0894  0.3940 -0.1679
16693W        W21093  28.918   2.842  23.440 -0.1176 -0.1429  0.0772
16694W        W21094  20.999   7.635   2.950  0.0694 -0.0322  0.2777
16695W        W21095  11.710   3.477  24.448 -0.1151 -0.0209 -0.1302
16696W        W21096   9.581   1.967   2.107  0.1360 -0.2008  0.0641
16697W        W21097   8.682   2.535   5.717  0.0559  0.5958  0.1130
16698W        W21098   5.314   6.402  11.346 -0.0450 -0.1435  0.1117
16699W        W21099  28.839   1.078   0.383  0.1286 -0.1004  0.0402
16700W        W21100   9.068   6.321   8.103 -0.1866  0.1539  0.1341
16701W        W21101   9.939   2.402  20.153  0.2582  0.0751  0.0965
16702W        W21102  27.453   3.991  19.335 -0.0452  0.1884  0.0038
16703W        W21103  15.550   1.272   9.531  0.0568 -0.0960  0.1070
16704W        W21104   5.844   6.546  24.774 -0.0076  0.1237 -0.0393
16705W        W21105  10.639   0.848  18.987 -0.1949  0.0229 -0.0527
16706W        W21106  19.294   6.949   7.112  0.0087 -0.1165  0.0566
16707W        W21107  14.730   4.263  22.624  0.2406  0.1717  0.1739
16708W        W21108  24.074   0.555  26.044 -0.0024 -0.0062 -0.0837
16709W        W21109   7.503   2.367   4.029 -0.0496 -0.2877  0.0136
16710W        W21110  22.413   6.700   1.147  0.0512 -0.1153  0.0078
16711W        W21111   9.678   5.640   0.038  0.0970 -0.1096 -0.0548
16712W        W21112  17.370   4.203   2.398  0.1445  0.1122  0.0153
16713W        W21113  28.558   1.849  20.896 -0.1080 -0.2997 -0.0776
16714W        W21114  22.299   7.633  23.241 -0.1693  0.0138 -0.0535
16715W        W21115  28.854   2.382  18.336 -0.1454 -0.1285 -0.0779
16716W        W21116  28.390   5.343  26.044  0.1477 -0.0367  0.1370
16717W        W21117  26.441   6.094  25.315 -0.1166  0.2802 -0.2131
16718W        W21118  10.186   6.792   5.371  0.0983  0.0858  0.2318
16719W        W21119   8.167   7.383  18.473 -0.2635  0.5230 -0.2019
16720W        W21120   5.371   2.618  19.734 -0.0322 -0.0165  0.0901
16721W        W21121  25.527   0.136  19.577  0.1906 -0.0702 -0.1592
16722W        W21122  30.876   3.162   4.847  0.0001  0.0203 -0.0919
16723W        W21123   5.792   6.368  11.239 -0.0883  0.0405  0.2086
16724W        W21124   1.179   4.071  25.471  0.0735  0.0023  0.1900
16725W        W21125  24.240   7.115   7.688 -0.1091 -0.1504 -0.0902
16726W        W21126  14.327   2.058   8.145  0.0680  0.1749 -0.2480
16727W        W21127   0.958   2.997   2.045  0.0673  0.0279 -0.2294
16728W        W21128  17.495   2.297   0.983 -0.1090  0.1900  0.2210
16729W        W21129  14.680   5.310  22.296  0.1369 -0.1832  0.1803
16730W        W21130   4.626   4.779  25.707 -0.1189 -0.2044 -0.1885
16731W        W21131  26.913   5.631  18.036  0.1665  0.3145  0.1203
16732W        W21132  19.207   7.774   9.982  0.0815  0.0033 -0.3733
16733W        W21133   2.724   6.389   9.405 -0.0408  0.1555  0.2026
16734W        W21134   0.757   4.151   3.703 -0.0336 -0.0808 -0.0795
16735W        W21135   0.226   2.481   1.462 -0.0539  0.0654  0.2057
16736W        W21136  22.147   4.888  25.235  0.3254 -0.2476  0.2457
16737W        W21137   2.704   4.664  17.291 -0.1130  0.3037 -0.3782
16738W        W21138  18.270   0.603  19.435  0.1082 -0.0982 -0.3673
16739W        W21139   7.752   2.304   1.725  0.0830 -0.0136  0.1475
16740W        W21140  26.503   4.309  20.171 -0.2438 -0.1323 -0.1007
16741W        W21141  10.372   3.276   8.807 -0.0965 -0.0792 -0.0985
16742W        W21142   1.671   2.933   9.510  0.2614 -0.1343 -0.2304
16743W        W21143  29.896   7.334   4.984  0.1305 -0.2642  0.2222
16744W        W21144  15.427   7.207  16.010 -0.3672  0.1565  0.1124
16745W        W21145  21.565   7.107  17.049  0.1310 -0.2622 -0.1472
16746W        W21146   8.678   3.742  17.856  0.1854 -0.1831 -0.0043
16747W        W21147  27.877   4.869   4.562 -0.2011  0.0425  0.1252
16748W        W21148  18.637   5.385  18.533  0.1241 -0.1640 -0.4636
16749W        W21149   4.315   7.420  17.346  0.1849 -0.3967  0.0806
16750W        W21150  29.905   2.641  15.911 -0.1694 -0.1025  0.0468
16751W        W21151  29.040   5.042  18.399  0.1314  0.0172  0.0790
16752W        W21152  11.140   4.375   6.995 -0.0601  0.2703  0.1123
16753W        W21153  20.019   2.490  24.217  0.1479  0.1333  0.2181
16754W        W21154  17.276   7.366  17.732 -0.0404  0.1159  0.0684
16755W        W21155  27.260   0.220  26.027  0.2925 -0.1440 -0.0357
16756W        W21156  13.612   1.476  25.876 -0.1649  0.0505  0.0325
16757W        W21157   5.027   6.414   0.196 -0.0839  0.1632  0.1375
16758W        W21158  15.136   2.020   3.348 -0.0722  0.1429  0.0993
16759W        W21159   0.299   5.761   9.146 -0.2041  0.1510  0.1408
16760W        W21160  27.166   1.468  21.252 -0.0792  0.1234  0.0335
16761W        W21161  26.352   7.409   5.476 -0.3609 -0.0980 -0.2452
16762W        W21162   5.778   5.140  17.564 -0.1914 -0.2217 -0.2517
16763W        W21163   0.077   2.523  24.769  0.2160  0.5312 -0.3072
16764W        W21164  27.500   4.357  24.844  0.2493 -0.0227  0.2659
16765W        W21165   5.317   0.291   3.341 -0.0309  0.1282  0.0716
16766W        W21166   5.770   1.544  24.995  0.1168 -0.1285 -0.0132
16767W        W21167  28.950   3.966   7.592 -0.2789  0.3111 -0.1210
16768W        W21168  12.704   4.800  19.819 -0.1528  0.0218  0.1157
16769W        W21169  11.294   3.581  10.743  0.5320 -0.0426  0.1080
16770W        W21170  14.684   0.045  17.438  0.0667  0.0831  0.1695
16771W        W21171  20.711   0.156  19.858 -0.2193  0.0723 -0.0224
16772W        W21172  22.379   1.110   4.683  0.0736  0.2726  0.2255
16773W        W21173   7.692   7.379  23.081  0.4674  0.3124  0.3363
16774W        W21174  20.278   0.930  24.038  0.4438  0.2098  0.1009
16775W        W21175  13.812   2.896   9.580 -0.1946  0.1567  0.1240
16776W        W21176   3.769   4.835   9.752  0.0242  0.1825  0.1329
16777W        W21177  15.055   3.656  16.997 -0.0214 -0.1931  0.2854
16778W        W21178   1.868   0.318  24.417 -0.0973 -0.2410 -0.0733
16779W        W21179  17.821   4.288   4.846 -0.3661 -0.1312  0.0153
16780W        W21180  22.075   6.749  25.769 -0.0794  0.0451  0.4052
16781W        W21181   8.642   5.218   8.931  0.2025  0.2027 -0.2228
16782W        W21182  26.026   5.747  17.110 -0.0335  0.0947  0.2018
16783W        W21183   8.125   4.086  10.706  0.1522 -0.2568 -0.2206
16784W        W21184   9.580   4.973  10.245 -0.0937 -0.0938  0.3210
16785W        W21185  16.560   1.620   7.563  0.0617  0.0434  0.2973
16786W        W21186   5.446   1.376   3.424 -0.0456 -0.0053  0.2047
16787W        W21187   3.738   5.041  18.169  0.0468 -0.2835  0.0694
16788W        W21188  16.855   3.565  20.752  0.1255 -0.2050 -0.1146
16789W        W21189  12.605   0.779   0.124 -0.0262 -0.0631 -0.0758
16790W        W21190   9.610   6.211   0.707  0.3438  0.1031  0.0916
16791W        W21191  13.847   6.721  21.537 -0.2406 -0.1961  0.2053
16792W        W21192   3.197   2.581  25.411 -0.2511 -0.1928  0.1064
16793W        W21193   0.810   0.299  17.045  0.0339  0.0305 -0.1552
16794W        W21194   7.610   5.181  23.362  0.3169 -0.0330  0.0616
16795W        W21195   1.797   6.170   1.715 -0.1974 -0.0121 -0.0186
16796W        W21196   4.456   2.134  21.759 -0.0258  0.2114 -0.1400
16797W        W21197  29.456   0.952   1.532  0.1355  0.1674  0.0665
16798W        W21198  23.200   3.671   4.335 -0.0920 -0.0672 -0.1146
16799W        W21199  20.569   4.542  18.330 -0.2557  0.2341  0.0954
16800W        W21200  19.807   2.563   4.780 -0.1442 -0.1183 -0.1255
16801W        W21201  13.581   0.964   7.714  0.3856 -0.3069  0.0024
16802W        W21202  26.897   5.999  25.078 -0.1162 -0.0129 -0.1040
16803W        W21203  11.501   3.203  17.298 -0.0875  0.0499  0.2631
16804W        W21204  22.470   7.204  17.975 -0.0743 -0.1062  0.0610
16805W        W21205  12.954   5.059  22.878  0.1365 -0.1231  0.1819
16806W        W21206  30.391   2.950   6.804  0.0901  0.0728  0.0687
16807W        W21207  23.504   1.875  17.360 -0.2167 -0.0876 -0.1610
16808W        W21208  27.564   7.228  23.544 -0.1698 -0.1368  0.0441
16809W        W21209  29.737   7.133  10.020 -0.0457 -0.0397 -0.1171
16810W        W21210  25.638   7.558  22.895 -0.1609 -0.2346  0.0670
16811W        W21211  30.590   0.903  10.370  0.0867 -0.0886 -0.3160
16812W        W21212   5.226   2.158  16.013 -0.1072 -0.1804  0.2067
16813W        W21213  10.256   5.892  15.123 -0.0396  0.0802 -0.0795
16814W        W21214  17.423   4.979   5.451  0.1505 -0.0999  0.1655
16815W        W21215  12.769   1.367   3.568  0.0815 -0.0501 -0.1152
16816W        W21216   9.563   7.670   1.556 -0.1135 -0.1030 -0.1045
16817W        W21217   6.234   5.479  11.079  0.0269 -0.2801  0.0489
16818W        W21218  16.681   3.030  23.276  0.3278  0.0625 -0.1545
16819W        W21219  29.629   4.100   9.047  0.1376 -0.1154 -0.1668
16820W        W21220  20.357   5.527  15.600  0.1543  0.3476 -0.4052
16821W        W21221   6.044   2.293   4.864 -0.0360  0.1969  0.1698
16822W        W21222  30.516   6.393   3.437  0.2285  0.3818 -0.2797
16823W        W21223  24.105   1.390  25.411  0.4201  0.3007 -0.0181
16824W        W21224   6.629   3.080   9.704  0.0143 -0.0749 -0.1125
16825W        W21225  12.102   2.787   9.567  0.0601  0.1736  0.1097
16826W        W21226  26.840   2.866  15.026 -0.2633  0.1584 -0.2012
16827W        W21227  30.511   3.924   1.482 -0.1233 -0.1187 -0.0245
16828W        W21228  14.190   0.818   7.226 -0.1649  0.0343 -0.1832
16829W        W21229   3.719   6.115  24.424  0.2730 -0.0572  0.0642
16830W        W21230  16.222   7.651  19.124  0.1941 -0.0563 -0.0275
16831W        W21231  13.381   7.194  22.787 -0.0550 -0.0048 -0.0295
16832W        W21232  28.978   2.105  21.784 -0.4323 -0.2604 -0.0066
16833W        W21233  11.217   6.698  10.183 -0.0241  0.1956  0.2243
16834W        W21234  18.729   6.510   4.811 -0.2842 -0.0081 -0.1796
16835W        W21235   7.679   5.526   8.926 -0.1996  0.0127 -0.0601
16836W        W21236  24.988   1.192   0.552  0.3097  0.0570  0.1300
16837W        W21237   5.469   7.797  10.073 -0.0288  0.0794 -0.1316
16838W        W21238   4.214   1.106  15.693  0.1815 -0.2801  0.0538
16839W        W21239  23.131   2.384   2.162 -0.0938  0.3043 -0.1417
16840W        W21240  10.358   2.559   0.127  0.3106  0.1438 -0.2353
16841W        W21241  26.115   7.726  24.273  0.0336 -0.0770 -0.4166
16842W        W21242  11.963   1.030   3.739 -0.1746 -0.0621  0.1403
16843W        W21243   3.744   1.128   8.451  0.1626  0.0268  0.1748
16844W        W21244  30.886   2.489   8.533 -0.1577  0.2589 -0.2120
16845W        W21245  11.605   4.607  19.115 -0.0910 -0.3333  0.3068
16846W        W21246  21.861   0.934  10.872  0.2186 -0.2891 -0.0426
16847W        W21247  12.967   6.320   0.261 -0.0260 -0.0534 -0.0978
16848W        W21248  23.683   1.803   8.071 -0.1887  0.1804  0.0837
16849W        W21249  25.412   1.346  20.230  0.0250 -0.1395 -0.0989
16850W        W21250  10.969   0.419   8.856  0.2953 -0.0568  0.0132
16851W        W21251   6.510   7.360  16.509  0.2008  0.2431  0.0737
16852W        W21252  26.330   2.829  10.040 -0.1961  0.1039 -0.0289
16853W        W21253  14.282   2.642   6.915 -0.1201 -0.1152  0.4794
16854W        W21254  11.252   2.103  20.890  0.2041  0.0091  0.0914
16855W        W21255   1.752   5.874   3.008 -0.0729  0.1276 -0.0588
16856W        W21256   6.752   4.973   2.735  0.0232  0.0928 -0.0708
16857W        W21257  13.539   2.550  23.043 -0.2079 -0.0484  0.0271
16858W        W21258   3.111   6.414  20.324  0.0271  0.0977  0.2593
16859W        W21259  21.058   4.539  23.034  0.2274  0.0954 -0.1159
16860W        W21260   6.371   4.298   9.758  0.2774  0.1393 -0.3187
16861W        W21261  11.642   1.783   7.186  0.2077  0.0344  0.0254
16862W        W21262   0.585   2.419   4.242  0.2638 -0.1348 -0.0658
16863W        W21263   2.937   0.931   2.441  0.0217  0.0376 -0.0925
16864W        W21264  24.805   0.363   6.295  0.0609  0.0397 -0.1030
16865W        W21265  20.608   1.592   7.295 -0.0417  0.0830 -0.1470
16866W        W21266  28.722   5.266  25.148  0.1423 -0.0407  0.3069
16867W        W21267  11.331   7.131  16.389  0.2231 -0.2265  0.3101
16868W        W21268  14.964   2.968   8.948 -0.0634 -0.1480  0.3987
16869W        W21269  30.601   1.738  19.466 -0.0064 -0.0312  0.3781
16870W        W21270  18.870   6.903   5.324  0.0594  0.0239 -0.4092
16871W        W21271  12.360   5.772   1.507  0.5342  0.1280  0.1669
16872W        W21272  22.756   7.420  25.800 -0.1072  0.1663 -0.1927
16873W        W21273  17.920   1.349  22.115  0.1194  0.1010  0.1193
16874W        W21274  30.313   7.031   0.239  0.2444  0.2305 -0.1719
16875W        W21275  28.864   4.105  17.520 -0.0696 -0.0970  0.2048
16876W        W21276   5.330   6.519   1.015  0.3307 -0.0549  0.5577
16877W        W21277  12.072   4.407  19.002  0.3275 -0.0136 -0.1484
16878W        W21278  31.104   4.649  16.598 -0.2117 -0.2319  0.2633
16879W        W21279  18.915   3.185  19.297 -0.0997  0.0363 -0.1893
16880W        W21280  11.461   6.627  21.187 -0.1003 -0.0458  0.3307
16881W        W21281   7.140   2.755  25.490  0.0086  0.1016  0.0305
16882W        W21282  23.950   4.630   3.490 -0.0295  0.1236  0.0355
16883W        W21283  30.314   2.366  17.335  0.1727 -0.0643  0.2126
16884W        W21284  11.780   7.479  22.814  0.4334 -0.0951  0.1700
16885W        W21285  17.494   4.231   5.972 -0.1437 -0.0253 -0.1295
16886W        W21286  24.264   7.328  22.955  0.0303 -0.0809  0.0192
16887W        W21287  11.024   7.216  21.143 -0.0556 -0.2471 -0.1921
16888W        W21288  25.772   7.346  19.139  0.0461 -0.0432 -0.0851
16889W        W21289  16.715   7.204   9.705 -0.1797 -0.0291  0.1255
16890W        W21290  17.618   0.779  20.104 -0.1449  0.1018  0.1057
16891W        W21291  19.821   1.666  15.449 -0.0379  0.3495  0.0695
16892W        W21292  27.948   4.074   9.635 -0.2968 -0.0826  0.3299
16893W        W21293   2.950   3.597  25.264 -0.0427  0.0035 -0.0495
16894W        W21294   7.140   0.222  20.955 -0.0748  0.0727 -0.2127
16895W        W21295  26.137   0.379   8.073  0.2587 -0.2503  0.0409
16896W        W21296   8.069   1.230   8.627 -0.1301  0.0135 -0.0114
16897W        W21297   6.758   2.284   9.974  0.0431  0.4853 -0.0056
16898W        W21298   9.551   0.697   6.124  0.4319 -0.0863 -0.1191
16899W        W21299  22.482   0.629  21.476 -0.0132  0.0700 -0.0124
16900W        W21300  13.597   7.143  19.203 -0.0343 -0.0705  0.0654
16901W        W21301  15.154   4.438   3.753  0.0687 -0.1859 -0.1213
16902W        W21302  16.154   6.407  16.481  0.2028 -0.0411 -0.0907
16903W        W21303  22.533   2.032   3.879  0.0214 -0.0692 -0.0173
16904W        W21304   2.841   1.981  15.262  0.1734 -0.1619 -0.2084
16905W        W21305   8.406   0.225   7.618  0.0841  0.3769 -0.2508
16906W        W21306  16.908   2.442  16.201  0.1055  0.1014 -0.0097
16907W        W21307  20.068   1.915   2.865 -0.0418 -0.0087  0.1359
16908W        W21308  25.956   5.699  20.695  0.0703 -0.0385 -0.2098
16909W        W21309  17.900   2.845   7.201 -0.1614 -0.1221  0.2954
16910W        W21310  17.742   1.660  22.697  0.1673  0.1671  0.0388
16911W        W21311   5.997   2.871  22.187  0.0427 -0.3084  0.1369
16912W        W21312  25.552   5.382   5.185 -0.0529  0.1361  0.0140
16913W        W21313   0.306   5.839  11.573 -0.0556  0.0232 -0.3116
16914W        W21314  14.093   3.674   9.699 -0.0422  0.0347  0.4518
16915W        W21315   4.798   6.046   9.972  0.1620 -0.2804  0.0664
16916W        W21316  16.095   2.250  15.847 -0.0280 -0.0162  0.0054
16917W        W21317   4.654   3.500   4.523 -0.1167  0.0465 -0.2082
16918W        W21318  27.653   0.580   3.920  0.1435  0.0945  0.0145
16919W        W21319  30.297   1.689   3.998 -0.2312 -0.0475  0.2097
16920W        W21320  30.384   4.193  17.427  0.0309 -0.1712  0.3224
16921W        W21321  17.275   6.141  19.192  0.0410 -0.0005 -0.0785
16922W        W21322   2.610   3.220  22.332  0.1168 -0.1707  0.1614
16923W        W21323  31.196   0.693   7.857 -0.2968  0.1539 -0.1444
16924W        W21324  21.475   7.133   4.818 -0.0668 -0.1017  0.0090
16925W        W21325  19.231   5.883  25.826  0.0500  0.1110 -0.1405
16926W        W21326  28.791   0.156   6.753 -0.3361 -0.0936  0.1455
16927W        W21327   8.556   0.261   8.330  0.2035  0.3172  0.2997
16928W        W21328  21.284   3.491   9.900 -0.0086 -0.4706  0.4172
16929W        W21329   1.182   2.820  19.379  0.1843  0.1001 -0.0120
16930W        W21330  27.283   0.149   4.414  0.1487  0.1432  0.0309
16931W        W21331  23.941   0.625  20.704 -0.1266 -0.0672 -0.0271
16932W        W21332  16.186   2.674   7.638 -0.0738 -0.1914 -0.0365
16933W        W21333   8.959   7.144  18.035  0.0733  0.0410 -0.3731
16934W        W21334  15.820   1.815   7.412  0.0445  0.2059 -0.1211
16935W        W21335   7.064   0.663  15.550 -0.0212  0.0123 -0.0791
16936W        W21336  28.940   5.736  23.747  0.3068 -0.0506 -0.2679
16937W        W21337  27.010   0.333  21.205 -0.1249 -0.1579  0.0442
16938W        W21338  31.277   6.796  18.198 -0.0417 -0.0069 -0.0599
16939W        W21339   3.731   6.560   2.003  0.0109 -0.3381 -0.3045
16940W        W21340  29.381   2.508   7.474 -0.4074 -0.2603 -0.0095
16941W        W21341  12.373   1.766  15.834 -0.0242  0.0667 -0.0116
16942W        W21342   2.284   6.673   5.078  0.0166  0.1725 -0.0718
16943W        W21343  22.682   5.131  20.062  0.2606  0.0114 -0.0708
16944W        W21344  21.232   1.461  15.462 -0.3255 -0.0913 -0.0140
16945W        W21345  15.709   5.025   2.718 -0.2333 -0.0169 -0.1003
16946W        W21346  28.589   6.842   7.727 -0.0786 -0.2379 -0.2237
16947W        W21347  14.969   4.985   0.469  0.0693 -0.0188 -0.0727
16948W        W21348  24.172   5.626   4.216 -0.0761 -0.2898  0.1600
16949W        W21349  11.403   2.047  15.971  0.1731  0.2364  0.0644
16950W        W21350  25.509   5.420  20.700  0.2541 -0.0936 -0.0417
16951W        W21351   8.333   0.614  22.582 -0.1654 -0.0066 -0.0912
16952W        W21352  20.615   0.836   8.880  0.2449 -0.0245 -0.0943
16953W        W21353  30.455   3.484   2.668  0.3499  0.0067 -0.0643
16954W        W21354   9.070   4.613  17.717 -0.4148  0.0928 -0.1642
16955W        W21355  14.795   2.384  20.944 -0.2440  0.0365 -0.0335
16956W        W21356  12.233   7.181  17.316  0.2691  0.0535 -0.2401
16957W        W21357   7.169   0.945  24.514  0.2872  0.1800 -0.0121
16958W        W21358  21.675   5.123   8.067  0.3492  0.0407  0.0693
16959W        W21359   9.638   5.341   7.110  0.0845  0.0516 -0.1104
16960W        W21360   2.226   3.425   4.528 -0.0043  0.1129  0.0135
16961W        W21361  11.331   3.529   4.415  0.0628  0.1681 -0.2710
16962W        W21362  28.446   5.795   4.287  0.2057 -0.0204 -0.2106
16963W        W21363   4.438   3.246  15.843  0.2256 -0.1500 -0.4010
16964W        W21364  26.435   3.582  15.764  0.2714  0.1176 -0.0905
16965W        W21365   6.435   2.175   3.604  0.0465 -0.1458 -0.1676
16966W        W21366  30.166   7.030  22.227  0.1468  0.0138  0.1561
16967W        W21367   8.414   3.497   5.808  0.0588  0.2616  0.1014
16968W        W21368   4.511   4.461  17.002  0.0321 -0.1771  0.2942
16969W        W21369   4.315   3.537   9.276 -0.3210 -0.1621 -0.1773
16970W        W21370   0.452   5.291   5.655 -0.3059  0.0003 -0.0612
16971W        W21371  18.909   5.388  15.473  0.0558  0.0637  0.1773
16972W        W21372  11.676   0.950  22.304 -0.2226  0.1515  0.1780
16973W        W21373  30.696   2.529  11.469 -0.0483 -0.1384  0.0594
16974W        W21374   7.555   4.358   3.223  0.1090 -0.0889 -0.2172
16975W        W21375  14.832   6.005   2.255 -0.1329 -0.0006 -0.2653
16976W        W21376   5.354   4.761  17.709  0.3382  0.0663  0.1693
16977W        W21377  28.337   5.428  17.681  0.2194 -0.2006  0.1249
16978W        W21378  26.049   1.243  10.691 -0.1064 -0.0520 -0.0768
16979W        W21379   3.233   6.355  10.702 -0.0865 -0.1106  0.2502
16980W        W21380   0.033   2.418  15.404 -0.1044  0.0834 -0.0214
16981W        W21381  14.553   0.449  24.077 -0.0126 -0.2655  0.0033
16982W        W21382  14.296   7.597   0.269 -0.1001 -0.2105  0.0997
16983W        W21383   0.392   7.409  16.659  0.2822  0.1821 -0.0151
16984W        W21384  21.403   4.264   1.971  0.0819  0.0083 -0.0066
16985W        W21385  20.300   6.260   1.983 -0.0842  0.1217 -0.2385
16986W        W21386   2.264   4.568   7.656  0.2503  0.3493 -0.1946
16987W        W21387  25.648   5.246   7.541 -0.1228  0.0219  0.3601
16988W        W21388  31.110   1.356  24.599  0.2181 -0.0345 -0.1964
16989W        W21389   3.348   7.000   7.789 -0.2442  0.3444  0.1328
16990W        W21390  20.073   5.400   5.763 -0.0858 -0.1696 -0.0715
16991W        W21391   9.360   0.625  22.219  0.1410  0.1222  0.0438
16992W        W21392  15.290   6.887   3.215  0.0662  0.0380 -0.2051
16993W        W21393  30.536   7.487   1.897 -0.1968 -0.0592 -0.2126
16994W        W21394  25.635   6.082  10.652  0.1465 -0.1136  0.0915
16995W        W21395   9.342   3.384  21.286  0.0921  0.1271 -0.1233
16996W        W21396  31.235   7.143  16.612 -0.0559  0.1123  0.1447
16997W        W21397   3.161   2.775  17.386  0.0113  0.0685  0.1861
16998W        W21398   6.720   1.196   4.507  0.1391  0.4316  0.0600
16999W        W21399   0.950   5.906  20.365 -0.1328  0.2887 -0.2085
17000W        W21400  21.533   3.050   9.611  0.0321 -0.0663  0.1020
17001W        W21401  11.610   6.146  18.224 -0.0338 -0.0677  0.1989
17002W        W21402  30.778   2.441  24.766  0.0870  0.0614 -0.1065
17003W        W21403  22.488   5.220   8.411  0.0550 -0.1514  0.3246
17004W        W21404  20.451   6.799  20.839  0.0953 -0.2942 -0.0762
17005W        W21405   1.019   2.107   9.454  0.0781  0.0503 -0.1360
17006W        W21406  15.206   5.810  21.913  0.0586  0.0835  0.0578
17007W        W21407  17.840   3.547  24.638  0.2217 -0.0269  0.0517
17008W        W21408  11.323   5.562   9.806  0.0445 -0.1987  0.2695
17009W        W21409  18.623   4.113   6.997  0.2903  0.0535  0.1008
17010W        W21410  25.866   7.287   1.849  0.5771 -0.1797  0.1005
17011W        W21411  30.619   7.070   9.437  0.1379  0.1835 -0.1853
17012W        W21412   9.907   5.469  17.898 -0.1203  0.2587 -0.0533
17013W        W21413  15.908   4.326  19.444  0.1770 -0.0258 -0.0670
17014W        W21414   6.599   5.518  19.207  0.1305  0.0660  0.0330
17015W        W21415  11.010   7.339  15.029  0.3112 -0.0621  0.0917
17016W        W21416   6.155   5.105  15.617 -0.2394  0.2132 -0.1869
17017W        W21417  29.924   4.638  11.099 -0.0408  0.0333 -0.2778
17018W        W21418  12.321   4.646  24.207 -0.4325 -0.0993 -0.0432
17019W        W21419  13.182   4.695   5.918 -0.2462  0.0128  0.0565
17020W        W21420  24.304   6.161   9.956 -0.1269 -0.0199 -0.1303
17021W        W21421   9.895   1.977  18.084  0.0112  0.0569 -0.0672
17022W        W21422   8.209   5.428  24.096  0.2537  0.3845  0.0874
17023W        W21423  15.877   2.967  19.383  0.0696  0.4596  0.2226
17024W        W21424   4.960   0.340  19.433  0.0414 -0.0464 -0.0448
17025W        W21425  12.703   2.443  22.764  0.1122  0.2281  0.1251
17026W        W21426  20.836   1.698  26.071 -0.0112  0.0118  0.1506
17027W        W21427  27.954   6.886  16.519 -0.2908 -0.2165  0.0021
17028W        W21428   4.511   4.261  18.035 -0.0391 -0.2739 -0.1225
17029W        W21429  13.299   0.022  21.202  0.1655  0.0219  0.3256
17030W        W21430  26.493   1.317   5.029 -0.2656 -0.0237  0.0171
17031W        W21431  17.050   4.706   7.925 -0.2779 -0.2619 -0.1859
17032W        W21432   1.914   2.154   1.950  0.1036  0.0886  0.1779
17033W        W21433  18.952   3.876  22.981 -0.3881  0.1017  0.0687
17034W        W21434   9.032   5.859  19.905 -0.0273 -0.0391  0.1623
17035W        W21435  17.724   4.003   6.867 -0.0659  0.0620 -0.1956
17036W        W21436   7.860   1.599  17.129  0.0435  0.3329  0.1167
17037W        W21437  24.600   6.710  18.602  0.2566 -0.0442  0.2171
17038W        W21438  26.026   2.237   9.525 -0.0366 -0.3281 -0.0440
17039W        W21439   5.614   0.835  24.529  0.1076  0.0115 -0.0010
17040W        W21440  14.381   6.597  22.344  0.0406  0.0765  0.0747
17041W        W21441  10.762   0.524   7.103 -0.0328 -0.1395 -0.0789
17042W        W21442  19.393   0.511  23.214 -0.0454  0.2029  0.1060
17043W        W21443   0.357   3.648  21.109 -0.0998 -0.1331  0.0620
17044W        W21444   0.823   1.450  17.854 -0.1427  0.0097 -0.1226
17045W        W21445  28.720   2.166   5.444 -0.1310  0.0700 -0.0598
17046W        W21446  14.733   7.824  15.956  0.1900  0.3035  0.2387
17047W        W21447  27.880   7.037  18.323 -0.0187  0.2683  0.0845
17048W        W21448   5.535   0.703   2.234 -0.0931  0.1377  0.0312
17049W        W21449  29.492   7.004   8.508 -0.0543  0.1391 -0.0944
17050W        W21450  25.677   4.833   2.978  0.1219 -0.0772 -0.0933
17051W        W21451  16.700   3.303   8.300 -0.0872 -0.2402 -0.0533
17052W        W21452  27.755   7.371  15.744  0.3366 -0.2566  0.1263
17053W        W21453  12.330   5.132  20.395 -0.0092 -0.0877  0.0771
17054W        W21454  20.224   1.512  25.223 -0.0970  0.0362  0.1661
17055W        W21455  21.187   7.267  20.958  0.1551 -0.1506  0.2758
17056W        W21456   0.911   3.997  18.873  0.0300 -0.0465 -0.2398
17057W        W21457  10.420   2.993  15.800 -0.0708 -0.0354  0.2365
17058W        W21458   9.166   1.094  20.055 -0.0438  0.1097 -0.1531
17059W        W21459  10.660   5.361  16.761 -0.0072  0.0847 -0.2171
17060W        W21460  25.411   3.357   3.435  0.0110  0.1308 -0.0312
17061W        W21461  20.948   4.723   3.698  0.0275 -0.0015  0.0080
17062W        W21462   7.201   0.427  16.037  0.1952  0.0346 -0.2343
17063W        W21463  14.101   5.392  20.008 -0.1060  0.0761  0.0468
17064W        W21464  18.128   6.951   9.512 -0.1712 -0.0336  0.1615
17065W        W21465   7.114   0.557  16.902  0.2438 -0.3017  0.1908
17066W        W21466  18.536   5.449  24.549  0.0305  0.0889  0.2085
17067W        W21467   8.297   4.077   8.929 -0.3892  0.0649 -0.1343
17068W        W21468  20.877   0.407   5.791  0.0090 -0.0419  0.2065
17069W        W21469  20.869   6.517   8.863 -0.0248  0.1392 -0.0185
17070W        W21470  27.195   1.856  25.134 -0.2911  0.1992 -0.0074
17071W        W21471  12.045   2.957   5.180 -0.2699  0.2235  0.2606
17072W        W21472  10.642   1.269   6.672  0.4242 -0.0840  0.2264
17073W        W21473  23.762   2.313   8.391  0.3060 -0.0275  0.0888
17074W        W21474  24.143   3.228  10.292  0.0245 -0.3679 -0.0385
17075W        W21475  26.917   7.302  19.316  0.1811 -0.0192 -0.3254
17076W        W21476   9.296   2.237  24.409 -0.0721  0.1201 -0.1618
17077W        W21477   5.417   6.797   6.334 -0.1864  0.3975  0.0648
17078W        W21478  22.540   3.122  16.910 -0.0030  0.4381  0.1883
17079W        W21479  21.151   0.348  22.789  0.0915 -0.3105  0.0054
17080W        W21480  26.743   7.349   7.513  0.0289 -0.0973  0.0354
17081W        W21481  26.204   6.571  24.045 -0.3138 -0.4940 -0.1908
17082W        W21482  16.481   2.157  22.713  0.0391 -0.0685  0.3009
17083W        W21483   7.021   6.719  15.739 -0.1515  0.1205  0.0815
17084W        W21484   8.337   3.159  17.104  0.2233  0.3271  0.0381
17085W        W21485   5.721   2.822  14.764 -0.1728  0.0977 -0.1085
17086W        W21486  16.905   4.362  17.891 -0.0859 -0.1447  0.2103
17087W        W21487  21.084   1.987   7.946 -0.2200 -0.0281 -0.1552
17088W        W21488  31.279   4.010   8.940  0.1962 -0.0105  0.4839
17089W        W21489   3.999   1.226   5.521 -0.0208  0.1118 -0.3944
17090W        W21490  24.876   7.606  19.541  0.2814 -0.1445 -0.4764
17091W        W21491  21.423   5.984  24.269  0.2131 -0.2030  0.0733
17092W        W21492  20.649   2.718  21.746  0.0626  0.0304  0.0100
17093W        W21493   5.602   1.568   2.918  0.0677 -0.1000 -0.0099
17094W        W21494  18.359   5.271   8.615 -0.1842  0.1083  0.0951
17095W        W21495  20.430   3.459  22.550 -0.0394 -0.2919 -0.0648
17096W        W21496  19.268   7.126   8.642  0.2261 -0.0627 -0.2341
17097W        W21497  19.109   2.176  24.730 -0.2395  0.1526  0.0084
17098W        W21498  19.755   2.130   7.241  0.0658  0.1634 -0.0188
17099W        W21499  18.096   2.790   7.665  0.0230  0.1634  0.0774
17100W        W21500   0.343   6.792  12.230  0.4206 -0.2997  0.1846
17101W        W21501  10.905   1.581   2.285 -0.0438 -0.0633 -0.0601
17102W        W21502  24.338   5.662  10.046  0.0467 -0.2740  0.1994
17103W        W21503  15.572   5.313  24.333  0.0962  0.2749  0.0011
17104W        W21504  14.198   3.826  16.652  0.1246  0.4824 -0.1818
17105W        W21505  25.692   2.630  20.567 -0.0918  0.2824  0.0085
17106W        W21506  25.895   5.682  22.569 -0.0949  0.0794 -0.2979
17107W        W21507   5.522   6.069   5.324 -0.0072 -0.1161  0.0254
17108W        W21508  15.492   1.104  24.864  0.2684  0.4048 -0.0375
17109W        W21509  30.120   5.570   3.438 -0.0415  0.1181 -0.2634
17110W        W21510  25.206   1.141   2.754  0.0172  0.1319  0.0019
17111W        W21511  25.132   0.710  18.986 -0.1666 -0.1501  0.1011
17112W        W21512   5.945   1.980   7.021 -0.2027  0.2017  0.1978
17113W        W21513   2.490   7.817  10.515 -0.0666  0.1436 -0.0393
17114W        W21514  19.488   5.259   4.030 -0.1867  0.0079 -0.1813
17115W        W21515  30.935   5.012  10.346  0.2052 -0.0874 -0.1088
17116W        W21516  25.482   0.109  10.183  0.0991 -0.2980  0.0954
17117W        W21517  14.097   5.740  25.491  0.2089 -0.0935  0.3227
17118W        W21518  30.545   3.114  15.424 -0.1991 -0.0586  0.2520
17119W        W21519  25.872   5.718   7.766 -0.0907  0.1985  0.2245
17120W        W21520   0.609   4.620  24.741  0.1557  0.2717 -0.1105
17121W        W21521   6.197   1.667  20.073 -0.0915  0.0455  0.0279
17122W        W21522   3.387   1.149  18.911  0.2096  0.1952 -0.2208
17123W        W21523  11.423   0.500   2.119 -0.0465 -0.1510 -0.2752
17124W        W21524  11.454   1.033  20.132 -0.0936  0.0887 -0.1204
17125W        W21525  30.161   3.733   7.806 -0.2484 -0.0399  0.1126
17126W        W21526  13.168   1.686  25.927  0.0303  0.0549  0.0976
17127W        W21527  17.423   1.929  17.374 -0.1822  0.1860 -0.2005
17128W        W21528  23.318   0.498  23.309 -0.0464  0.1222  0.0738
17129W        W21529   3.680   1.683   6.503  0.1959 -0.2857  0.1132
17130W        W21530  14.367   4.371  21.220  0.0944 -0.0736 -0.0926
17131W        W21531  17.018   1.037   5.974  0.1035 -0.3132  0.2133
17132W        W21532  12.398   7.500  16.945 -0.2203  0.0365 -0.2047
17133W        W21533  29.867   0.281  10.708  0.0413  0.1184  0.0335
17134W        W21534  24.986   6.192  17.836  0.0285  0.4004 -0.1850
17135W        W21535  30.395   0.572   1.971  0.0067  0.0907 -0.2358
17136W        W21536  18.728   7.548   7.565  0.0907  0.0144 -0.0723
17137W        W21537   9.511   2.112   4.423 -0.0668  0.0732  0.0491
17138W        W21538  21.431   3.920   0.727  0.0653 -0.2387 -0.1336
17139W        W21539  24.386   3.604   8.168  0.3966  0.1285 -0.1342
17140W        W21540   8.065   2.610  15.697 -0.0230  0.0878 -0.0710
17141W        W21541   4.156   6.152   2.280  0.1014  0.0080  0.0535
17142W        W21542  24.580   7.615  24.574  0.0927  0.1101  0.0656
17143W        W21543  21.705   6.883   8.523 -0.0154 -0.4764 -0.1283
17144W        W21544  26.015   4.838   7.768 -0.1857 -0.1520  0.0210
17145W        W21545  30.200   5.759   0.633  0.1870  0.2469  0.1061
17146W        W21546  26.104   0.374  10.760  0.4381  0.0506 -0.1735
17147W        W21547  19.311   0.910   1.540  0.0703 -0.1024 -0.1339
17148W        W21548   6.786   7.755  19.802  0.0895 -0.2243  0.3803
17149W        W21549  17.690   2.934  14.630 -0.0509 -0.1445  0.0313
17150W        W21550   2.213   1.865   1.596  0.0273  0.0450 -0.0306
17151W        W21551   6.738   3.227  22.191 -0.2347  0.2241 -0.4350
17152W        W21552  12.035   2.828  20.917 -0.2621  0.0409 -0.0848
17153W        W21553  22.717   7.285  24.761  0.1754 -0.0033  0.2260
17154W        W21554   3.150   3.802  22.596 -0.0682  0.1324 -0.0615
17155W        W21555  19.859   0.446  24.709  0.0057  0.0917  0.1380
17156W        W21556  19.798   7.205   0.552 -0.0765  0.1087  0.1683
17157W        W21557   8.210   4.229  20.257  0.1458  0.0905  0.0259
17158W        W21558  22.309   6.499  15.572 -0.0431 -0.1305  0.1462
17159W        W21559  30.395   4.803  10.990 -0.1189  0.0411 -0.0951
17160W        W21560  17.616   6.383   1.109 -0.1245 -0.1230  0.1803
17161W        W21561   6.302   3.651   0.601 -0.0080  0.0260  0.0226
17162W        W21562  14.719   1.869   1.979 -0.3351 -0.1889 -0.1212
17163W        W21563  24.815   4.706  24.694 -0.2817 -0.2851  0.1893
17164W        W21564  16.389   7.219   9.281 -0.2269 -0.1255  0.1337
17165W        W21565  19.918   5.225   0.641  0.0033 -0.1587  0.0386
17166W        W21566   6.511   2.317  17.247 -0.1625  0.2651 -0.1092
17167W        W21567  31.288   3.992   3.912  0.1448 -0.1848 -0.0923
17168W        W21568  15.789   1.861   7.874 -0.0730  0.0080 -0.0386
17169W        W21569   0.614   1.103   7.601  0.6848  0.0022 -0.0703
17170W        W21570  20.782   5.490   8.904 -0.0017 -0.1549 -0.1637
17171W        W21571   5.050   2.831   6.722 -0.3052 -0.3152  0.3749
17172W        W21572  19.976   2.790  15.934  0.2502 -0.0355  0.1424
17173W        W21573  28.167   0.178  22.950  0.0561 -0.0505 -0.0402
17174W        W21574  20.576   3.374   4.719 -0.0607  0.0825 -0.0918
17175W        W21575  18.413   1.789  17.557 -0.0057 -0.2466 -0.1754
17176W        W21576  18.827   4.211  20.514  0.0344  0.0906  0.0058
17177W        W21577   7.018   6.146  24.993 -0.0419 -0.3412  0.2600
17178W        W21578  18.551   1.750   8.214 -0.0698 -0.0189 -0.0951
17179W        W21579   1.255   1.662   9.602  0.1177  0.5408 -0.2014
17180W        W21580   5.930   4.181  15.096  0.0169 -0.1683 -0.0720
17181W        W21581  27.831   6.330  25.037  0.6378  0.2140  0.4406
17182W        W21582   6.095   5.668   3.336  0.0408  0.1287  0.0110
17183W        W21583  13.779   6.246   7.776  0.1618 -0.1663  0.2290
17184W        W21584   5.760   1.691  18.764 -0.1496 -0.2268 -0.3068
17185W        W21585  28.071   0.803   4.029  0.1017  0.2270  0.2905
17186W        W21586  25.942   6.850   9.034  0.0433 -0.0338 -0.1171
17187W        W21587  13.083   1.886   0.164  0.1734 -0.0137 -0.1910
17188W        W21588   2.096   1.997  22.036 -0.0196 -0.1036 -0.1381
17189W        W21589  30.664   5.621   1.854  0.2264 -0.2817 -0.1307
17190W        W21590   4.341   7.354  21.863  0.0651 -0.2406 -0.2013
17191W        W21591   3.541   5.308  25.921  0.1251  0.2162 -0.1006
17192W        W21592  28.421   4.838   0.135 -0.0323  0.0684 -0.1890
17193W        W21593   4.615   6.780   4.433  0.0411  0.0486 -0.0595
17194W        W21594  18.102   1.882   8.262  0.0829  0.0187  0.4244
17195W        W21595  10.430   2.214   4.711  0.4009 -0.0803  0.3415
17196W        W21596  10.225   3.175  22.329 -0.3465 -0.0830  0.4862
17197W        W21597  25.195   0.619  18.323  0.0074 -0.3323 -0.2563
17198W        W21598   8.135   3.088  20.939  0.1045  0.1188 -0.0510
17199W        W21599  25.958   3.417  25.235 -0.3603 -0.2320  0.2832
17200W        W21600   4.533   0.994   2.197  0.0459  0.1969 -0.1592
17201W        W21601  22.528   3.316  23.537 -0.0602  0.2769  0.3752
17202W        W21602   4.992   7.807  20.226  0.1037  0.1116  0.1351
17203W        W21603   8.282   3.198  10.984 -0.0628  0.0775  0.1940
17204W        W21604  20.840   2.277  17.797  0.5534  0.2530 -0.0810
17205W        W21605  25.231   1.134  19.248  0.0122  0.1503 -0.0912
17206W        W21606   7.041   7.284  24.252  0.0501  0.3195 -0.2362
17207W        W21607  17.329   7.063  19.595 -0.0058  0.1527  0.1313
17208W        W21608  12.995   0.115   9.433 -0.0219  0.3198  0.0328
17209W        W21609  14.446   2.721  24.588  0.0775  0.1546 -0.1906
17210W        W21610  28.721   4.387   6.236  0.4331 -0.0731  0.1633
17211W        W21611  25.407   5.154   6.016 -0.0029 -0.1615 -0.1247
17212W        W21612  13.257   6.067  16.567  0.0851  0.0229 -0.0137
17213W        W21613  23.667   3.954   6.192 -0.1046 -0.1489 -0.0112
17214W        W21614  29.352   0.333  21.621  0.3458  0.2461  0.0343
17215W        W21615  10.165   0.347  16.437  0.1944 -0.0112  0.2527
17216W        W21616  31.158   6.936   7.893  0.2906 -0.2701 -0.0890
17217W        W21617   2.829   3.217   4.330  0.1652 -0.5056  0.3752
17218W        W21618   4.232   4.481   9.765 -0.1765 -0.2114 -0.2769
17219W        W21619   0.676   2.891  20.707 -0.0818  0.1149  0.2232
17220W        W21620  30.194   2.596  21.318 -0.0183  0.0438 -0.1768
17221W        W21621  28.742   3.625   2.268  0.0089  0.0588  0.2102
17222W        W21622  25.265   5.624  22.078  0.0676 -0.0660  0.3237
17223W        W21623  21.065   3.702  15.518 -0.1877  0.0851 -0.1587
17224W        W21624  25.160   5.544   2.712 -0.0703 -0.0519 -0.0203
17225W        W21625   1.463   3.894  21.998  0.1445  0.0590 -0.0579
17226W        W21626  31.132   0.906  17.953 -0.0471  0.1647 -0.2730
17227W        W21627   2.024   7.490   4.412  0.0203  0.1660  0.1114
17228W        W21628  30.718   7.172  25.530  0.0962 -0.1807 -0.3127
17229W        W21629  21.855   4.198   7.755 -0.4478 -0.0093  0.0570
17230W        W21630   0.087   7.453  24.181 -0.0245  0.1822  0.0589
17231W        W21631  25.737   3.239   9.108  0.0112 -0.0588 -0.0037
17232W        W21632  14.721   2.304  17.625  0.0746  0.0497 -0.2535
17233W        W21633  26.847   5.942   9.858  0.1914  0.2956  0.1043
17234W        W21634  24.470   1.305  15.522 -0.0073  0.3513 -0.1631
17235W        W21635  15.780   6.572  21.975  0.0398  0.0479 -0.0854
17236W        W21636  26.280   1.112  20.825 -0.0116  0.2082  0.0900
17237W        W21637   2.599   7.651   3.513  0.0976  0.3266  0.0048
17238W        W21638   1.580   7.090   9.274 -0.1103 -0.0212 -0.0143
17239W        W21639  11.635   6.458   5.560  0.0590 -0.0449 -0.2017
17240W        W21640  14.692   3.262   9.371 -0.0301 -0.1366  0.0006
17241W        W21641  22.127   6.993   4.220 -0.1568  0.3450 -0.0333
17242W        W21642  10.050   1.779   8.961  0.2849  0.1024 -0.0817
17243W        W21643  23.161   1.959  22.501 -0.0553 -0.3472  0.1862
17244W        W21644  28.142   3.410   5.701  0.4741 -0.3190  0.1650
17245W        W21645  26.945   0.734  20.916  0.0674  0.1249  0.0282
17246W        W21646  26.026   4.989   6.738  0.1524  0.1660  0.3673
17247W        W21647   1.601   5.971   8.434  0.2189  0.2047 -0.4531
17248W        W21648  11.495   4.092   8.640  0.0265  0.1793 -0.2222
17249W        W21649  29.439   6.586   3.852 -0.1602  0.2948 -0.2620
17250W        W21650  30.636   2.888  23.112 -0.2421  0.2307 -0.2778
17251W        W21651  11.577   4.971   3.112 -0.0644 -0.2236 -0.2006
17252W        W21652  13.309   2.928   0.421  0.1332 -0.1174 -0.3545
17253W        W21653  11.768   6.634   6.026 -0.0079 -0.1763  0.2981
17254W        W21654  24.561   7.005   3.610  0.2518  0.0970 -0.0735
17255W        W21655  23.595   6.271  21.654  0.1729  0.2877 -0.2158
17256W        W21656  19.450   0.150  16.064  0.0489  0.0763 -0.0127
17257W        W21657  25.950   2.948  23.079 -0.0675  0.2775 -0.0106
17258W        W21658   2.184   2.075   0.612 -0.1282  0.0871  0.2385
17259W        W21659  15.815   0.801   1.525 -0.1394 -0.1417 -0.0163
17260W        W21660   1.916   1.341   6.342 -0.1291 -0.1410 -0.0452
17261W        W21661   7.112   1.326   5.738 -0.1785  0.0437 -0.0417
17262W        W21662   0.330   4.618   1.055  0.3571 -0.0489 -0.0527
17263W        W21663   8.178   4.534  23.237  0.3841  0.0158  0.1232
17264W        W21664  19.419   7.760   6.267 -0.0773  0.4421  0.1074
17265W        W21665  25.387   0.131   8.327  0.1802  0.0664 -0.0947
17266W        W21666   0.491   5.676   4.392 -0.0375  0.0182 -0.2325
17267W        W21667   3.181   7.556  19.779 -0.0784  0.0059 -0.4599
17268W        W21668   4.635   1.026  20.076 -0.0647 -0.1329  0.0729
17269W        W21669  29.963   4.858   9.955 -0.1106 -0.2003  0.0155
17270W        W21670  24.761   2.491   4.027  0.0912  0.0460 -0.0773
17271W        W21671   7.331   1.445  25.785  0.3049 -0.2138 -0.0555
17272W        W21672   1.180   3.845  22.691  0.2982 -0.2540 -0.2242
17273W        W21673   4.452   1.984  23.889  0.1385  0.0869  0.1351
17274W        W21674  26.552   5.662   3.015 -0.0078  0.2689 -0.0811
17275W        W21675  13.670   6.525  21.076  0.0710  0.2746 -0.1215
17276W        W21676   2.224   5.844   5.537 -0.0734  0.0999 -0.2671
17277W        W21677  11.698   1.255   8.759 -0.0700 -0.1859 -0.0892
17278W        W21678  26.762   2.829   9.239  0.2035  0.4075 -0.1063
17279W        W21679  13.902   0.050   3.725 -0.1403  0.1922  0.1224
17280W        W21680  10.601   2.959   9.090  0.0563 -0.0474  0.2948
17281W        W21681  20.678   4.738  21.964 -0.2254 -0.3173 -0.0185
17282W        W21682   7.865   6.493   4.782  0.0799 -0.1937 -0.0473
17283W        W21683  20.011   5.882  19.510 -0.1198  0.3075  0.1552
17284W        W21684  29.381   0.593  21.156  0.0597  0.1909  0.1025
17285W        W21685  30.979   3.984  18.392  0.3846  0.0953 -0.2781
17286W        W21686  21.294   0.489  23.296  0.2182 -0.0682  0.5123
17287W        W21687  29.762   7.711  18.537 -0.0403  0.3523 -0.0171
17288W        W21688   9.622   6.696   6.523  0.0181 -0.0166  0.1019
17289W        W21689  16.736   7.696  24.887  0.0748 -0.2353 -0.0054
17290W        W21690  22.501   0.914   1.479  0.0773 -0.2824  0.2316
17291W        W21691  11.806   6.443   0.123 -0.0422 -0.1636 -0.1293
17292W        W21692  19.281   2.738   7.333  0.1311 -0.0903  0.0102
17293W        W21693  19.765   7.212   8.369 -0.2108 -0.2613 -0.0934
17294W        W21694  14.392   5.953  11.005  0.2188  0.0467 -0.0011
17295W        W21695   4.971   6.178   3.402 -0.1276 -0.0722  0.1406
17296W        W21696   6.781   2.484  19.995  0.1833 -0.0854  0.0496
17297W        W21697  16.439   6.772   6.032  0.1777  0.2051 -0.0336
17298W        W21698   0.712   6.662  18.265  0.4029  0.0073 -0.1562
17299W        W21699  28.781   5.924  24.456 -0.0256 -0.0971 -0.2141
17300W        W21700  10.403   2.019  24.654 -0.1347  0.0783  0.0329
17301W        W21701  14.362   7.566   9.058  0.1254 -0.2028  0.0123
17302W        W21702  23.571   5.473  24.915  0.0939  0.0609 -0.0247
17303W        W21703   0.859   5.643   2.836  0.2563 -0.1153 -0.2030
17304W        W21704   1.499   4.757  21.681 -0.4329  0.2276 -0.0486
17305W        W21705   0.067   2.375  25.702  0.0386  0.0509  0.1371
17306W        W21706  19.734   7.583  16.147 -0.1606  0.1165  0.0518
17307W        W21707   5.640   4.112  21.324  0.3923 -0.0171 -0.0645
17308W        W21708   9.892   4.206   7.627  0.1207  0.1290 -0.1167
17309W        W21709  13.229   7.558   4.020  0.0740 -0.2170  0.1150
17310W        W21710  14.709   3.769  20.395 -0.3161  0.1570  0.1272
17311W        W21711  15.937   5.935  21.865  0.0833  0.2071  0.2649
17312W        W21712  13.161   2.861  22.991 -0.1184 -0.2074 -0.3453
17313W        W21713  21.659   3.214  18.158 -0.1528  0.0616 -0.0183
17314W        W21714   8.872   6.977   5.167  0.2770 -0.0652  0.3830
17315W        W21715   7.855   6.614  25.330  0.2004 -0.5640 -0.1320
17316W        W21716  10.541   6.985   4.594 -0.0019 -0.2067  0.1389
17317W        W21717  14.241   3.713   8.301  0.4271  0.0421 -0.0075
17318W        W21718   3.664   0.776   7.258  0.0443 -0.2203 -0.1467
17319W        W21719   1.083   2.514   0.008 -0.0920 -0.1945  0.0855
17320W        W21720   7.458   3.256  23.713 -0.2798  0.1547 -0.1787
17321W        W21721  10.437   4.463   4.294 -0.2855 -0.1150 -0.1525
17322W        W21722   0.564   6.919   2.144  0.0547  0.1290 -0.0877
17323W        W21723   8.825   3.592   0.834  0.0972  0.2808 -0.0588
17324W        W21724  22.803   3.885   5.585  0.1394  0.0555  0.0879
17325W        W21725  29.335   5.121  19.156  0.0031 -0.1138  0.0198
17326W        W21726  11.504   1.327  25.329  0.3524  0.1738  0.1816
17327W        W21727  22.019   4.261  25.981 -0.0484 -0.1430  0.0784
17328W        W21728  26.166   2.276   8.268 -0.0257  0.3663  0.2456
17329W        W21729   3.125   0.670  17.161  0.0509 -0.1648 -0.2864
17330W        W21730  28.217   3.825  15.491 -0.1461 -0.2120 -0.0400
17331W        W21731   6.920   0.629   1.825  0.0444 -0.1690  0.3873
17332W        W21732  16.035   4.210   2.756  0.0625 -0.2751  0.0043
17333W        W21733   9.587   2.859   0.447 -0.0331  0.2022  0.0635
17334W        W21734   5.820   0.493  22.122 -0.2470  0.3311 -0.3424
17335W        W21735   9.718   3.394  15.266  0.3501 -0.2045  0.3139
17336W        W21736  11.255   0.180   8.149 -0.0671  0.3751 -0.2884
17337W        W21737  23.307   6.026  16.330 -0.0988 -0.0231  0.2332
17338W        W21738   5.103   7.646   3.339 -0.2609  0.0629 -0.0425
17339W        W21739   6.039   6.795  20.872 -0.0959 -0.3250 -0.2483
17340W        W21740  12.606   5.838   4.327  0.0236  0.0614  0.2324
17341W        W21741  28.776   3.016   4.322 -0.4494  0.1437 -0.0345
17342W        W21742  24.104   7.461  15.466  0.1802  0.4814  0.2811
17343W        W21743  12.378   3.156   2.276 -0.0662  0.1453 -0.0655
17344W        W21744   1.520   2.611   1.344 -0.0197 -0.1876 -0.1469
17345W        W21745  22.939   0.995   4.127  0.0200  0.0307 -0.0377
17346W        W21746  11.662   1.955  21.267 -0.1172  0.1471  0.1363
17347W        W21747  16.715   1.418  22.455  0.1645 -0.0115 -0.2124
17348W        W21748  17.117   6.788   5.293  0.0867 -0.2180  0.0422
17349W        W21749   4.720   7.092   0.579  0.1947  0.1147 -0.0927
17350W        W21750  17.798   5.031  23.011  0.0775 -0.1219  0.0422
17351W        W21751  28.167   1.556  26.003 -0.2221  0.3519 -0.2352
17352W        W21752   5.019   1.362  18.246 -0.0158  0.1895  0.0015
17353W        W21753   2.196   3.228  23.871  0.0149 -0.1177  0.1300
17354W        W21754  14.271   3.080  16.886 -0.2790 -0.3418 -0.1630
17355W        W21755  30.912   4.662   4.524  0.2034  0.1373  0.3664
17356W        W21756  11.279   7.531  23.844 -0.0593  0.2357  0.1172
17357W        W21757  28.007   1.691  20.768  0.2503  0.2615  0.1968
17358W        W21758  10.101   5.312   6.939 -0.0462 -0.0702 -0.0059
17359W        W21759  19.477   0.246  17.383 -0.1424 -0.6500  0.0829
17360W        W21760   8.468   7.407  17.911  0.0501  0.1351 -0.0597
17361W        W21761  17.118   4.896   4.291 -0.0691  0.0205 -0.0844
17362W        W21762   4.221   3.000  19.672 -0.3279  0.0754  0.1126
17363W        W21763   9.334   4.831   3.318 -0.0200 -0.0437  0.2126
17364W        W21764   6.683   4.765  20.212 -0.2586  0.1399  0.3539
17365W        W21765  25.523   6.007  21.875  0.2685 -0.0745 -0.2712
17366W        W21766   8.879   3.486  17.305 -0.1153  0.0307  0.2530
17367W        W21767  18.380   0.224   1.252 -0.0913 -0.1849 -0.0167
17368W        W21768  27.987   5.247  25.263  0.1456 -0.2963  0.1869
17369W        W21769   5.321   4.477   4.641  0.1235 -0.0864 -0.0496
17370W        W21770   0.466   5.354   0.383  0.1997 -0.4195 -0.1641
17371W        W21771  30.071   0.408   8.971 -0.0641  0.0019  0.1564
17372W        W21772  24.905   4.111  17.744  0.1918  0.4363 -0.2446
17373W        W21773  28.441   4.034   2.171  0.0375  0.1253  0.1058
17374W        W21774   1.562   2.740  22.352 -0.4915 -0.0663  0.0347
17375W        W21775  21.606   0.470   4.171  0.0632 -0.4206 -0.1036
17376W        W21776   8.378   4.382  20.733 -0.0836  0.0653  0.2652
17377W        W21777  16.370   2.658  21.384 -0.1553  0.0180  0.3447
17378W        W21778  24.424   0.200   2.237 -0.2538 -0.0372 -0.0745
17379W        W21779  28.103   2.235  24.068  0.2422  0.0603 -0.1992
17380W        W21780   1.666   1.750  22.535  0.1591 -0.0420  0.1371
17381W        W21781  13.317   6.555  20.575  0.4596  0.0900 -0.0838
17382W        W21782   8.162   0.122   8.069  0.4812  0.1545  0.1562
17383W        W21783  10.802   3.779  16.021 -0.1926  0.0232  0.2218
17384W        W21784   9.933   7.304   5.325  0.1587 -0.1773  0.0602
17385W        W21785   4.135   5.089  15.962 -0.1292 -0.2985 -0.1152
17386W        W21786  28.346   0.561  25.747 -0.0042  0.2176 -0.0057
17387W        W21787  17.795   3.335   6.201 -0.0831 -0.1982  0.2544
17388W        W21788  22.475   1.352   9.058 -0.0217 -0.2797 -0.0903
17389W        W21789  25.053   4.207  19.231  0.1556  0.6008  0.3521
17390W        W21790  26.849   3.284  24.019  0.2067  0.0014  0.1151
17391W        W21791  28.639   0.590   5.471 -0.1217  0.3236 -0.2744
17392W        W21792  12.747   5.010   5.733  0.0872  0.1021 -0.2312
17393W        W21793   2.949   3.075  21.513  0.1102  0.1764  0.3113
17394W        W21794  21.821   7.669   5.475  0.2171  0.1738  0.1634
17395W        W21795  11.058   1.913  21.990 -0.0527 -0.0578  0.0423
17396W        W21796  15.979   3.431   6.925 -0.0765  0.1443  0.1494
17397W        W21797  27.702   5.889   3.627 -0.1488 -0.1494 -0.1556
17398W        W21798   6.409   0.610  21.159 -0.3737 -0.0087 -0.0931
17399W        W21799  20.325   5.420   3.464 -0.0584  0.1539  0.1762
17400W        W21800  18.994   6.015  23.374 -0.1822 -0.0929  0.0901
17401W        W21801  11.083   5.009   3.250 -0.3895  0.1519  0.0683
17402W        W21802  17.715   6.001   1.495  0.3315  0.0017 -0.0820
17403W        W21803  12.623   5.241   3.298 -0.3469 -0.1513 -0.2124
17404W        W21804   4.419   3.673  15.186 -0.2231 -0.1928 -0.0470
17405W        W21805  12.563   2.052   3.440 -0.2492 -0.1591 -0.2257
17406W        W21806   5.997   7.172  25.368 -0.0394 -0.1074  0.0650
17407W        W21807  22.767   2.893   2.824 -0.1032  0.1233 -0.1960
17408W        W21808  25.768   5.951  17.765 -0.1755  0.2656 -0.2157
17409W        W21809  16.240   5.647  10.732  0.0780  0.6322 -0.1302
17410W        W21810  12.924   1.274   0.931 -0.2245  0.0523  0.1561
17411W        W21811   6.795   4.299  24.322  0.7123  0.1069  0.3800
17412W        W21812   3.587   2.179   9.492 -0.2610  0.2207 -0.2542
17413W        W21813   6.219   3.525   3.818 -0.1292 -0.1614 -0.4292
17414W        W21814   3.215   1.083  10.434  0.2938  0.1101  0.0776
17415W        W21815  10.003   5.994   5.177 -0.1448  0.0121  0.2056
17416W        W21816  28.607   3.245  22.350  0.1118 -0.1324 -0.0199
17417W        W21817  21.271   0.327   6.666 -0.2987 -0.0655  0.0942
17418W        W21818  29.855   5.025  22.276 -0.0680  0.0893  0.3101
17419W        W21819  23.638   1.379  16.117 -0.1737  0.0552  0.2776
17420W        W21820  24.973   1.491  10.253  0.0979  0.1558 -0.0791
17421W        W21821  13.939   3.047  19.155  0.0858 -0.1304 -0.0009
17422W        W21822  20.739   3.577   4.250  0.0924 -0.0515 -0.0704
17423W        W21823   7.114   5.947   5.036  0.0830  0.2828 -0.2532
17424W        W21824  24.571   3.577   5.367 -0.0016 -0.3046 -0.2943
17425W        W21825  20.441   6.222  14.373 -0.2614  0.1966  0.1496
17426W        W21826  31.018   1.381  17.161 -0.0816  0.5751  0.0317
17427W        W21827  21.134   0.485  22.280  0.1030  0.2831 -0.2118
17428W        W21828   2.605   0.458   2.361  0.1899  0.2162 -0.2236
17429W        W21829  12.798   7.792  22.463 -0.0823 -0.1504  0.2820
17430W        W21830  30.763   3.387  22.672 -0.2095 -0.0112 -0.0721
17431W        W21831  22.633   3.373  16.066 -0.1489 -0.0871 -0.0421
17432W        W21832  21.118   1.334  24.250 -0.1351 -0.0801 -0.2805
17433W        W21833  25.417   0.196  22.433  0.0379  0.2906  0.0044
17434W        W21834   1.199   5.956   0.859  0.0962 -0.0237  0.2228
17435W        W21835  17.195   5.546   4.334 -0.1077  0.2473 -0.1594
17436W        W21836  14.213   7.790   5.049  0.1091 -0.3082  0.1430
17437W        W21837   6.588   4.703   6.366  0.1006  0.2115  0.0468
17438W        W21838  12.913   0.339   6.859  0.0651  0.1514 -0.1744
17439W        W21839  11.950   6.417  20.433  0.1840 -0.1152  0.1734
17440W        W21840  29.305   1.010   4.928  0.0802  0.3198 -0.0967
17441W        W21841  17.582   2.218   1.485 -0.0175  0.1392 -0.1466
17442W        W21842  30.103   4.793  22.666 -0.1508 -0.1174 -0.0515
17443W        W21843   1.167   3.321  25.359  0.2646 -0.1637 -0.1880
17444W        W21844   0.096   1.116  19.540  0.3506 -0.2294 -0.0226
17445W        W21845  22.445   0.971   9.307 -0.2240  0.2549 -0.0893
17446W        W21846  13.158   4.682   1.174 -0.2247  0.0743  0.0805
17447W        W21847  13.591   6.265   8.589 -0.0946 -0.0983  0.3045
17448W        W21848  17.001   4.716  25.941 -0.1455  0.2527  0.0540
17449W        W21849  28.874   6.175  15.122 -0.0078  0.2398  0.0977
17450W        W21850   6.257   1.915   6.641  0.2385 -0.1541  0.1550
17451W        W21851   1.171   5.668   9.652 -0.0505  0.0449  0.4708
17452W        W21852  20.016   4.071   7.060  0.0866  0.0133  0.2037
17453W        W21853  15.872   4.113  10.825  0.1786  0.2659 -0.1364
17454W        W21854  19.276   1.741  18.846  0.0938  0.0778 -0.0842
17455W        W21855   7.102   5.623  17.851 -0.1104  0.0111 -0.3082
17456W        W21856  25.822   2.849  23.622  0.0994  0.0578  0.0666
17457W        W21857  27.304   3.870  10.720 -0.1944 -0.2467 -0.3002
17458W        W21858   3.423   6.834  21.611 -0.2075  0.0253  0.2076
17459W        W21859  11.485   0.368   2.602  0.3002 -0.3638  0.2029
17460W        W21860  24.208   1.327   7.372 -0.0023  0.0063 -0.2542
17461W        W21861  25.211   5.057   2.745 -0.1095  0.0648  0.3566
17462W        W21862  26.870   6.446  26.072  0.0815  0.0407  0.0238
17463W        W21863  18.221   3.592   5.680  0.0690 -0.0791  0.0828
17464W        W21864  15.345   6.073   2.430 -0.0779 -0.0331  0.0178
17465W        W21865   4.887   1.653  25.063  0.1079  0.0779  0.3208
17466W        W21866   2.213   0.343  19.997 -0.2230 -0.0594 -0.0748
17467W        W21867  18.245   6.243  10.263  0.2356 -0.3828  0.1162
17468W        W21868  21.238   3.686  11.300 -0.0913 -0.0676  0.4340
17469W        W21869  11.716   0.687  19.789  0.0500  0.0327 -0.3794
17470W        W21870  16.279   7.686  24.984  0.0734 -0.1264  0.0275
17471W        W21871   8.131   6.839   5.759  0.0421 -0.2416 -0.2791
17472W        W21872   9.252   2.997   4.741  0.2829 -0.0769 -0.0894
17473W        W21873   3.963   4.447  16.802  0.1160  0.0228 -0.1498
17474W        W21874  14.323   5.510  17.908 -0.2001 -0.0405 -0.0151
17475W        W21875  27.935   0.699   4.492  0.0205 -0.0333  0.1807
17476W        W21876  21.388   4.021  19.694  0.1229 -0.2365 -0.2207
17477W        W21877   3.786   2.132   9.015  0.2020 -0.1469 -0.1314
17478W        W21878   3.836   4.322   5.486 -0.0211 -0.0808 -0.1295
17479W        W21879   6.629   2.800   8.730  0.0521 -0.0825 -0.2012
17480W        W21880  20.308   4.362   5.979  0.0742 -0.0166  0.0758
17481W        W21881   4.293   6.227  17.802  0.1741  0.0627  0.2012
17482W        W21882  29.020   5.925   3.833  0.3371  0.3131 -0.2957
17483W        W21883   8.169   5.563   0.128  0.0658 -0.0556  0.0718
17484W        W21884  11.449   0.800  21.815 -0.0870  0.3769 -0.0329
17485W        W21885  16.016   7.209  24.536 -0.1383 -0.3162 -0.1710
17486W        W21886  24.173   1.621   2.393  0.0117 -0.1748 -0.0771
17487W        W21887  28.611   0.127  17.048 -0.2103 -0.1783  0.1103
17488W        W21888  25.914   0.340  18.093  0.2755  0.2399 -0.0909
17489W        W21889   6.328   2.682  17.481  0.0354  0.0854  0.2603
17490W        W21890  21.449   1.663  16.157 -0.0965  0.5630 -0.0518
17491W        W21891  27.533   7.764  24.733  0.1449 -0.1454 -0.1132
17492W        W21892   1.563   3.566  20.921 -0.2492  0.0566  0.0001
17493W        W21893  14.327   2.840   5.403  0.3015 -0.0921 -0.2849
17494W        W21894  11.832   4.610  23.546  0.0616  0.0954 -0.3194
17495W        W21895  27.790   1.250  19.376 -0.0441  0.2394 -0.3195
17496W        W21896   3.266   6.911   3.838 -0.2066 -0.0442  0.0806
17497W        W21897   1.360   2.223   2.841  0.1973  0.0991  0.0566
17498W        W21898  29.118   7.553   3.943  0.2037 -0.0858 -0.0631
17499W        W21899  14.962   2.036   0.035 -0.1156 -0.0675 -0.2265
17500W        W21900  19.049   7.534   9.501  0.0240  0.1759  0.0470
17501W        W21901  16.879   6.958   9.196  0.0938 -0.3192  0.2029
17502W        W21902  15.266   3.254  18.525 -0.1254  0.2944 -0.4100
17503W        W21903  13.036   1.306  10.120 -0.4638 -0.2049  0.1389
17504W        W21904  22.479   5.636   8.967  0.0672 -0.1374 -0.0350
17505W        W21905  28.138   2.587   4.601  0.0773 -0.0544 -0.0971
17506W        W21906  29.955   3.489   8.215 -0.2273 -0.1151  0.2606
17507W        W21907   9.801   2.308  22.233 -0.0930  0.2567 -0.2000
17508W        W21908   0.637   3.128   8.460 -0.1846 -0.1018 -0.0620
17509W        W21909  11.082   2.162   6.555  0.0254  0.0095  0.2443
17510W        W21910  20.238   6.224  22.215 -0.2575 -0.0969 -0.0260
17511W        W21911  28.911   4.397  21.223 -0.0274  0.0935 -0.0230
17512W        W21912  10.547   5.367   7.903 -0.1531 -0.1178  0.0466
17513W        W21913  23.797   2.690   0.115  0.2203  0.1953 -0.0293
17514W        W21914  29.467   5.987  10.504 -0.0933 -0.1109 -0.1423
17515W        W21915  11.320   0.425   1.095 -0.0939  0.1442 -0.0886
17516W        W21916  24.325   6.557   6.970  0.0568 -0.2987 -0.2203
17517W        W21917   6.788   4.082  20.771  0.0214 -0.2103  0.3607
17518W        W21918   7.663   4.014   7.758 -0.0116  0.0657 -0.1366
17519W        W21919  21.021   3.705   4.683  0.1928  0.0115  0.1773
17520W        W21920   6.118   6.109  23.160  0.1339  0.2957  0.1253
17521W        W21921  18.293   6.024  10.785 -0.3035  0.1356  0.1692
17522W        W21922  24.832   1.832   1.698  0.0318  0.2481  0.2302
17523W        W21923  26.386   2.982   5.473  0.0198 -0.1233 -0.0155
17524W        W21924  20.737   4.366  10.899 -0.1034  0.0595  0.2405
17525W        W21925  15.115   7.061  20.049  0.0437  0.1675  0.1605
17526W        W21926  29.814   3.295  21.607 -0.0217 -0.3418  0.0306
17527W        W21927  24.560   3.684  24.426  0.1362 -0.2042 -0.0052
17528W        W21928   5.939   3.312  25.403 -0.0950 -0.0294  0.2387
17529W        W21929   7.335   2.559   3.139 -0.3740  0.2194 -0.1955
17530W        W21930  29.116   7.678  24.422 -0.3449  0.3198  0.0280
17531W        W21931   2.197   4.959  19.930 -0.0393  0.1868  0.0498
17532W        W21932   2.073   5.215   1.691 -0.0383  0.0544 -0.2410
17533W        W21933  10.102   1.002   8.759 -0.0636  0.2194  0.1010
17534W        W21934  16.542   4.624   9.778  0.1221  0.2247  0.1710
17535W        W21935  11.555   6.273   7.220 -0.2934  0.1047  0.0775
17536W        W21936  21.073   3.301   6.127 -0.2482  0.0059 -0.1482
17537W        W21937   5.894   0.486  19.541  0.2161  0.0808 -0.1589
17538W        W21938  13.032   1.609  19.850  0.0987  0.0101 -0.0264
17539W        W21939   4.036   7.514  19.996  0.1306 -0.1030 -0.0040
17540W        W21940  15.129   7.102   7.897  0.0646  0.0483  0.3953
17541W        W21941   2.666   7.663   8.726 -0.0646 -0.1509 -0.1461
17542W        W21942  17.754   5.320   5.683 -0.3735 -0.0192  0.3328
17543W        W21943  19.064   0.813  17.044 -0.1134 -0.2546 -0.2975
17544W        W21944  16.711   6.682   2.522 -0.0527 -0.1023  0.3185
17545W        W21945   5.117   5.360  22.710 -0.1403 -0.0508 -0.1046
17546W        W21946  14.801   3.192  25.940 -0.1171 -0.2254 -0.2624
17547W        W21947  25.843   6.301  15.970  0.0932  0.6581  0.0090
17548W        W21948  30.972   2.652  21.427 -0.3871  0.0886  0.1688
17549W        W21949   0.115   0.551  22.800  0.0780  0.0234  0.1473
17550W        W21950   2.160   5.315  21.691  0.2477  0.2485 -0.0509
17551W        W21951   2.503   5.887   9.548  0.1274  0.1057 -0.2712
17552W        W21952   0.436   4.780   4.779  0.1102  0.2675  0.1511
17553W        W21953  23.903   7.390   0.877  0.0142  0.0650  0.3013
17554W        W21954  31.077   3.389   9.173  0.0830 -0.1239  0.0457
17555W        W21955  28.889   2.777   5.264  0.0405 -0.1185 -0.1562
17556W        W21956   6.684   3.502  20.261 -0.3836  0.4853  0.0211
17557W        W21957  17.294   5.519  18.905  0.0478  0.2134 -0.1119
17558W        W21958   7.999   3.706  10.080  0.0161 -0.2618 -0.2560
17559W        W21959   8.133   3.096  23.650 -0.1188 -0.1003  0.0713
17560W        W21960  16.665   1.001   1.354  0.2187  0.4433  0.3486
17561W        W21961  17.040   1.903  21.249  0.2563  0.2205 -0.0101
17562W        W21962  24.142   4.173  19.756 -0.1004 -0.2255 -0.2184
17563W        W21963  21.976   3.959  20.299  0.1747 -0.1574 -0.1478
17564W        W21964  28.506   0.645   2.390 -0.0802  0.0927 -0.2806
17565W        W21965  21.795   0.754   2.022 -0.0871  0.2221 -0.0251
17566W        W21966   6.822   3.549   5.915 -0.1007  0.0958 -0.1024
17567W        W21967  18.603   4.759  15.023  0.0881  0.0533  0.0177
17568W        W21968  16.655   0.485  17.928 -0.1757  0.0033 -0.0862
17569W        W21969  17.924   4.743   2.389  0.1475  0.1072 -0.0062
17570W        W21970   2.955   0.493  19.326 -0.3540  0.0622  0.0987
17571W        W21971  25.448   6.077  19.475  0.0968 -0.1252 -0.1718
17572W        W21972   0.226   1.951   7.526  0.0124  0.0918 -0.2297
17573W        W21973  19.035   4.466  22.840 -0.2361 -0.1626  0.0251
17574W        W21974   1.253   2.038  24.800 -0.2051 -0.0061  0.3996
17575W        W21975  13.248   6.916   3.537  0.1582 -0.1266 -0.1421
17576W        W21976  28.200   6.059   6.847 -0.0270 -0.0268 -0.0317
17577W        W21977  19.168   2.916  25.060  0.0722 -0.0904  0.0766
17578W        W21978  28.671   3.955  19.289 -0.0142 -0.1906  0.1925
17579W        W21979  22.076   1.346  18.792 -0.0117 -0.4905  0.1142
17580W        W21980   5.367   0.928  22.623  0.0254  0.0838 -0.1544
17581W        W21981  16.809   5.317  23.803  0.0381  0.0334  0.0256
17582W        W21982  17.610   4.239  25.869  0.2243  0.0834  0.0594
17583W        W21983  19.387   2.974   4.984 -0.0455  0.2610 -0.0042
17584W        W21984  27.532   3.396  10.703  0.0515 -0.1836  0.3513
17585W        W21985  10.508   5.108   5.993 -0.3226  0.1466  0.1912
17586W        W21986  23.836   1.288   6.135 -0.0409 -0.3418 -0.2163
17587W        W21987   5.351   4.755   0.185  0.0014 -0.1245 -0.5060
17588W        W21988   0.207   5.447   9.494 -0.0050  0.3113  0.0024
17589W        W21989  29.625   0.881  19.864 -0.2238  0.0146 -0.2453
17590W        W21990   2.114   4.726   1.534 -0.0645 -0.1448 -0.1027
17591W        W21991  15.003   0.565   6.239  0.1342 -0.1213  0.0114
17592W        W21992  22.914   1.098   9.185 -0.0714 -0.1330 -0.1632
17593W        W21993   0.685   0.335  18.305  0.3045  0.1319  0.1576
17594W        W21994  29.636   7.372  25.486 -0.2690 -0.2626 -0.2229
17595W        W21995  16.854   0.143  16.302  0.3126 -0.0242  0.3083
17596W        W21996  19.376   0.070  25.498  0.1353  0.1795  0.2315
17597W        W21997  13.754   7.015  23.491 -0.0927 -0.3007 -0.1828
17598W        W21998  15.632   2.203   3.386  0.1847 -0.0863  0.1340
17599W        W21999  30.143   3.422   5.439  0.1027 -0.0601 -0.0835
17600W        W22000   0.951   0.568   6.379 -0.2675 -0.0103  0.0500
17601W        W22001   8.797   6.288  18.590  0.0690  0.0848  0.1165
17602W        W22002  26.773   1.679   8.215  0.1508 -0.1021 -0.3151
17603W        W22003   7.776   6.213   6.149 -0.0406 -0.1226 -0.4099
17604W        W22004  19.399   3.756  22.601 -0.0788  0.1634 -0.5273
17605W        W22005   7.780   2.107   3.715 -0.2202  0.1573 -0.1507
17606W        W22006   2.444   1.734  16.919 -0.0019 -0.2027 -0.1048
17607W        W22007   9.175   4.889   5.067 -0.0270 -0.1024  0.1528
17608W        W22008  12.195   2.878  24.396  0.0346 -0.2535  0.1134
17609W        W22009  25.982   1.872   6.381  0.3028 -0.0000 -0.2041
17610W        W22010  23.175   7.129   7.175 -0.1676 -0.1034  0.0353
17611W        W22011  17.693   2.449   5.515 -0.1050  0.2567  0.1075
17612W        W22012  31.263   0.165   7.814 -0.3532 -0.1197 -0.0834
17613W        W22013  16.050   7.594  19.546  0.2650 -0.1116 -0.4312
17614W        W22014  26.760   3.980  24.545 -0.0324 -0.1903 -0.1330
17615W        W22015  12.168   4.721  18.338 -0.0094 -0.0109 -0.0341
17616W        W22016  15.600   5.090  26.127 -0.0453  0.2030 -0.2238
17617W        W22017   5.513   6.860   3.752 -0.0789 -0.0549 -0.3608
17618W        W22018  16.689   2.227  11.083  0.0163 -0.0962  0.0694
17619W        W22019   6.140   1.585  26.000 -0.0470  0.3626 -0.0534
17620W        W22020  18.392   1.767  25.324 -0.0228 -0.0464 -0.0786
17621W        W22021  15.415   2.972   1.539 -0.1865 -0.1164  0.0059
17622W        W22022  21.432   2.911   8.293  0.2384 -0.1581 -0.0277
17623W        W22023   1.026   0.405   7.889  0.3051 -0.2000 -0.0802
17624W        W22024  21.820   1.644  17.831 -0.0365  0.2010  0.0161
17625W        W22025   7.015   5.741  23.240  0.1268 -0.1326  0.2839
17626W        W22026  20.334   7.704  24.056  0.0533 -0.0205 -0.0413
17627W        W22027   8.308   2.230   2.878 -0.3129 -0.0644 -0.1127
17628W        W22028  29.578   7.826   7.469 -0.0073 -0.2083  0.0899
17629W        W22029  15.020   4.091  16.252 -0.0209 -0.1524 -0.1401
17630W        W22030  28.071   2.923   3.470  0.1602 -0.0125  0.0170
17631W        W22031  18.867   6.396   1.707  0.1348  0.1592  0.0101
17632W        W22032   3.238   5.525  18.879 -0.0791 -0.2700  0.1368
17633W        W22033   5.116   7.153  17.423  0.0639 -0.1934  0.4621
17634W        W22034  15.418   0.997  23.865 -0.1725  0.1685  0.1257
17635W        W22035  18.033   5.545   6.032 -0.1245  0.2153  0.3005
17636W        W22036   7.743   0.044  15.694 -0.2600  0.2433 -0.1521
17637W        W22037  11.480   6.710   6.474 -0.4014 -0.1028 -0.0320
17638W        W22038  30.780   4.498   1.924  0.2047 -0.0176 -0.2642
17639W        W22039  19.496   5.041  19.223 -0.0577  0.0188  0.1293
17640W        W22040  17.019   0.230  23.681 -0.2415 -0.0325 -0.0093
17641W        W22041  17.065   6.446   8.405  0.0921  0.0626 -0.1923
17642W        W22042  28.829   0.242  19.792  0.0283  0.2077 -0.1335
17643W        W22043   1.828   6.062   5.699 -0.1343 -0.1159 -0.0380
17644W        W22044   5.003   1.480   8.860  0.0110  0.2235  0.1947
17645W        W22045  11.399   5.733  21.370 -0.0545 -0.1129 -0.1045
17646W        W22046   6.463   2.656   7.315  0.1312 -0.0694  0.1809
17647W        W22047   2.337   2.198  26.184 -0.2258  0.0516 -0.0297
17648W        W22048  29.492   7.642   4.894 -0.5698 -0.0313 -0.1242
17649W        W22049   9.701   0.440  21.797 -0.0877 -0.0100  0.0621
17650W        W22050  27.409   0.512  20.895 -0.0232 -0.0936 -0.1706
17651W        W22051   3.416   1.651  21.815 -0.2139  0.0105  0.2804
17652W        W22052  12.798   6.094  15.666  0.1816 -0.0088 -0.0204
17653W        W22053  12.925   4.796  22.484 -0.1416 -0.0672  0.6589
17654W        W22054  12.966   2.371  11.175  0.0963  0.1116 -0.0717
17655W        W22055  28.414   7.424  10.357  0.0311 -0.0254 -0.0548
17656W        W22056  21.590   6.186   1.748  0.2158  0.0593 -0.0657
17657W        W22057  16.008   3.434  19.021  0.1031  0.0053  0.2255
17658W        W22058  21.848   0.096   0.620  0.1149 -0.2758  0.0019
17659W        W22059   8.231   2.643   4.420 -0.0447  0.1121 -0.0871
17660W        W22060  16.508   1.465  10.259 -0.1891 -0.0206 -0.2320
17661W        W22061  17.713   3.117   1.524 -0.3393 -0.1852 -0.0885
17662W        W22062  23.492   5.815   3.461 -0.0516 -0.0951  0.0174
17663W        W22063  15.606   3.579   0.777  0.1590 -0.2441  0.2119
17664W        W22064  27.705   4.587  23.130  0.2962 -0.0141  0.0259
17665W        W22065  20.331   5.121   2.616 -0.0542  0.0729 -0.0146
17666W        W22066  17.145   1.523   5.714 -0.4778  0.0821 -0.0313
17667W        W22067  25.340   7.614   0.191  0.2275 -0.0997 -0.0328
17668W        W22068  11.805   0.983  21.400  0.3353 -0.1490  0.3680
17669W        W22069   7.322   1.685   6.880  0.0282  0.0282 -0.0950
17670W        W22070   4.311   6.834  19.003  0.1942  0.5153  0.2172
17671W        W22071  22.276   0.348   3.529  0.2469 -0.2683 -0.1181
17672W        W22072  14.397   3.170  25.634 -0.0304  0.0652  0.0526
17673W        W22073  30.780   2.611  10.503  0.2470 -0.2564  0.0801
17674W        W22074   5.576   2.712   7.500  0.1776  0.1106 -0.1700
17675W        W22075   3.682   0.090   9.458 -0.0458 -0.0516 -0.0507
17676W        W22076  27.392   3.187  20.897 -0.0118 -0.0870 -0.1122
17677W        W22077  28.925   1.224  18.141 -0.2096 -0.1784 -0.2058
17678W        W22078  27.785   3.915   8.057 -0.0102  0.0213 -0.2706
17679W        W22079   9.013   1.587  10.777  0.0592  0.2468 -0.1378
17680W        W22080  18.911   3.137  17.571  0.0491  0.2771  0.1405
17681W        W22081  15.528   6.379  16.616 -0.1649  0.0390 -0.0247
17682W        W22082  19.142   3.826   4.712 -0.0566 -0.2105 -0.1482
17683W        W22083  14.360   4.731   2.717  0.1066 -0.1265  0.0154
17684W        W22084  24.022   3.686  25.834  0.0927  0.0785 -0.0088
17685W        W22085  29.902   3.092  24.394  0.1953  0.1059 -0.3189
17686W        W22086  16.789   4.155   0.141 -0.0928 -0.4672  0.0301
17687W        W22087   8.132   1.226   8.073 -0.0414 -0.2608  0.0743
17688W        W22088  24.541   7.103  20.777  0.1289 -0.1070 -0.0532
17689W        W22089  16.150   2.666  20.648 -0.1719  0.1395 -0.1531
17690W        W22090  31.252   6.924   8.778 -0.0046  0.1172  0.1338
17691W        W22091  28.661   6.449   5.475  0.1858 -0.1416  0.2104
17692W        W22092   3.831   7.672   0.441 -0.0525  0.1473  0.1410
17693W        W22093  15.267   2.740  18.546  0.2224  0.2652  0.1119
17694W        W22094   8.989   3.905  21.005  0.1245  0.3145  0.1008
17695W        W22095   6.945   2.856   4.042 -0.1692  0.0762 -0.2304
17696W        W22096   0.280   3.313   6.731  0.0471  0.0296  0.1527
17697W        W22097   2.819   2.252  20.592 -0.1822 -0.1150  0.1935
17698W        W22098  26.437   0.105   8.310 -0.1084  0.0896  0.1916
17699W        W22099  22.077   5.753   3.045 -0.1872  0.2567 -0.2685
17700W        W22100  24.242   2.577   0.278  0.0553  0.3365  0.2097
17701W        W22101   6.770   6.942  24.942  0.0129  0.2226  0.4058
17702W        W22102  13.729   3.421  22.819  0.1682  0.1134 -0.2911
17703W        W22103   2.751   6.575  15.905 -0.0977 -0.1983 -0.3539
17704W        W22104  27.555   1.299  24.834 -0.0022  0.0355 -0.0627
17705W        W22105  27.146   2.170  20.737  0.0215 -0.0061 -0.1972
17706W        W22106  13.091   0.668  25.902  0.4611 -0.0989  0.0300
17707W        W22107  13.797   4.962  23.364  0.0525 -0.2348  0.0141
17708W        W22108  16.677   5.634   4.388 -0.1083  0.2374  0.1637
17709W        W22109   9.821   5.640   4.890  0.1295  0.2087  0.1930
17710W        W22110  24.529   7.185  20.287 -0.0939 -0.3168 -0.0849
17711W        W22111   8.277   3.995   5.760 -0.0299  0.0130 -0.1747
17712W        W22112  17.463   5.595   6.009  0.2284  0.0527  0.0268
17713W        W22113  21.684   7.516   3.581  0.1489 -0.0977  0.3104
17714W        W22114  27.422   3.314   9.313  0.0439 -0.0955  0.1397
17715W        W22115  22.146   2.908  26.190  0.0023  0.1212 -0.3313
17716W        W22116  15.099   3.624   0.901  0.0329  0.0873  0.0192
17717W        W22117  16.271   4.037  24.141  0.0907  0.4410 -0.4012
17718W        W22118  23.760   2.502   4.744 -0.0801 -0.1187  0.0937
17719W        W22119  12.110   4.080   9.790 -0.0234  0.0382  0.0413
17720W        W22120   0.511   7.203  11.660 -0.1297  0.0161  0.3126
17721W        W22121   0.701   7.146  22.451  0.0466 -0.2542  0.1558
17722W        W22122  11.516   4.319   5.571  0.3062 -0.3364 -0.0234
17723W        W22123  11.696   7.728   4.969  0.0864  0.0669  0.1350
17724W        W22124  23.911   6.246   4.703 -0.3613 -0.0321  0.1718
17725W        W22125   0.500   6.598  10.021 -0.1235 -0.2497  0.2122
17726W        W22126   8.494   1.528   7.092  0.0090 -0.1584 -0.2706
17727W        W22127  13.950   4.033  24.811  0.1354 -0.0780  0.2348
17728W        W22128  30.649   6.023  16.197  0.0629 -0.0144 -0.2512
17729W        W22129  12.348   0.502   1.046  0.1999  0.3174  0.1908
17730W        W22130  22.363   3.868   4.910 -0.1789 -0.5087 -0.2672
17731W        W22131  14.556   6.712   8.905 -0.0119  0.0552 -0.2058
17732W        W22132   9.929   2.263  26.159 -0.0363  0.0213 -0.1315
17733W        W22133  23.615   6.630  21.214 -0.2284 -0.3509 -0.2866
17734W        W22134  27.660   1.624  24.393  0.2313  0.2911  0.0991
17735W        W22135   8.871   5.540  16.259 -0.1970  0.1715  0.1232
17736W        W22136   3.540   6.239   9.382  0.1124  0.2094  0.1364
17737W        W22137  26.771   0.512  17.449 -0.1856  0.0186  0.2748
17738W        W22138  11.013   7.575  21.574  0.0201  0.1879 -0.0262
17739W        W22139  11.443   5.202   3.516  0.0684  0.2806 -0.1402
17740W        W22140   5.510   2.957  25.957  0.1279  0.0967  0.2173
17741W        W22141   7.927   5.241   0.529 -0.1865  0.1022  0.2250
17742W        W22142  10.666   4.397  22.327 -0.1971 -0.0166 -0.1310
17743W        W22143  14.418   1.253  17.317 -0.0287  0.0943 -0.0582
17744W        W22144   1.939   2.720   3.317  0.0708 -0.0266 -0.1562
17745W        W22145  16.381   6.578  15.452 -0.1921  0.1821 -0.1018
17746W        W22146  12.910   4.193   5.188  0.1450  0.0606  0.1453
17747W        W22147   8.381   1.901  20.726  0.1614  0.1319 -0.0891
17748W        W22148  16.500   5.676  24.453 -0.1527  0.0985 -0.2723
17749W        W22149   8.510   5.777  26.013  0.0091 -0.0141 -0.0700
17750W        W22150  18.081   0.056   0.164 -0.0287  0.4173 -0.4950
17751W        W22151  27.891   4.970  24.037 -0.3288  0.0198  0.3147
17752W        W22152   9.168   7.238   0.879  0.0124 -0.3706 -0.2787
17753W        W22153   8.243   3.181  22.717  0.1643  0.0443  0.0866
17754W        W22154   2.632   1.774  21.474 -0.1130  0.1038 -0.1262
17755W        W22155  12.539   4.771   9.218 -0.1079 -0.2672  0.0718
17756W        W22156  18.332   7.030  16.812 -0.3869  0.0365 -0.0342
17757W        W22157  30.151   0.219  24.594  0.0884 -0.2257 -0.1369
17758W        W22158  18.646   0.773  20.172 -0.1652 -0.0905  0.2164
17759W        W22159  26.359   0.273   6.978  0.0255 -0.0502  0.1624
17760W        W22160   6.086   7.014  17.311 -0.0246 -0.1621  0.1315
17761W        W22161  11.831   6.107   6.191 -0.0170 -0.1783 -0.0161
17762W        W22162  23.932   0.659  21.958  0.0981  0.0992  0.0393
17763W        W22163  18.140   6.423   5.579  0.0035  0.0942  0.0830
17764W        W22164  17.050   5.004  21.772 -0.0044  0.2400  0.0491
17765W        W22165  23.416   7.537  22.151  0.1138  0.2046 -0.0401
17766W        W22166  19.609   3.480   3.514 -0.0963 -0.1057  0.0472
17767W        W22167  30.845   7.760  17.039  0.1388  0.0835  0.2002
17768W        W22168  29.291   7.714   3.172 -0.2765  0.0711 -0.1112
17769W        W22169  22.841   6.871   4.044 -0.2428  0.0138  0.2950
17770W        W22170  24.046   7.524   3.109 -0.0358  0.0337  0.1376
17771W        W22171   6.960   2.702  24.368  0.1857  0.1194 -0.2330
17772W        W22172   8.260   6.981  10.783  0.1158  0.0116 -0.1699
17773W        W22173  19.324   1.095   7.524  0.1088 -0.1111 -0.3787
17774W        W22174   4.066   4.136   1.241 -0.0997 -0.0579  0.1599
17775W        W22175   2.401   2.893   7.283 -0.0967  0.1786  0.1362
17776W        W22176   8.344   7.190  15.710  0.0085  0.2230 -0.0476
17777W        W22177  20.423   4.864   1.233 -0.0693 -0.0677  0.1067
17778W        W22178   2.973   4.573  17.752  0.0578 -0.2466  0.1230
17779W        W22179   6.580   0.902   5.267 -0.0891 -0.1141 -0.2928
17780W        W22180  26.253   7.021  16.248  0.0860 -0.0556 -0.0109
17781W        W22181  23.436   0.757  23.868 -0.3114 -0.0831  0.0447
17782W        W22182  30.411   0.620  23.677 -0.0118 -0.0190 -0.2640
17783W        W22183   3.497   4.220  20.275 -0.2353 -0.2652 -0.2631
17784W        W22184  28.051   3.627  16.848 -0.3031  0.0232 -0.1752
17785W        W22185   4.573   5.589  24.984 -0.0225 -0.0672  0.1013
17786W        W22186  23.821   5.583   9.335  0.0903 -0.0256  0.2460
17787W        W22187  22.472   2.735  23.643  0.1654  0.1531  0.0163
17788W        W22188  11.225   1.657  16.959 -0.0460  0.1166  0.0397
17789W        W22189  27.704   3.828  10.439 -0.0096  0.1473 -0.1608
17790W        W22190   7.491   7.179   5.379 -0.0346 -0.0552  0.0103
17791W        W22191  30.157   2.945  23.403  0.0540  0.0485 -0.2896
17792W        W22192   6.151   2.423  21.995 -0.3924  0.0747  0.2048
17793W        W22193  11.005   7.064   7.300 -0.2108  0.0397  0.1000
17794W        W22194  26.659   5.022  10.886 -0.0499  0.2309  0.2929
17795W        W22195  16.361   6.654  24.741 -0.0180 -0.0601  0.3566
17796W        W22196   9.963   3.014  18.904  0.0630  0.2096  0.4744
17797W        W22197  27.002   7.380  23.086  0.0311 -0.2203 -0.0052
17798W        W22198  14.839   3.425  19.987 -0.0382 -0.0732 -0.3009
17799W        W22199   1.806   6.792  23.048 -0.1415  0.0264  0.1115
17800W        W22200  30.083   2.499  19.936 -0.0489  0.1329  0.1009
17801W        W22201  13.158   5.118  21.228 -0.1114 -0.0181 -0.2865
17802W        W22202  23.942   4.393  24.973 -0.1093 -0.1379  0.0267
17803W        W22203   2.481   2.846   8.209  0.3088  0.1549  0.1921
17804W        W22204  18.288   0.913   7.136 -0.1233 -0.0730  0.2504
17805W        W22205   2.933   4.578  10.791 -0.0162 -0.0976 -0.0345
17806W        W22206  23.817   2.939  16.751 -0.3786 -0.2124 -0.0346
17807W        W22207   1.249   3.001  24.517 -0.4834  0.1273  0.0186
17808W        W22208  13.631   7.487   9.994  0.2100  0.1975 -0.0343
17809W        W22209  14.812   3.580   0.067 -0.1042  0.2472 -0.1361
17810W        W22210  13.370   5.475   1.184  0.0600  0.3445  0.3278
17811W        W22211  19.331   3.942  16.476 -0.0343 -0.0551  0.0317
17812W        W22212  29.284   6.155  26.138  0.1178 -0.2613  0.0037
17813W        W22213   8.119   3.263  24.345 -0.2660  0.2648 -0.0958
17814W        W22214  15.398   5.848  24.154 -0.2083 -0.0190  0.1102
17815W        W22215   6.923   3.691  15.998 -0.1316  0.1807  0.2235
17816W        W22216   0.301   7.007  16.294 -0.3468 -0.0660  0.0318
17817W        W22217  25.123   3.867   4.452  0.0882 -0.1578 -0.1274
17818W        W22218  13.336   7.477   0.722 -0.0542 -0.0168  0.1103
17819W        W22219   8.337   1.207  18.110 -0.1722 -0.0563 -0.0580
17820W        W22220  17.766   6.539  18.747  0.2284 -0.1760  0.1076
17821W        W22221   9.886   1.757   3.623 -0.1891  0.0596  0.1317
17822W        W22222  17.501   7.804  24.358  0.4209  0.1102  0.2059
17823W        W22223  30.431   1.461   3.587  0.0633 -0.1311 -0.1142
17824W        W22224  15.243   4.805  22.009  0.2713  0.1809  0.2249
17825W        W22225  16.185   6.084  15.664  0.0602  0.1076  0.1112
17826W        W22226  21.626   7.792  10.459  0.0345  0.1866 -0.0566
17827W        W22227   4.903   5.269   9.211  0.3136 -0.1279  0.1860
17828W        W22228   9.729   0.923  21.446 -0.2290 -0.1877 -0.1142
17829W        W22229  26.699   7.057  15.827  0.0826 -0.0055  0.3091
17830W        W22230  14.473   1.951  22.107  0.0776  0.1517  0.1324
17831W        W22231  16.594   3.501   9.815 -0.1220  0.0301 -0.0614
17832W        W22232  21.674   3.132  15.931 -0.1125  0.1189  0.0170
17833W        W22233  11.509   0.650  23.445  0.2328  0.5122  0.0462
17834W        W22234  12.510   3.880   1.779  0.1519 -0.1473 -0.0022
17835W        W22235  22.074   5.368  20.837 -0.3301  0.1398 -0.0798
17836W        W22236  15.630   0.390  18.436  0.1098 -0.0355 -0.0327
17837W        W22237  22.505   1.220   4.207 -0.0128 -0.4965  0.0564
17838W        W22238  25.262   6.802   9.560 -0.0089  0.3294  0.0571
17839W        W22239   2.368   7.396  24.542  0.0888  0.1348 -0.1662
17840W        W22240  10.133   4.152   1.499 -0.2304 -0.0239 -0.2856
17841W        W22241   7.085   1.119  20.718  0.1091 -0.2953  0.1926
17842W        W22242   7.727   1.424   4.982  0.1620 -0.0343  0.0824
17843W        W22243  30.415   0.578  18.648  0.5965  0.0232 -0.0324
17844W        W22244  29.055   7.319   3.410 -0.0865  0.1442 -0.0752
17845W        W22245  26.493   4.309  16.725  0.4110  0.1887  0.1655
17846W        W22246  23.156   1.024  17.463  0.1451 -0.0261  0.0382
17847W        W22247   9.274   4.283   6.505  0.0742 -0.0435 -0.0425
17848W        W22248  18.826   2.002  16.344 -0.0873 -0.0473 -0.2138
17849W        W22249  20.887   5.380  25.383  0.3277  0.2349  0.1613
17850W        W22250  23.735   3.514  25.459 -0.2968  0.0615  0.0069
17851W        W22251  24.631   7.609  15.578  0.2330 -0.0569  0.0229
17852W        W22252   6.609   4.572  11.062  0.0436  0.0821  0.1146
17853W        W22253  15.421   1.128  16.605 -0.0690 -0.2211  0.1480
17854W        W22254   2.198   0.289   0.927 -0.1716 -0.1416 -0.0856
17855W        W22255  11.684   3.925   7.648  0.1016  0.0558  0.0609
17856W        W22256  18.676   2.064   7.888  0.1833 -0.2659 -0.1378
17857W        W22257  25.171   4.302  24.094  0.0221 -0.0365 -0.0783
17858W        W22258   6.581   6.532  25.288 -0.0748  0.1105 -0.0173
17859W        W22259  22.835   5.323   9.252 -0.2549  0.1218 -0.0591
17860W        W22260   0.623   1.039  23.617  0.0119  0.2982 -0.0509
17861W        W22261   2.872   5.071   3.252  0.0208 -0.0016  0.0660
17862W        W22262  17.015   6.554   7.217  0.1924  0.1230 -0.2653
17863W        W22263   2.439   4.744  24.799 -0.2064  0.2082  0.1683
17864W        W22264   6.592   6.442  17.703 -0.2781 -0.1619  0.2105
17865W        W22265   8.541   7.770   3.758 -0.0782  0.2254  0.0867
17866W        W22266   6.179   4.804   1.374  0.2735  0.1969 -0.0953
17867W        W22267   4.907   1.915  24.079  0.0976 -0.0012 -0.2893
17868W        W22268  20.725   1.353  21.024  0.1794 -0.3153  0.0148
17869W        W22269  23.961   5.338  18.611  0.1213  0.1128 -0.1490
17870W        W22270   9.479   4.512  22.603 -0.0058  0.0740  0.1615
17871W        W22271   9.160   0.284  10.866 -0.3113 -0.1658 -0.0890
17872W        W22272   0.890   6.193   3.760  0.0653  0.1947 -0.0883
17873W        W22273  18.364   0.653   5.888 -0.1470  0.2066 -0.0320
17874W        W22274  27.809   7.790  25.169  0.2459 -0.2816  0.0120
17875W        W22275  15.163   2.990  23.177  0.0596  0.2642 -0.1310
17876W        W22276  15.460   5.174  19.879 -0.1041  0.1675 -0.2599
17877W        W22277  10.091   2.886  18.033  0.0680 -0.2244 -0.0904
17878W        W22278  29.465   4.608  19.189  0.1991  0.1763 -0.0761
17879W        W22279  19.002   1.747   1.648  0.1661 -0.1679 -0.0068
17880W        W22280  19.839   2.905   8.369 -0.0086  0.1272  0.0555
17881W        W22281   7.918   7.592  25.315 -0.0840  0.0503  0.3393
17882W        W22282  13.759   5.872  25.884  0.0557 -0.0080 -0.1355
17883W        W22283   4.618   6.428  19.176  0.2735  0.0939  0.2298
17884W        W22284  13.190   5.663   1.697 -0.0753 -0.0981  0.0029
17885W        W22285   9.220   0.592  20.109  0.1481 -0.0278  0.2872
17886W        W22286  19.252   5.644  23.236  0.1248 -0.0464 -0.2482
17887W        W22287  31.132   2.336  10.312 -0.0077  0.0099  0.0673
17888W        W22288  21.719   6.434   8.230 -0.1628 -0.0782 -0.0667
17889W        W22289  29.414   5.160   1.651 -0.1459 -0.1990  0.4629
17890W        W22290   2.639   4.294  24.826  0.0710 -0.3286  0.1133
17891W        W22291  10.230   6.271   4.296 -0.0465 -0.4109  0.2095
17892W        W22292  31.057   1.901  19.153 -0.0824  0.1137 -0.2188
17893W        W22293  19.037   4.214  15.540  0.1327  0.2963 -0.0817
17894W        W22294   2.565   5.234   1.805  0.1377  0.1301 -0.0423
17895W        W22295   0.699   3.155  24.286 -0.0557 -0.2160 -0.0903
17896W        W22296  29.457   4.127   2.353 -0.2294 -0.1666 -0.5052
17897W        W22297  22.670   2.071   6.445  0.0264 -0.3506  0.1155
17898W        W22298  15.531   6.588   9.205 -0.0270 -0.0575 -0.0443
17899W        W22299  21.151   4.979  23.311 -0.3357  0.1291  0.0413
17900W        W22300  11.222   4.161   0.707  0.2349  0.0900 -0.1085
17901W        W22301  18.768   5.967  17.418 -0.1838  0.1459 -0.1299
17902W        W22302   7.378   7.142   3.643  0.3172  0.0649 -0.3214
17903W        W22303  11.890   4.683  24.440  0.0412 -0.3039 -0.0565
17904W        W22304  30.325   3.370  20.271 -0.2691 -0.1281  0.3648
17905W        W22305  25.901   3.434   3.539  0.1769  0.0309  0.0021
17906W        W22306  25.169   2.836  20.011  0.1174 -0.0827 -0.0706
17907W        W22307  19.154   7.505  23.689  0.2055 -0.1372 -0.3292
17908W        W22308  21.959   4.869   5.667  0.1276 -0.3156  0.0160
17909W        W22309  30.103   3.619  21.881 -0.1731 -0.1155 -0.0207
17910W        W22310   8.726   1.330   5.759 -0.1555 -0.0409  0.1429
17911W        W22311  26.565   3.809   9.730 -0.0281 -0.0441  0.1597
17912W        W22312  29.634   1.901  16.735 -0.0898 -0.3015  0.2564
17913W        W22313  24.270   3.505   6.529 -0.0720 -0.1216  0.2167
17914W        W22314  17.945   6.137  15.749 -0.0163  0.2012  0.4057
17915W        W22315   8.516   4.888  16.833  0.3119  0.0110  0.0438
17916W        W22316   4.608   6.686  22.556  0.0523 -0.2532  0.2754
17917W        W22317  29.791   2.255   7.181  0.0479  0.1103  0.1173
17918W        W22318  17.664   0.080  15.627  0.2534 -0.1640 -0.2041
17919W        W22319  23.018   4.978   7.097  0.0187 -0.3154  0.2535
17920W        W22320   8.812   1.715  20.852 -0.1385  0.2003 -0.1470
17921W        W22321   6.390   6.936   8.282  0.2726  0.0365  0.0467
17922W        W22322  23.632   7.756  22.812 -0.1458 -0.0415 -0.0790
17923W        W22323  27.408   0.829  25.134 -0.3074 -0.0951 -0.0942
17924W        W22324   8.572   0.586  24.303 -0.4354  0.0623  0.3452
17925W        W22325  16.491   2.150   7.516  0.0604 -0.2074  0.1186
17926W        W22326  24.859   1.217  19.779 -0.0361  0.2232 -0.4111
17927W        W22327   0.039   6.604  16.472  0.3580 -0.1753 -0.0813
17928W        W22328  14.319   5.347   1.832 -0.3818  0.0849 -0.0915
17929W        W22329  12.240   3.065  17.586  0.0158 -0.0105 -0.0071
17930W        W22330  25.635   2.894  19.154 -0.0752  0.2009 -0.3591
17931W        W22331  15.125   4.918   0.018 -0.2025 -0.0894 -0.0511
17932W        W22332  24.742   5.472   8.563 -0.5204 -0.1398  0.0390
17933W        W22333  22.975   0.906  23.788 -0.0084  0.0659  0.0539
17934W        W22334  17.328   5.032   2.941  0.0535  0.1890 -0.1190
17935W        W22335  25.867   3.538   5.088  0.0290  0.0379 -0.3501
17936W        W22336  12.297   5.758  19.126 -0.1721 -0.1262 -0.0738
17937W        W22337  30.390   5.631  20.412 -0.1045  0.3241  0.0989
17938W        W22338   8.281   3.610   3.372  0.1459 -0.4406 -0.0329
17939W        W22339   9.591   7.147  21.044  0.3677 -0.0958 -0.1988
17940W        W22340   6.302   0.567  23.124  0.1663 -0.0359 -0.2728
17941W        W22341  21.762   0.385  19.120  0.1986  0.0760  0.0847
17942W        W22342   8.298   1.722  16.916  0.0523  0.0872  0.0821
17943W        W22343   4.251   3.899  18.258  0.1156 -0.1538  0.5312
17944W        W22344  24.806   0.596  15.720 -0.0871 -0.0665 -0.1769
17945W        W22345   4.154   0.747   2.035  0.0311  0.0157  0.0662
17946W        W22346  18.661   3.637  10.085 -0.0029  0.1929  0.0856
17947W        W22347  30.009   7.109  19.915 -0.2023  0.2053 -0.0194
17948W        W22348   5.307   3.096  23.282  0.2517 -0.0780  0.3625
17949W        W22349  13.491   2.930   0.970  0.0551 -0.0940 -0.2790
17950W        W22350  22.990   6.893  16.935  0.1142  0.1222  0.0441
17951W        W22351  24.031   4.399   3.028  0.0605  0.0286 -0.4122
17952W        W22352   2.115   5.784  18.422  0.2108 -0.1294  0.2006
17953W        W22353  27.191   7.245  15.610 -0.0043 -0.3825 -0.2836
17954W        W22354  29.991   5.596  20.091 -0.1148 -0.3898  0.1317
17955W        W22355   0.659   1.062  21.933  0.0520 -0.0402 -0.0867
17956W        W22356   7.531   1.115  19.721 -0.1284 -0.0773 -0.1061
17957W        W22357  10.400   3.434   0.397 -0.0107  0.1249 -0.0888
17958W        W22358  22.462   6.523   5.638 -0.3153 -0.1260  0.0930
17959W        W22359  11.656   2.618   0.388  0.2111  0.1331  0.2090
17960W        W22360  11.819   6.198  19.580  0.2511 -0.0628 -0.0003
17961W        W22361   5.148   1.152   9.633 -0.0087  0.0264  0.0172
17962W        W22362   1.363   5.730   7.638 -0.0656 -0.5891 -0.0164
17963W        W22363  27.751   6.114   8.452 -0.0484 -0.0580  0.1757
17964W        W22364   2.592   1.353   0.161 -0.1546  0.0712 -0.0365
17965W        W22365   0.275   7.514   7.464 -0.2107  0.3162 -0.1312
17966W        W22366   1.268   0.259   0.218 -0.1046  0.1801 -0.1695
17967W        W22367   3.672   4.744  23.684 -0.0327  0.0503  0.1266
17968W        W22368  19.271   2.059  20.224 -0.3698 -0.2628 -0.3227
17969W        W22369   9.087   4.861   6.705 -0.0164  0.3117 -0.1088
17970W        W22370  14.573   7.264   9.517  0.0561  0.3189  0.1726
17971W        W22371  31.068   0.929  19.107  0.0919  0.1558  0.0545
17972W        W22372  29.953   3.632   2.904  0.1120  0.1101 -0.4589
17973W        W22373  12.166   5.088  24.443 -0.1156 -0.1692 -0.1456
17974W        W22374  17.353   3.311  24.786 -0.1470 -0.4412  0.0295
17975W        W22375  13.469   2.978  10.041  0.2103  0.1075 -0.0113
17976W        W22376  30.748   1.939   4.089 -0.3492  0.4671 -0.3507
17977W        W22377  23.022   0.149   9.012  0.0531  0.0108  0.0878
17978W        W22378  11.034   4.357  20.489 -0.0532 -0.3183 -0.0058
17979W        W22379  21.299   2.014  25.786 -0.1279  0.2622 -0.2040
17980W        W22380  21.832   1.115  10.427 -0.0434  0.0540  0.0637
17981W        W22381   3.921   3.775   2.717 -0.2022  0.1358 -0.1620
17982W        W22382   9.332   5.290  16.831  0.2605  0.1370 -0.2582
17983W        W22383  14.845   4.052   2.444  0.0838 -0.0779 -0.1495
17984W        W22384  16.090   6.755  17.772 -0.0537 -0.3347 -0.1310
17985W        W22385  26.773   6.118   6.098 -0.0950  0.1278 -0.1627
17986W        W22386  10.617   6.289   2.296  0.1081  0.1090  0.0896
17987W        W22387  11.032   1.078   4.932  0.1466  0.1120 -0.1091
17988W        W22388  22.134   5.765   5.727  0.0119 -0.3245  0.1688
17989W        W22389  23.974   5.668   1.944  0.0046 -0.1370  0.2993
17990W        W22390   2.315   2.294  17.833 -0.1322  0.0307 -0.1250
17991W        W22391  29.820   2.625  22.099  0.1778  0.1447  0.0451
17992W        W22392  27.652   3.612  18.804 -0.1073  0.1837 -0.1393
17993W        W22393   1.620   5.436  16.961  0.4045 -0.0476 -0.1294
17994W        W22394  15.028   7.093   5.199  0.1256  0.0186  0.2551
17995W        W22395  12.276   3.692  17.078  0.2869  0.1882  0.0979
17996W        W22396  20.533   2.442  21.274  0.3331  0.0105  0.2800
17997W        W22397  24.845   1.794   6.978  0.3204  0.0894  0.0463
17998W        W22398   7.997   0.490  22.190  0.0863  0.1654  0.1293
17999W        W22399  18.582   2.333  19.772  0.1001 -0.3745 -0.0964
18000W        W22400  12.817   7.033   1.509 -0.2667  0.2435 -0.3314
18001W        W22401  17.236   6.559   6.532  0.0862  0.0103 -0.2783
18002W        W22402   8.715   3.732   8.984 -0.1323  0.1297  0.0570
18003W        W22403  12.637   4.516   7.676 -0.0220  0.1785  0.0399
18004W        W22404  23.365   6.761  25.761  0.2048  0.2593  0.2058
18005W        W22405  25.904   4.510   8.190  0.1572  0.2604  0.0873
18006W        W22406   8.852   1.829  16.632 -0.4817 -0.0233  0.1351
18007W        W22407  20.981   0.061  19.172 -0.0638 -0.0971  0.0521
18008W        W22408  22.384   6.964  19.920 -0.0868 -0.4137  0.0599
18009W        W22409   1.492   6.906  10.317  0.0947 -0.1080 -0.0183
18010W        W22410  15.573   4.465  23.989 -0.2340  0.0537 -0.0509
18011W        W22411  12.167   4.644   1.906 -0.2722  0.4793  0.1509
18012W        W22412  18.845   7.776  26.165 -0.0420 -0.0467  0.1525
18013W        W22413  10.185   1.919  21.098 -0.1080  0.1074 -0.0509
18014W        W22414  29.771   1.712   7.054 -0.1007 -0.1787  0.1279
18015W        W22415  19.067   5.055   4.141  0.1203 -0.1112  0.0089
18016W        W22416  22.133   4.454   5.880 -0.1712 -0.3338  0.0476
18017W        W22417  19.553   3.505   9.565 -0.1295  0.3184 -0.2112
18018W        W22418   3.078   5.545  16.205  0.4793  0.0885  0.2335
18019W        W22419  23.008   4.430   1.532  0.0179 -0.1741  0.3971
18020W        W22420  18.932   3.078  16.428  0.2106 -0.2064 -0.1078
18021W        W22421  31.068   3.627   1.782 -0.3992  0.2932 -0.1473
18022W        W22422  22.125   6.914  15.382 -0.1439  0.0340  0.0184
18023W        W22423  25.728   5.807  21.151 -0.3916  0.0007 -0.1128
18024W        W22424   9.488   1.815  22.459 -0.0275 -0.0822 -0.2599
18025W        W22425  14.719   1.933   9.623 -0.2342  0.2475  0.2448
18026W        W22426   9.385   6.775   0.829  0.0009  0.0466  0.0098
18027W        W22427  30.845   6.373   4.859 -0.1568 -0.2531 -0.1704
18028W        W22428  25.391   7.236   3.523 -0.0849 -0.1152  0.4353
18029W        W22429  14.956   4.691   6.616 -0.1707  0.1499 -0.0372
18030W        W22430   3.649   1.656   7.341 -0.1736  0.2812 -0.2170
18031W        W22431  26.056   3.669  20.551 -0.0193 -0.0992 -0.0513
18032W        W22432   7.716   6.542   0.973  0.1805 -0.2345 -0.1378
18033W        W22433  23.351   6.387  19.144  0.0152 -0.2307 -0.1600
18034W        W22434   0.730   0.604   2.616 -0.3119 -0.2656  0.4646
18035W        W22435  22.719   3.713  19.980 -0.2526 -0.1282  0.2076
18036W        W22436   0.309   3.381  20.544 -0.2996  0.0367 -0.1676
18037W        W22437  14.657   2.710  21.390 -0.0140 -0.0656  0.0272
18038W        W22438  23.845   4.961   7.495  0.2848 -0.2816 -0.0336
18039W        W22439  13.645   0.358   1.139 -0.1564  0.0023 -0.0589
18040W        W22440  30.565   3.147  18.822  0.0828 -0.2105 -0.0987
18041W        W22441   1.710   6.511   4.278  0.2088  0.1096 -0.2040
18042W        W22442  20.839   7.210   4.042  0.0593  0.1080 -0.2939
18043W        W22443  20.028   1.119  23.291 -0.0888 -0.1995  0.0766
18044W        W22444  12.951   3.835  19.866  0.2428  0.1122 -0.1760
18045W        W22445   5.367   3.888  10.533 -0.2499 -0.1277 -0.0345
18046W        W22446   6.286   6.390   4.230  0.0399 -0.2209  0.1566
18047W        W22447   6.525   4.502  20.599  0.0237  0.1337  0.4288
18048W        W22448  20.330   7.599   1.622  0.2283 -0.1360 -0.3730
18049W        W22449  11.473   6.358  16.056  0.1222  0.0639  0.1120
18050W        W22450  23.019   3.245   6.903  0.2132 -0.3140 -0.1420
18051W        W22451   9.411   7.164  19.486  0.0070  0.1339  0.0807
18052W        W22452  23.788   0.592  16.888 -0.2750  0.0591 -0.0058
18053W        W22453  28.579   6.374  10.637  0.0320  0.1501  0.2154
18054W        W22454  17.118   2.322  22.171 -0.1166  0.2111  0.0309
18055W        W22455  10.268   6.290  21.388 -0.0922 -0.2084 -0.1859
18056W        W22456  19.970   6.951  18.744 -0.3761 -0.2754  0.2092
18057W        W22457   7.871   7.187  17.106  0.1980 -0.0649 -0.1663
18058W        W22458  15.844   6.600  18.834  0.1257 -0.3225 -0.3809
18059W        W22459  28.888   7.804   5.790  0.2115  0.1245 -0.2458
18060W        W22460   0.040   2.933   2.671 -0.1080 -0.1034 -0.1772
18061W        W22461  26.323   6.858  25.409 -0.0973  0.2134 -0.0533
18062W        W22462  18.143   2.592  16.761  0.0564 -0.1368  0.0613
18063W        W22463   9.317   4.700   1.230 -0.0287 -0.0363 -0.0687
18064W        W22464  11.749   4.284  10.109  0.0169  0.5165  0.0985
18065W        W22465   9.171   1.891  23.315  0.0502  0.0825 -0.1117
18066W        W22466  10.098   0.842  17.970  0.2632 -0.0616 -0.2661
18067W        W22467  17.121   6.601  16.712  0.1445  0.0512  0.0330
18068W        W22468   9.263   7.055  23.708 -0.1152  0.0709 -0.1507
18069W        W22469  29.115   6.054   7.596 -0.5007  0.0557 -0.0423
18070W        W22470  22.127   2.813   8.392  0.0636  0.1183 -0.1955
18071W        W22471  16.800   7.684  21.899 -0.0140 -0.1204  0.1103
18072W        W22472  26.652   2.489  23.374  0.0824 -0.1883  0.0613
18073W        W22473  16.279   4.106  16.656 -0.0224 -0.0790 -0.0088
18074W        W22474  14.876   1.514   7.086  0.0493  0.0627 -0.2326
18075W        W22475   7.809   5.278  16.251 -0.0333  0.2929 -0.1054
18076W        W22476  29.550   5.172  25.683  0.6388  0.2516  0.0070
18077W        W22477  18.334   2.583   9.622 -0.2360 -0.1392 -0.1920
18078W        W22478   6.679   0.778  17.091  0.2222 -0.0783 -0.3924
18079W        W22479  28.415   2.107   1.542  0.1102 -0.0883 -0.0994
18080W        W22480   3.891   0.399   7.764 -0.1328 -0.0593  0.2300
18081W        W22481   2.758   2.813   8.647 -0.1632  0.1096 -0.2024
18082W        W22482   9.367   5.443   0.371  0.1544 -0.1199  0.0256
18083W        W22483  27.309   3.302  23.882 -0.0973 -0.1413 -0.0667
18084W        W22484  26.435   2.966  21.226  0.1778  0.0294  0.0852
18085W        W22485   9.529   6.831   7.898 -0.0125  0.1323  0.4962
18086W        W22486   4.573   5.894  10.921  0.1549  0.0766  0.3213
18087W        W22487  17.123   6.324  22.128  0.2654 -0.1091  0.2386
18088W        W22488   6.386   6.777   8.818  0.0920  0.1175  0.2100
18089W        W22489   6.559   1.886  25.535 -0.2207 -0.1520 -0.1257
18090W        W22490  25.052   4.549  17.524  0.2593 -0.0180 -0.0261
18091W        W22491   5.903   0.852   4.044  0.0716 -0.0777  0.0707
18092W        W22492   3.221   2.728   3.044 -0.0370  0.1035  0.0609
18093W        W22493  25.029   5.809   5.490  0.0423  0.1283 -0.0625
18094W        W22494   2.409   6.495  19.746 -0.4065  0.0704 -0.1278
18095W        W22495  24.064   1.294   1.468  0.0766  0.1397 -0.3235
18096W        W22496  27.611   7.429  19.100 -0.2626  0.0368 -0.2030
18097W        W22497  26.481   5.716  23.459  0.2084  0.0327 -0.1157
18098W        W22498   2.599   1.461   1.443 -0.1304 -0.2907  0.2761
18099W        W22499   9.819   6.179   1.883 -0.0768  0.0064  0.3844
18100W        W22500  14.324   3.562  10.158  0.0096 -0.0143  0.1026
18101W        W22501   0.277   3.748   7.224 -0.2484  0.5322  0.1699
18102W        W22502  13.779   6.765   0.264 -0.0338 -0.1733  0.0169
18103W        W22503  14.894   1.004  15.724  0.1654 -0.0067  0.1434
18104W        W22504  10.384   1.569   7.457 -0.0144 -0.1411  0.0017
18105W        W22505  23.078   6.769  21.158  0.0284 -0.0670 -0.0671
18106W        W22506   9.939   4.886  22.726  0.1505  0.3995  0.2115
18107W        W22507  15.527   5.932   8.617  0.0209 -0.0953  0.0538
18108W        W22508   5.596   2.496  25.851  0.2878  0.0654 -0.2251
18109W        W22509  30.794   0.298  25.748  0.0967  0.1415  0.1382
18110W        W22510   0.526   6.824   4.331 -0.3268  0.2443 -0.3629
18111W        W22511  13.708   4.060  17.264  0.1455 -0.0256  0.0680
18112W        W22512  15.658   4.258   4.442 -0.0551  0.1265  0.0343
18113W        W22513  17.549   6.165  14.654  0.1347 -0.1217 -0.1488
18114W        W22514  27.362   3.547  17.134  0.0691 -0.0831 -0.1444
18115W        W22515  25.084   1.471  18.350 -0.1667  0.0335 -0.0777
18116W        W22516  19.449   7.314   9.704  0.0785 -0.0067 -0.0473
18117W        W22517  18.821   2.483   7.121 -0.0769  0.2529  0.2436
18118W        W22518  23.801   5.067   5.414 -0.0972 -0.0223 -0.0986
18119W        W22519   7.859   5.316  18.325  0.0879  0.0594 -0.0240
18120W        W22520  11.177   4.673  25.022 -0.1391 -0.1445 -0.1199
18121W        W22521   1.923   2.991  24.557 -0.0539 -0.2955  0.0544
18122W        W22522   5.065   0.235  10.033  0.3394 -0.0468 -0.1180
18123W        W22523  12.369   4.645  20.107  0.1004 -0.1711  0.0235
18124W        W22524  10.021   0.845   0.562  0.4690 -0.2311  0.2142
18125W        W22525  10.520   6.065  20.475 -0.1251 -0.0580  0.0596
18126W        W22526   2.405   3.193  16.768 -0.0811  0.0363 -0.0193
18127W        W22527  17.722   6.628  24.507 -0.0884  0.0794 -0.0558
18128W        W22528  25.196   7.192   5.210 -0.0821 -0.1553 -0.1613
18129W        W22529   0.811   3.057   7.955 -0.3194 -0.2610 -0.2116
18130W        W22530   6.083   0.609  26.055  0.1691  0.1138 -0.1801
18131W        W22531   8.827   6.879   7.251 -0.0893 -0.1110  0.2071
18132W        W22532  29.551   0.419  10.267 -0.0352  0.0670 -0.0070
18133W        W22533  29.461   0.736  24.125  0.0043 -0.0459  0.0602
18134W        W22534   8.615   1.758  26.008 -0.1188  0.1600 -0.1813
18135W        W22535  18.911   5.993   4.006 -0.0344  0.0923 -0.0557
18136W        W22536  11.792   3.502   0.769  0.0953  0.0096 -0.1232
18137W        W22537  10.279   3.380   5.867 -0.0086  0.2846  0.1296
18138W        W22538  26.606   4.359  25.779 -0.2152  0.0240 -0.1317
18139W        W22539   5.237   5.214   8.117 -0.0682 -0.0732  0.0192
18140W        W22540  23.875   0.995   1.062 -0.1567  0.1516  0.0237
18141W        W22541   7.214   6.525  25.924  0.2331  0.0826 -0.1712
18142W        W22542   2.131   3.028   6.491 -0.2039 -0.2107  0.3339
18143W        W22543  18.339   2.375   4.228 -0.1142 -0.0364 -0.2471
18144W        W22544   6.889   0.220   6.889  0.3948  0.1119 -0.0846
18145W        W22545   7.920   0.541   6.579  0.3006  0.2499 -0.0611
18146W        W22546  23.487   6.687  24.738 -0.2585 -0.2876 -0.1180
18147W        W22547  12.767   3.963  21.041  0.0272  0.1312  0.1159
18148W        W22548  11.411   0.558  26.129 -0.2063  0.1278 -0.1310
18149W        W22549  28.150   1.384   6.810 -0.0224  0.1222 -0.6392
18150W        W22550   2.349   6.632   9.746 -0.3119  0.1726 -0.0903
18151W        W22551  12.142   7.050   0.682  0.0711 -0.1640 -0.3590
18152W        W22552  27.738   4.134  18.984  0.0444  0.0462 -0.0711
18153W        W22553  23.754   6.254   9.009 -0.1484  0.1483  0.0978
18154W        W22554   3.988   4.547  22.461 -0.0253  0.1525 -0.1550
18155W        W22555   9.866   0.583  20.170 -0.0850  0.0599  0.0910
18156W        W22556  20.798   2.375  16.040 -0.0201  0.1633  0.1997
18157W        W22557   9.702   2.578   3.638 -0.0786 -0.0818  0.2351
18158W        W22558   1.997   2.428   1.129  0.1178  0.1037  0.1683
18159W        W22559  11.092   2.242   8.173 -0.1085 -0.2859  0.0730
18160W        W22560  12.370   1.262   5.379  0.1310  0.0073  0.0418
18161W        W22561  14.966   1.523  18.781 -0.0779 -0.1595  0.0517
18162W        W22562  16.625   6.710   8.507  0.1918  0.1045 -0.0166
18163W        W22563   9.756   1.037   5.657  0.1528 -0.0593  0.0779
18164W        W22564   5.083   7.120  10.482  0.0180 -0.0906 -0.2653
18165W        W22565  15.553   7.812  19.665  0.4641 -0.0538  0.0447
18166W        W22566  29.664   1.844   4.554 -0.0756 -0.0817 -0.0005
18167W        W22567  31.070   1.001  20.399 -0.2679  0.1302  0.1532
18168W        W22568  14.243   0.803   4.465 -0.0762 -0.1336  0.1580
18169W        W22569   2.797   7.801   7.418  0.2537  0.0629 -0.1869
18170W        W22570  26.771   1.910   0.741  0.2931  0.0501 -0.0219
18171W        W22571  15.596   4.443  22.851  0.0150 -0.0132  0.2094
18172W        W22572   5.900   2.685   8.979 -0.0433 -0.0776 -0.0294
18173W        W22573   6.555   6.952   0.793  0.0947 -0.0256 -0.0144
18174W        W22574  21.242   2.736   8.732  0.0286  0.3287  0.0818
18175W        W22575  21.530   3.087   2.759  0.3049 -0.2188  0.2330
18176W        W22576  10.509   4.586  21.157  0.2389 -0.0880 -0.0310
18177W        W22577  14.555   2.827   0.749 -0.1028  0.0065 -0.2123
18178W        W22578  24.618   2.848   7.624  0.0528  0.0519 -0.1254
18179W        W22579  22.838   4.135   9.893  0.0020  0.1926 -0.3260
18180W        W22580   2.315   7.710  11.959 -0.2030  0.0706  0.0211
18181W        W22581   2.043   4.472  25.713  0.0535  0.3136  0.0276
18182W        W22582  17.405   6.788  15.291 -0.0473  0.1948 -0.1744
18183W        W22583  29.868   3.136  22.107 -0.2726  0.2475  0.4305
18184W        W22584   5.443   3.402  21.401  0.0715 -0.0284  0.2506
18185W        W22585   5.404   0.404   1.832 -0.0147  0.1817  0.2555
18186W        W22586  13.536   7.156  19.709  0.3859  0.2987  0.0100
18187W        W22587   1.596   7.039   7.987 -0.2141 -0.2464  0.1079
18188W        W22588  25.268   7.445   4.041  0.0113 -0.2480  0.0321
18189W        W22589  25.906   1.669  24.187 -0.2740  0.3650 -0.0676
18190W        W22590  17.570   7.054   8.610 -0.1713 -0.0169 -0.0601
18191W        W22591  25.920   2.305  19.513  0.1481  0.0764  0.1347
18192W        W22592   4.861   3.431   8.764 -0.1327  0.1505 -0.2250
18193W        W22593  25.095   6.139   6.441 -0.2557 -0.1509 -0.1080
18194W        W22594   8.365   1.514  22.279  0.1427 -0.1036  0.2516
18195W        W22595  10.763   7.529   2.296  0.3347  0.1243 -0.0535
18196W        W22596   8.747   6.283   3.258  0.2579  0.4916  0.1455
18197W        W22597  12.213   7.207   5.627  0.1202  0.0011 -0.1838
18198W        W22598  30.309   2.422   7.116  0.0528 -0.2841 -0.1724
18199W        W22599  28.089   4.550   6.328 -0.1863 -0.0869  0.0770
18200W        W22600   9.874   6.904   0.899  0.1058 -0.1322 -0.4305
18201W        W22601  26.478   3.018  17.443 -0.3503 -0.1197 -0.2069
18202W        W22602  17.724   1.829  15.111  0.0011 -0.0921 -0.1995
18203W        W22603  20.671   4.590  19.181 -0.0842 -0.0474 -0.0629
18204W        W22604   9.118   7.565  25.797  0.0751 -0.2771 -0.0744
18205W        W22605  23.247   6.950   0.342  0.0915  0.1981 -0.0192
18206W        W22606  27.669   7.733  17.715  0.0795  0.0215  0.0860
18207W        W22607  10.733   5.432  23.060 -0.2380 -0.3346 -0.0552
18208W        W22608  25.626   3.092   1.451 -0.1493  0.0342  0.0376
18209W        W22609  26.456   0.682   5.970 -0.0444  0.0040 -0.3312
18210W        W22610  29.889   6.811  25.709  0.0509 -0.4795  0.1841
18211W        W22611  10.818   5.840   0.160  0.0746 -0.1213  0.0655
18212W        W22612  18.947   7.555  24.252  0.0019  0.1077  0.1909
18213W        W22613  22.967   0.681  18.761  0.2583 -0.2912 -0.3900
18214W        W22614  18.406   0.298  24.770  0.0575 -0.0628  0.2873
18215W        W22615   8.759   5.923  23.330 -0.1391  0.0692 -0.2023
18216W        W22616  20.865   6.659   6.332  0.0342  0.2414 -0.1591
18217W        W22617   8.007   7.058   9.871 -0.0962  0.0700 -0.1763
18218W        W22618  20.818   5.762   8.160 -0.1179  0.3547 -0.0710
18219W        W22619   5.323   4.332   7.740 -0.3281 -0.0252 -0.0350
18220W        W22620  26.432   1.173   0.439 -0.1688 -0.1940 -0.0926
18221W        W22621  14.390   3.802  24.580  0.1633 -0.2421  0.0247
18222W        W22622   9.268   1.133  22.200 -0.1546  0.0803 -0.1779
18223W        W22623  27.405   4.562   5.489 -0.2293  0.0743  0.2815
18224W        W22624  18.312   2.035   3.105 -0.0300  0.1531 -0.2126
18225W        W22625  21.156   0.774   0.259 -0.1651  0.1842  0.1319
18226W        W22626  20.784   5.689   3.327  0.1040  0.1891 -0.2125
18227W        W22627  26.302   3.971   8.938  0.2526 -0.1005 -0.2382
18228W        W22628  27.653   6.662  16.875 -0.0771 -0.3119 -0.3450
18229W        W22629  29.039   4.721  23.796 -0.1324 -0.3142 -0.0957
18230W        W22630  14.343   0.274  16.457 -0.0098 -0.1419 -0.0638
18231W        W22631  16.595   5.072  22.114  0.1332 -0.0379  0.0244
18232W        W22632  29.083   0.049  15.818 -0.0312  0.2305  0.2668
18233W        W22633   8.753   4.425   3.869 -0.1066 -0.0069 -0.0006
18234W        W22634   6.372   0.553   9.599  0.2541  0.0467 -0.0084
18235W        W22635  14.497   6.420  19.371 -0.1593  0.2446 -0.0253
18236W        W22636  30.915   4.805   2.925  0.0928  0.0683  0.0861
18237W        W22637  22.839   3.643   0.098 -0.1281 -0.1640  0.0826
18238W        W22638   2.577   3.841   8.488 -0.2166 -0.0592 -0.0442
18239W        W22639   4.032   0.854  17.198 -0.3497  0.1400 -0.0294
18240W        W22640  31.111   4.654  17.103  0.1758 -0.1946 -0.1534
18241W        W22641   9.555   3.000   6.392 -0.0062  0.0751 -0.1244
18242W        W22642  26.214   6.195  23.290 -0.0120  0.2347  0.0978
18243W        W22643   7.894   5.653  25.894 -0.2835  0.0001 -0.2287
18244W        W22644   1.430   6.869  19.503  0.1828 -0.0779 -0.1423
18245W        W22645  25.958   1.259  10.123  0.0896 -0.1651  0.0112
18246W        W22646   3.648   6.412   6.549  0.1683  0.1221 -0.2512
18247W        W22647  25.337   7.520  19.435 -0.1890  0.1402  0.1271
18248W        W22648  17.109   1.152   6.424  0.1808  0.3466 -0.3591
18249W        W22649  14.115   4.517  25.676  0.1325 -0.1862  0.0028
18250W        W22650   0.366   6.416   8.969 -0.0489 -0.0674  0.1480
18251W        W22651  28.445   5.764  23.513 -0.1648 -0.1598  0.0826
18252W        W22652  27.467   3.727  23.551 -0.1075  0.0602  0.4086
18253W        W22653  21.783   4.141  22.406 -0.0591  0.2369  0.0866
18254W        W22654  20.834   0.054  17.825  0.2650  0.0595  0.0652
18255W        W22655  17.152   1.540  24.224  0.0161  0.0953  0.1889
18256W        W22656  10.570   0.581   2.986  0.0219  0.0395 -0.3209
18257W        W22657  22.452   3.391  26.046 -0.0138  0.1299  0.0947
18258W        W22658  12.952   3.390   0.702 -0.0627 -0.2588 -0.2500
18259W        W22659   6.723   0.363   4.514  0.1723  0.1277 -0.0610
18260W        W22660  13.526   6.148   4.571 -0.0458  0.2765  0.0836
18261W        W22661  19.720   6.826  17.011  0.2546 -0.2785  0.0741
18262W        W22662  23.247   7.081   2.222 -0.0201  0.2633 -0.1060
18263W        W22663   5.939   5.825   1.597 -0.0804  0.0575  0.0494
18264W        W22664   6.370   5.964   6.036  0.3732 -0.2159 -0.1338
18265W        W22665  15.917   6.374  24.842  0.0803 -0.2513  0.0202
18266W        W22666  25.985   3.998   3.958  0.1532 -0.2373  0.2255
18267W        W22667   8.636   7.202   1.659  0.2549 -0.0040  0.2686
18268W        W22668   3.346   7.121   1.658  0.0307  0.3547 -0.1173
18269W        W22669  24.271   7.502   7.351  0.0730 -0.3016 -0.0895
18270W        W22670   3.504   2.356   2.842 -0.0824  0.1855 -0.1462
18271W        W22671  29.247   5.317  17.702  0.0293 -0.3380 -0.0830
18272W        W22672  29.837   5.098  19.950  0.0021  0.2957 -0.1462
18273W        W22673  19.577   6.457   4.100  0.1598 -0.0054  0.2043
18274W        W22674   8.729   2.595   6.427  0.0586 -0.1477 -0.2032
18275W        W22675   2.381   2.121  10.131  0.1423 -0.1113  0.3039
18276W        W22676  21.914   3.205  20.508 -0.0272 -0.0818 -0.0112
18277W        W22677  18.993   6.678  23.974  0.0980 -0.1900 -0.0939
18278W        W22678  27.899   2.197   5.207 -0.2859 -0.2013  0.1099
18279W        W22679  26.724   5.673   7.099  0.4968  0.2963 -0.3758
18280W        W22680  19.401   5.513  20.406 -0.0569 -0.0906 -0.2693
18281W        W22681  25.139   3.348  24.026 -0.1723  0.3553  0.1041
18282W        W22682   1.419   4.999  10.584 -0.2310  0.0144  0.3260
18283W        W22683  18.657   1.634   4.392 -0.4710 -0.2684 -0.0926
18284W        W22684   1.668   2.044  21.795 -0.2864  0.0111 -0.0920
18285W        W22685  29.600   7.579  24.185 -0.0113 -0.3643 -0.2206
18286W        W22686   3.388   3.882  22.046  0.2976 -0.0555 -0.2395
18287W        W22687   3.115   4.885   2.412  0.0106 -0.1264  0.2075
18288W        W22688  18.390   5.457  15.681  0.0810  0.0499 -0.1376
18289W        W22689  29.796   2.410   8.271  0.0412 -0.2303 -0.2635
18290W        W22690   0.358   3.635   3.118 -0.1864 -0.0428 -0.4660
18291W        W22691  27.656   3.328  21.295  0.1508 -0.1411 -0.2109
18292W        W22692  17.133   6.809   2.926 -0.2910 -0.0639 -0.0516
18293W        W22693  14.941   5.410   1.836  0.2509 -0.1957  0.1439
18294W        W22694   6.913   0.661  14.690  0.2033 -0.1306  0.1583
18295W        W22695  30.606   5.778   5.994 -0.0624 -0.2543  0.2754
18296W        W22696   9.118   4.884   7.763  0.0329  0.0331 -0.0121
18297W        W22697  25.410   5.377  15.478  0.2433 -0.5342 -0.4501
18298W        W22698   8.054   5.160  25.263  0.3801 -0.1896  0.2113
18299W        W22699  14.198   2.268  25.494 -0.0407 -0.1932 -0.1628
18300W        W22700  26.936   4.868  18.489 -0.2277  0.0014  0.2019
18301W        W22701  26.663   7.265  22.252  0.3459  0.2151 -0.0197
18302W        W22702  26.141   3.132  25.607  0.1931  0.2024 -0.1788
18303W        W22703   5.839   5.334   5.637 -0.3605  0.3715  0.1125
18304W        W22704  27.353   2.030  24.413 -0.2457 -0.2404  0.3012
18305W        W22705  24.794   6.295   2.907  0.0695  0.1205 -0.1688
18306W        W22706  23.314   6.921   4.333 -0.1021  0.2002  0.1853
18307W        W22707  21.631   6.626  19.955  0.1876  0.1567 -0.1878
18308W        W22708  17.737   0.972   8.841  0.1510 -0.2313  0.2395
18309W        W22709  26.386   3.861  15.362  0.1995 -0.0888 -0.2375
18310W        W22710  12.354   6.353   7.358 -0.1774  0.0754 -0.1785
18311W        W22711  10.043   5.220   8.017 -0.1488 -0.0249  0.0562
18312W        W22712   9.821   2.221   5.822 -0.2549 -0.1300  0.1486
18313W        W22713  20.735   0.618   3.752 -0.0885  0.1265 -0.0194
18314W        W22714   4.538   3.843  25.673  0.1560  0.3890 -0.2871
18315W        W22715  12.070   5.263   9.063 -0.1051  0.1741  0.0582
18316W        W22716  24.515   3.444  25.904 -0.3011 -0.1621 -0.2608
18317W        W22717  18.425   2.378   6.149 -0.1461  0.2063  0.0510
18318W        W22718   5.877   2.500  19.495  0.3101 -0.0485 -0.0579
18319W        W22719  11.184   6.120  22.264  0.0101 -0.1735  0.1007
18320W        W22720  12.530   0.502  15.707 -0.1209 -0.1511 -0.0252
18321W        W22721  29.704   7.402   6.009 -0.0657 -0.1137 -0.0894
18322W        W22722  29.829   1.070  18.670 -0.2575  0.2300  0.2062
18323W        W22723  31.225   6.017  23.046  0.0806 -0.1610  0.1591
18324W        W22724  18.253   5.458   2.001  0.0744 -0.1143 -0.1726
18325W        W22725   3.639   5.979   1.206 -0.0639 -0.1882 -0.3311
18326W        W22726  11.222   2.588   4.720 -0.0768 -0.0710  0.0050
18327W        W22727  22.355   7.406  23.820 -0.0745 -0.0617 -0.0224
18328W        W22728  30.019   2.819  17.393 -0.1596  0.0273 -0.3181
18329W        W22729  13.531   4.906  20.047 -0.0075  0.1121  0.0674
18330W        W22730  16.684   6.806  16.552 -0.0235  0.1038  0.2021
18331W        W22731  13.251   4.978  24.100 -0.0167 -0.0705  0.3282
18332W        W22732  10.567   7.816   2.672  0.0412 -0.0540 -0.1089
18333W        W22733  28.621   7.583   3.166  0.0564 -0.0547 -0.2410
18334W        W22734  13.929   1.637  23.186  0.0236  0.2136  0.0005
18335W        W22735  22.158   4.327   4.845  0.3102  0.1265 -0.1371
18336W        W22736  27.595   3.122  18.062  0.1683 -0.0774  0.1919
18337W        W22737   2.806   3.933  10.809 -0.1795  0.0590  0.0950
18338W        W22738  21.201   3.155  21.269  0.2101  0.1057  0.0585
18339W        W22739  30.491   6.045  24.220  0.0440  0.0108  0.1759
18340W        W22740  20.021   1.942  23.481 -0.1636  0.2160  0.0019
18341W        W22741   1.241   5.101   2.161 -0.0995 -0.0978  0.3290
18342W        W22742   0.225   2.594  19.345  0.2168  0.1802  0.0616
18343W        W22743  28.012   0.574   7.238 -0.2994 -0.1232  0.1079
18344W        W22744   0.824   4.725   1.012  0.0196  0.1292 -0.2600
18345W        W22745  29.278   2.607   3.754  0.4393 -0.1438  0.2560
18346W        W22746  17.407   5.980  19.651 -0.0540 -0.0867  0.0656
18347W        W22747   3.219   5.737  25.771  0.1310 -0.1523 -0.0686
18348W        W22748  21.866   4.489  20.390  0.0209  0.3598 -0.0964
18349W        W22749   7.542   2.448  23.778 -0.2443  0.1908  0.0223
18350W        W22750   5.821   4.409  25.186 -0.0606 -0.4434 -0.1057
18351W        W22751  20.663   4.391   6.789  0.0714 -0.2670  0.1442
18352W        W22752  11.401   3.599   5.507  0.1115 -0.0516 -0.0177
18353W        W22753  13.439   2.388  15.386 -0.1442 -0.1055 -0.2096
18354W        W22754  30.135   6.558   9.879 -0.0053 -0.1304 -0.0348
18355W        W22755  13.913   4.956  25.956 -0.2806  0.1405  0.1119
18356W        W22756  30.858   5.243  22.009 -0.1076  0.0280 -0.0578
18357W        W22757  28.408   0.800  23.880 -0.2269 -0.3954 -0.2569
18358W        W22758  28.382   5.322   6.160  0.1864 -0.0100  0.0473
18359W        W22759  17.470   6.986  22.668  0.1545  0.0784  0.4443
18360W        W22760   1.869   2.083  19.244 -0.0024  0.2322  0.0680
18361W        W22761   6.597   5.728  17.437  0.1206  0.0078  0.1937
18362W        W22762  28.428   6.837   9.094  0.1779 -0.1152  0.0701
18363W        W22763  13.578   5.380   9.563  0.0921 -0.2343 -0.0070
18364W        W22764   6.690   2.055  19.854  0.2387  0.1414 -0.0372
18365W        W22765  26.822   6.333   8.910 -0.2415  0.3080 -0.1128
18366W        W22766  13.129   5.165   4.520 -0.0304  0.0061 -0.3254
18367W        W22767  12.971   2.884   3.079  0.0313  0.1466 -0.1042
18368W        W22768  25.056   3.510  15.404  0.1192  0.0087  0.3515
18369W        W22769  23.458   5.203  18.843 -0.0730  0.1081 -0.0866
18370W        W22770  29.610   5.671  23.258 -0.1235  0.0753  0.0499
18371W        W22771   1.503   1.112  16.595  0.3538  0.1254 -0.3957
18372W        W22772  23.973   7.263  19.036 -0.3638  0.0210 -0.1196
18373W        W22773  19.584   2.152  18.724 -0.2170  0.1877 -0.2328
18374W        W22774   3.110   2.931  18.028  0.2060 -0.0283  0.1567
18375W        W22775  29.752   6.970   3.558  0.1307  0.0492 -0.0447
18376W        W22776  18.747   5.364   3.379 -0.4131  0.2173 -0.1713
18377W        W22777   1.381   5.103  20.518 -0.1089  0.2973  0.0436
18378W        W22778  28.870   2.607  20.950 -0.1328  0.1050  0.1454
18379W        W22779  16.572   6.290   4.708  0.2196 -0.0195 -0.1184
18380W        W22780  30.835   7.680   0.462 -0.0215 -0.2713  0.4410
18381W        W22781   6.837   3.211   2.487  0.3074  0.0853 -0.1329
18382W        W22782  27.554   5.835  10.250  0.0631  0.1092 -0.1902
18383W        W22783   5.876   3.174  10.898 -0.1917 -0.0695  0.0787
18384W        W22784   6.269   6.962  21.830 -0.2030  0.0259  0.0129
18385W        W22785  13.836   4.131  21.793 -0.2990 -0.3592  0.0151
18386W        W22786  12.077   1.931  17.401 -0.0799 -0.0475 -0.1735
18387W        W22787  28.553   5.799  18.919 -0.1066 -0.0483  0.0532
18388W        W22788  30.998   1.512   4.555  0.0410 -0.2319 -0.0508
18389W        W22789  11.034   3.005  24.736 -0.2892  0.0941  0.4616
18390W        W22790  30.902   1.004   7.518  0.2617  0.2184  0.1079
18391W        W22791   0.949   2.240  17.677 -0.1762 -0.1739  0.1395
18392W        W22792  16.608   4.553  17.558  0.1522 -0.3246 -0.1322
18393W        W22793  25.537   5.860   8.788  0.0870 -0.1559  0.1305
18394W        W22794  29.762   4.877   9.456  0.2667 -0.1190  0.0471
18395W        W22795  22.342   3.618   5.389 -0.1547  0.0038  0.0544
18396W        W22796  11.208   6.677  22.064  0.1565  0.2201  0.0921
18397W        W22797   6.092   2.619  22.646  0.0061  0.0023  0.3491
18398W        W22798  30.158   2.109  10.247  0.1523 -0.2614  0.1865
18399W        W22799   2.730   5.911   2.212  0.1294 -0.0234  0.2365
18400W        W22800  24.845   5.225  23.869  0.0770  0.0753 -0.0045
18401W        W22801  24.890   5.545   8.010 -0.1497 -0.0338  0.4525
18402W        W22802  30.784   1.772   5.015  0.1537  0.1978  0.0429
18403W        W22803  22.861   4.031  22.835 -0.1014  0.1074 -0.2209
18404W        W22804  21.357   6.231   0.660 -0.1355  0.1498 -0.1499
18405W        W22805  20.089   1.438  19.031 -0.0368 -0.1185 -0.0891
18406W        W22806  26.559   6.926  16.661  0.0553  0.1694 -0.0521
18407W        W22807  25.715   0.896  16.633 -0.0734  0.1493  0.1402
18408W        W22808  15.585   1.306  17.533 -0.4488 -0.0083  0.3040
18409W        W22809   4.223   3.448  19.507  0.3640  0.0112 -0.1162
18410W        W22810  29.436   0.913   0.139 -0.2298 -0.3503 -0.1764
18411W        W22811  12.305   3.486   4.170 -0.1060  0.1195 -0.1068
18412W        W22812   4.558   4.713   8.756 -0.1050 -0.0838 -0.0315
18413W        W22813   9.359   2.926  21.606  0.2113  0.2151 -0.1979
18414W        W22814   8.482   0.887   2.630  0.0416  0.2418 -0.0057
18415W        W22815  22.342   5.808  20.635 -0.1349 -0.1509 -0.1011
18416W        W22816  21.760   7.038  19.551 -0.2444 -0.2535  0.0777
18417W        W22817  17.298   3.489  25.267  0.1382 -0.1164 -0.3423
18418W        W22818  26.514   1.921  17.154  0.0554  0.0930  0.0542
18419W        W22819   7.259   2.935  17.522 -0.1727  0.1508 -0.2138
18420W        W22820   5.197   6.081  25.305  0.1978  0.1385 -0.1883
18421W        W22821  15.681   0.679  16.775 -0.2083  0.2447  0.0173
18422W        W22822  20.980   0.340  24.658  0.1269  0.4884  0.2901
18423W        W22823  24.019   0.733   6.452 -0.1756 -0.3412 -0.1398
18424W        W22824   2.653   6.682   9.018  0.0204  0.0832  0.1799
18425W        W22825   4.387   6.168  23.683 -0.0478 -0.0226 -0.0585
18426W        W22826  28.613   6.725   3.600  0.0099  0.0735 -0.2058
18427W        W22827  13.895   4.663  23.780 -0.0391 -0.1138  0.0926
18428W        W22828  20.196   5.447   1.699 -0.0935 -0.1084 -0.0169
18429W        W22829   1.368   0.271  17.157  0.1885 -0.2442 -0.0916
18430W        W22830  19.549   3.978   0.328 -0.1847 -0.1805  0.1372
18431W        W22831   4.834   2.690   3.425  0.2092 -0.2642  0.2075
18432W        W22832  17.357   0.028  14.812  0.1324 -0.2511  0.0282
18433W        W22833   9.817   4.092  19.672  0.1319  0.2227  0.0844
18434W        W22834  20.572   4.351   8.724 -0.0549 -0.1889  0.1289
18435W        W22835   8.414   1.071  22.053  0.0916  0.1845 -0.2269
18436W        W22836  30.615   1.364  24.450  0.0953 -0.0071  0.1918
18437W        W22837   9.447   4.490   3.823  0.1133 -0.1779 -0.0630
18438W        W22838  28.513   3.186   5.505 -0.0216 -0.4463  0.1097
18439W        W22839   5.925   6.786   8.775 -0.0908 -0.1286  0.3217
18440W        W22840  17.233   7.677   1.753 -0.2885 -0.1213  0.0530
18441W        W22841  28.889   6.375  11.045 -0.1813  0.0240 -0.0780
18442W        W22842  15.820   3.693  23.017 -0.0153  0.0373 -0.1294
18443W        W22843  23.947   1.898  15.834  0.0282  0.1672  0.2268
18444W        W22844  29.786   7.720  20.850 -0.1369  0.1225 -0.1607
18445W        W22845  22.151   1.994  23.325 -0.1261  0.1912  0.0517
18446W        W22846  13.063   7.358  23.943  0.0460  0.0524 -0.0677
18447W        W22847  25.574   4.330  25.766  0.0710  0.1463 -0.2457
18448W        W22848   4.965   4.705  25.345 -0.1023 -0.2763  0.1785
18449W        W22849  29.604   4.946  20.403  0.0022 -0.1406 -0.0823
18450W        W22850  28.626   2.443  23.536 -0.1877 -0.0733  0.1610
18451W        W22851  20.322   6.969   2.934 -0.0330 -0.4147  0.0401
18452W        W22852  27.233   2.281  25.447 -0.2271 -0.4360 -0.1106
18453W        W22853  23.356   1.601  14.812  0.0007  0.0387  0.1007
18454W        W22854  23.715   2.018  19.577  0.1779  0.1387  0.1265
18455W        W22855  28.792   5.709   7.495 -0.0658 -0.0261 -0.0655
18456W        W22856  20.873   6.021   3.621 -0.1870  0.0946 -0.3073
18457W        W22857   9.432   5.584   6.262 -0.2724 -0.0216  0.3153
18458W        W22858   5.844   1.434   6.177  0.1658  0.0678  0.3045
18459W        W22859  29.886   0.905   1.401 -0.2138 -0.0235  0.2259
18460W        W22860  15.188   1.853  14.746 -0.1975 -0.0130 -0.0459
18461W        W22861   8.184   3.066   5.579  0.2297  0.1313  0.0645
18462W        W22862  13.304   4.903  23.183  0.1694  0.2699  0.0237
18463W        W22863  27.613   1.602   1.431  0.2028  0.0010  0.0818
18464W        W22864  24.057   0.893  17.803 -0.2298  0.0283  0.0720
18465W        W22865  14.596   3.786   6.622 -0.1570 -0.0780 -0.1070
18466W        W22866  29.503   6.603   6.041  0.1243  0.0383 -0.1795
18467W        W22867  15.633   6.164   9.624 -0.0246  0.3056 -0.5239
18468W        W22868  31.024   5.496   9.758 -0.3405 -0.1156 -0.0230
18469W        W22869   6.950   2.906  10.610 -0.2082  0.0076  0.1583
18470W        W22870  28.448   3.174   8.156 -0.4417  0.1752  0.1096
18471W        W22871  14.733   2.729  19.794  0.0252 -0.0490  0.2121
18472W        W22872  20.525   3.371   2.778 -0.0832  0.2509 -0.0619
18473W        W22873   8.547   2.839   5.348  0.2635  0.2244  0.0128
18474W        W22874  11.410   1.726   4.884  0.0706  0.2594  0.3973
18475W        W22875  16.563   4.573  22.006 -0.0242  0.0010 -0.1204
18476W        W22876   1.068   6.372  17.707 -0.0055 -0.1615 -0.1051
18477W        W22877   1.211   3.183   2.942 -0.3405 -0.0850 -0.0463
18478W        W22878   8.692   3.045   5.767 -0.0019  0.0462  0.2859
18479W        W22879  22.839   7.072  20.211  0.1232 -0.1170  0.1788
18480W        W22880   4.397   0.848  10.309 -0.0406 -0.0916  0.0631
18481W        W22881  20.206   0.052  24.904  0.1632 -0.0663  0.0627
18482W        W22882  25.886   2.409  23.798  0.0802  0.0359  0.1429
18483W        W22883  17.981   7.220   1.021  0.1284  0.1616  0.1398
18484W        W22884   6.845   0.326   1.106  0.0205  0.1945  0.0155
18485W        W22885   9.537   6.678  19.567  0.0572 -0.0753  0.0409
18486W        W22886  19.639   4.188   7.479 -0.0206 -0.4802  0.1189
18487W        W22887  14.940   1.117   4.924 -0.0764 -0.0646 -0.3752
18488W        W22888  10.116   4.901   3.564 -0.2573 -0.0671 -0.0266
18489W        W22889  26.534   4.133   7.428 -0.1419  0.1445 -0.0686
18490W        W22890  23.826   1.155  18.842  0.0191 -0.0077 -0.0982
18491W        W22891  14.617   0.126  10.560 -0.1785  0.1945  0.1441
18492W        W22892  15.636   1.346   7.972 -0.0038 -0.1589  0.0510
18493W        W22893  20.289   1.016   9.691 -0.1433  0.1068  0.0565
18494W        W22894   7.691   1.293   0.069  0.0953  0.2475  0.0944
18495W        W22895   5.249   4.945   9.080 -0.0026  0.0081 -0.2638
18496W        W22896  15.432   7.729  10.140 -0.2003  0.1891 -0.0825
18497W        W22897   2.262   1.083  17.041  0.1089 -0.1812 -0.1501
18498W        W22898  20.168   7.503  25.271  0.1398  0.0261  0.1927
18499W        W22899  18.381   7.248  18.073  0.0511 -0.1934 -0.1595
18500W        W22900  24.528   0.887  17.209 -0.1823 -0.0516 -0.2085
18501W        W22901  18.866   3.612   2.052  0.1118  0.0937  0.0614
18502W        W22902  21.631   4.356   2.481  0.0890 -0.0522 -0.2552
18503W        W22903   0.379   6.876  16.905 -0.1611  0.1313  0.2917
18504W        W22904   5.960   5.400  19.181 -0.0345 -0.1041 -0.0669
18505W        W22905   7.297   3.300   1.730 -0.1303 -0.0450 -0.2396
18506W        W22906  13.927   4.660  19.048  0.0833  0.1049  0.3675
18507W        W22907  15.792   4.497  24.849 -0.3617  0.0708 -0.1221
18508W        W22908  26.928   0.987  25.313 -0.0914  0.0100 -0.2543
18509W        W22909   0.435   4.716  19.336 -0.0481 -0.2768  0.0707
18510W        W22910   2.600   4.196   9.516  0.0713  0.0017 -0.2103
18511W        W22911   4.127   3.782  21.299 -0.3170 -0.1508 -0.1271
18512W        W22912   2.796   1.089  17.294  0.0749  0.2192  0.0264
18513W        W22913  19.171   1.992   0.756  0.2141 -0.1028  0.3652
18514W        W22914  11.514   6.693   3.498  0.0410 -0.1697  0.0873
18515W        W22915   9.037   5.703  16.802  0.0851 -0.0090  0.2473
18516W        W22916  25.967   3.541   4.539  0.0731 -0.3009 -0.0428
18517W        W22917  15.381   1.492  20.394 -0.0351  0.0159 -0.1458
18518W        W22918   2.029   2.425  24.678 -0.2334  0.0286  0.1901
18519W        W22919   0.112   1.223   8.618 -0.1864  0.0293  0.1391
18520W        W22920   8.253   1.697  15.902 -0.4460 -0.1538  0.0673
18521W        W22921  18.472   6.020   8.466  0.0963 -0.0465  0.1104
18522W        W22922   0.714   3.618  20.730  0.0368 -0.0542 -0.0458
18523W        W22923  12.216   5.017   9.526  0.0826  0.0117 -0.0101
18524W        W22924   1.019   6.328  22.451 -0.3596  0.0108 -0.0669
18525W        W22925  14.638   1.383   8.156 -0.0195  0.0490  0.0001
18526W        W22926   1.048   6.202   2.033 -0.1335 -0.0579 -0.1523
18527W        W22927  15.759   2.582  24.992  0.0028  0.1623  0.1021
18528W        W22928   7.326   5.546  23.958  0.2351 -0.2330 -0.1110
18529W        W22929   3.185   0.803   7.424 -0.0477 -0.0991 -0.0308
18530W        W22930  24.784   5.593  21.164  0.3213 -0.4992  0.0337
18531W        W22931   7.853   1.558   9.065 -0.0127  0.0615  0.1324
18532W        W22932  20.760   6.510  16.139 -0.1317  0.1900 -0.0528
18533W        W22933   5.861   3.074  22.626  0.2226  0.3528 -0.0111
18534W        W22934   6.085   6.466   8.350  0.0001 -0.2658  0.0212
18535W        W22935  27.091   0.075   2.648  0.1659  0.2169  0.1110
18536W        W22936   8.334   5.352  21.120  0.3066 -0.0136 -0.0540
18537W        W22937  26.745   1.757   3.884  0.0849 -0.2413  0.0387
18538W        W22938   1.180   0.003  19.944 -0.1128 -0.1710  0.1423
18539W        W22939  10.900   6.798  11.093 -0.1044 -0.0205  0.1976
18540W        W22940  15.073   0.068  16.696 -0.1550 -0.0944 -0.4230
18541W        W22941  20.903   5.178  23.697  0.2720  0.2652  0.2869
18542W        W22942   3.252   7.706   7.176 -0.2833  0.1385 -0.2111
18543W        W22943   7.544   1.286   7.229 -0.1257  0.1409  0.0798
18544W        W22944   8.673   5.561  17.403  0.0637 -0.1799 -0.1409
18545W        W22945  26.792   2.400  16.906 -0.0829  0.0328  0.0178
18546W        W22946  18.646   4.612   5.058  0.0395  0.0548 -0.2151
18547W        W22947   4.482   5.291  17.903 -0.2568  0.0680 -0.1751
18548W        W22948  19.184   6.309  17.526  0.1923  0.0284 -0.2173
18549W        W22949  29.908   4.137  17.355  0.1468 -0.0614  0.0679
18550W        W22950  21.592   2.731   7.214  0.0612  0.1390 -0.1580
18551W        W22951  13.600   4.185  15.906  0.1355  0.1607 -0.1717
18552W        W22952   5.360   3.630   0.931  0.0537  0.1569 -0.0644
18553W        W22953  23.367   7.154   7.662  0.2825  0.1503 -0.2096
18554W        W22954  10.348   5.470  18.490  0.2661 -0.0737  0.1754
18555W        W22955  21.074   0.934  20.838  0.0211  0.0591 -0.0352
18556W        W22956  17.837   5.550   1.680 -0.2382 -0.1861  0.0145
18557W        W22957  25.216   4.992   4.842 -0.0508  0.1007  0.0608
18558W        W22958   1.658   2.822  21.567 -0.2281  0.4873 -0.1614
18559W        W22959  28.060   5.960  25.436 -0.0615  0.0619  0.0425
18560W        W22960   3.699   6.466   2.551  0.2564 -0.0770  0.0166
18561W        W22961  16.442   5.263   3.867 -0.0124  0.2277 -0.0936
18562W        W22962  13.090   2.965   4.097 -0.1326  0.0171  0.1540
18563W        W22963  12.501   5.249  19.920 -0.2801 -0.0664 -0.3235
18564W        W22964  19.348   2.061  25.412 -0.0397 -0.1758 -0.0529
18565W        W22965  28.836   6.247  22.002  0.1123  0.1734  0.1363
18566W        W22966  15.924   7.157  20.369  0.1825  0.2052 -0.0715
18567W        W22967  25.154   4.308  23.587 -0.2058  0.1687 -0.2018
18568W        W22968  17.491   6.781  23.198 -0.3463 -0.0962 -0.0819
18569W        W22969   4.807   2.905  21.939  0.1342 -0.0623 -0.1258
18570W        W22970  28.981   2.856   2.679  0.0988 -0.2014 -0.1170
18571W        W22971  30.832   2.803   7.087  0.0261 -0.1815 -0.0348
18572W        W22972  20.217   1.591  17.119  0.5386 -0.1488  0.1903
18573W        W22973  10.874   4.528   8.246  0.0196  0.0279 -0.1560
18574W        W22974  11.451   6.100  17.604  0.0582 -0.1790  0.3761
18575W        W22975   1.746   5.970  22.513 -0.0046 -0.0085 -0.0352
18576W        W22976  28.878   4.565   1.939  0.1280  0.0307  0.3002
18577W        W22977   5.814   3.280  24.364 -0.0052 -0.1376 -0.0284
18578W        W22978   4.055   3.649  25.457  0.0807  0.2342 -0.0192
18579W        W22979  18.351   2.105   2.018  0.3129  0.0760  0.1104
18580W        W22980  31.073   2.272   0.255  0.0558 -0.1816 -0.0712
18581W        W22981   7.584   6.055  25.893  0.2422  0.2085  0.0905
18582W        W22982   1.515   0.028  18.725  0.2433  0.2596  0.1123
18583W        W22983  10.097   3.496  15.920  0.2286  0.1729 -0.2148
18584W        W22984  25.053   1.475   4.385 -0.0184  0.0222 -0.0813
18585W        W22985   9.650   0.969  22.541  0.0881  0.2306  0.2157
18586W        W22986   6.997   7.111   0.579  0.0468 -0.0293 -0.1947
18587W        W22987  19.501   2.209   6.779 -0.0871  0.1745  0.2165
18588W        W22988  11.860   0.373   4.772  0.3546 -0.0192  0.0066
18589W        W22989  20.628   7.128   1.637  0.1960  0.1164  0.1016
18590W        W22990   0.827   1.707  10.328  0.2191  0.0495  0.1876
18591W        W22991  12.015   5.166   7.151 -0.3440  0.2334 -0.0573
18592W        W22992  10.999   4.680  16.685 -0.0763  0.0083 -0.1309
18593W        W22993  28.662   1.073   5.562 -0.0217  0.2028 -0.4195
18594W        W22994  10.331   6.727   0.791  0.0651  0.1063  0.2107
18595W        W22995  15.652   6.624  19.364  0.0687  0.0811 -0.2590
18596W        W22996  15.411   4.130  18.678 -0.0690 -0.1035 -0.1060
18597W        W22997  29.336   3.092  11.541  0.1639  0.1558 -0.1868
18598W        W22998  23.371   5.509  21.375  0.0480  0.5325 -0.1500
18599W        W22999  11.028   5.987   4.539  0.1153  0.0205  0.0548
18600W        W23000  26.238   0.888  25.359 -0.0235 -0.0400  0.0478
18601W        W23001  25.331   3.169  20.961  0.0310 -0.1444 -0.3820
18602W        W23002  20.271   0.358  22.455  0.2590 -0.2595 -0.0159
18603W        W23003  17.806   2.472  24.590  0.0922  0.0754  0.1086
18604W        W23004  24.613   1.213  16.424 -0.1845 -0.0183  0.0216
18605W        W23005  17.847   0.723   5.803 -0.0332  0.2256 -0.0333
18606W        W23006  15.271   1.656  16.427  0.0306 -0.0699 -0.1384
18607W        W23007  28.145   2.173   7.762  0.2229  0.0497 -0.1371
18608W        W23008   4.800   3.810  16.477 -0.3629 -0.1685  0.0701
18609W        W23009   0.661   0.102   1.622 -0.0631  0.2845  0.2304
18610W        W23010  12.636   0.884   6.007  0.0156 -0.1200 -0.1012
18611W        W23011  17.665   7.358  18.733 -0.1558  0.1175  0.3225
18612W        W23012  27.307   7.715  22.803 -0.2260 -0.1599  0.0578
18613W        W23013   4.207   4.236  23.036  0.1589  0.0574 -0.2178
18614W        W23014   7.141   1.770   5.504  0.1084  0.0084 -0.1454
18615W        W23015  22.519   5.018  19.357 -0.1008  0.1091 -0.1972
18616W        W23016  28.005   0.662   5.040 -0.3529 -0.0327 -0.1118
18617W        W23017  10.610   4.003   8.094 -0.0911 -0.0908  0.1247
18618W        W23018  12.693   7.635   9.146 -0.1379 -0.1934  0.0473
18619W        W23019   5.788   0.147  22.548 -0.2739 -0.0546  0.3687
18620W        W23020  14.884   4.985   2.115 -0.0087 -0.0917  0.0974
18621W        W23021  14.744   0.456  21.951 -0.0643  0.3151 -0.1344
18622W        W23022   3.523   3.578   8.089 -0.0393  0.0080 -0.1031
18623W        W23023  25.839   0.092  23.260 -0.1726 -0.0088  0.1022
18624W        W23024  23.553   7.056   1.856  0.0911  0.1029 -0.0115
18625W        W23025  29.045   6.779   7.974 -0.1889 -0.0258 -0.3108
18626W        W23026  26.648   2.176   7.012  0.3125 -0.1791 -0.2590
18627W        W23027   3.425   0.991   3.160  0.0788 -0.0569 -0.0182
18628W        W23028  18.307   1.369  24.700 -0.1276 -0.1097 -0.0353
18629W        W23029   6.427   6.647  10.212  0.1752 -0.0466 -0.1588
18630W        W23030  19.593   4.959   3.674  0.2346 -0.1009 -0.1272
18631W        W23031  15.885   3.117   6.291 -0.3886  0.2961 -0.4639
18632W        W23032   9.888   0.157   5.474 -0.1591  0.0134 -0.0634
18633W        W23033  26.928   5.030  19.624  0.3096  0.1359  0.0471
18634W        W23034   0.972   4.055  16.268  0.2331  0.0883 -0.0924
18635W        W23035  10.936   5.019   5.583 -0.4349  0.1018 -0.3779
18636W        W23036  15.785   1.237   8.846  0.0643  0.2955  0.1370
18637W        W23037  19.365   5.481   0.016 -0.3586  0.2341  0.0930
18638W        W23038  28.696   1.531  25.714  0.0142  0.0682  0.0783
18639W        W23039  29.447   3.902  11.091 -0.2427 -0.0249 -0.0320
18640W        W23040  26.008   1.273  15.596  0.0654 -0.1060  0.2619
18641W        W23041  22.739   0.192   3.304  0.0648 -0.2925 -0.3546
18642W        W23042  22.360   0.573   9.668 -0.0962  0.1561  0.0745
18643W        W23043   7.280   3.031  19.243 -0.1299 -0.1398  0.1827
18644W        W23044  24.715   6.465   7.290 -0.1401  0.2299  0.1486
18645W        W23045  20.166   4.393  18.701  0.1931 -0.1851 -0.1940
18646W        W23046  17.629   0.975  18.092  0.0800 -0.3756 -0.0110
18647W        W23047  19.702   2.882  16.410 -0.3012 -0.0066 -0.0497
18648W        W23048  19.187   6.090  15.116 -0.2230 -0.0811 -0.1700
18649W        W23049   5.067   4.718   9.950 -0.0904 -0.0760  0.0055
18650W        W23050   9.099   6.618   6.320  0.1473  0.2124 -0.0012
18651W        W23051  18.120   5.676   8.335 -0.1170  0.0097 -0.2013
18652W        W23052  20.017   1.543   8.469  0.1904  0.1151  0.0241
18653W        W23053  26.634   5.309   2.068 -0.0087 -0.0576  0.2105
18654W        W23054   0.513   4.121   0.419 -0.0830 -0.0721 -0.0493
18655W        W23055   4.118   2.687   4.164 -0.2340 -0.0939  0.0188
18656W        W23056  17.677   3.773  25.475  0.1624 -0.0131 -0.0149
18657W        W23057  30.359   3.955  22.159 -0.0090  0.3737 -0.0592
18658W        W23058   1.732   5.993  24.432 -0.1370 -0.1641  0.1497
18659W        W23059  22.469   0.734  19.100 -0.4045 -0.1800  0.2098
18660W        W23060   7.276   3.453  21.484 -0.1714 -0.2579  0.2559
18661W        W23061   4.806   2.748   1.320 -0.0158  0.0326  0.0305
18662W        W23062  13.581   3.340  15.782  0.0046 -0.2447  0.1882
18663W        W23063  17.691   4.453  17.838  0.4344 -0.0069  0.0934
18664W        W23064   6.604   3.729   2.549  0.1344  0.2390 -0.0086
18665W        W23065  17.117   4.768  20.455 -0.3330  0.1148 -0.0101
18666W        W23066   1.003   6.781   0.047 -0.0090 -0.2669 -0.3495
18667W        W23067  25.259   3.834  19.573  0.3883 -0.1420  0.0835
18668W        W23068  19.763   2.342  15.826 -0.2322 -0.2847  0.4462
18669W        W23069  21.685   3.920   9.205  0.1471 -0.2005 -0.0171
18670W        W23070  27.576   2.145  19.259 -0.1554 -0.2361  0.3019
18671W        W23071  25.443   7.450  20.429  0.2621  0.0219  0.0600
18672W        W23072   3.223   2.219   4.357  0.0931  0.2064 -0.3142
18673W        W23073  19.655   1.825  23.248  0.3866  0.4969  0.1522
18674W        W23074  16.641   6.676  11.052 -0.2391  0.4787 -0.0780
18675W        W23075   6.497   7.093   5.493  0.0380  0.1816  0.0927
18676W        W23076   4.193   3.064   3.266  0.1623  0.1414 -0.0078
18677W        W23077   4.262   1.909   3.126  0.1629  0.1273 -0.0811
18678W        W23078   2.673   5.969  23.868 -0.1830  0.1293  0.1910
18679W        W23079  26.818   6.707   6.948 -0.1465 -0.1249 -0.2970
18680W        W23080   9.383   6.448  18.624  0.0402 -0.0288  0.0656
18681W        W23081  18.389   5.571   7.012  0.1505 -0.0390 -0.0901
18682W        W23082  10.738   5.393   1.899 -0.0413 -0.0662  0.0998
18683W        W23083   7.975   5.949  19.930 -0.1610  0.1197  0.2049
18684W        W23084   4.850   2.404  23.975  0.2792  0.0704  0.0022
18685W        W23085  20.949   3.445   3.058 -0.1039 -0.0061 -0.1886
18686W        W23086   4.765   7.390  20.483 -0.1113  0.1183  0.0419
18687W        W23087  10.872   4.668  23.750  0.1150 -0.0870  0.0865
18688W        W23088   4.330   5.537   0.188 -0.2604 -0.0119 -0.4292
18689W        W23089  11.721   7.512  23.411 -0.0256  0.1733 -0.2717
18690W        W23090   1.846   3.322  24.178 -0.0272 -0.0888 -0.0432
18691W        W23091  16.355   5.363  15.035  0.0291 -0.2514 -0.1840
18692W        W23092   3.460   6.966  23.937  0.2002  0.0731 -0.0996
18693W        W23093  13.820   3.405  16.658  0.0638 -0.1118  0.2109
18694W        W23094  15.376   3.475   3.470  0.2377  0.1324  0.0087
18695W        W23095  17.390   3.722   5.990 -0.1210 -0.0032  0.1470
18696W        W23096  10.046   7.764  19.139  0.1756  0.1422  0.0296
18697W        W23097  27.312   2.840   9.403 -0.4242  0.1361  0.2046
18698W        W23098  28.630   2.899  23.832 -0.0689 -0.1950  0.1001
18699W        W23099   7.938   6.866   2.936  0.1944 -0.1131  0.1221
18700W        W23100   5.539   2.245   4.042  0.0920 -0.1287  0.1300
18701W        W23101   8.484   4.932  24.974  0.2440 -0.2417 -0.0839
18702W        W23102   1.321   1.682   2.654 -0.0631 -0.0387 -0.0178
18703W        W23103  11.370   2.079  22.388  0.0870  0.2001 -0.1308
18704W        W23104  15.451   7.224   6.285  0.0911 -0.2089 -0.0192
18705W        W23105   7.220   1.560   8.863  0.0771  0.0871  0.1104
18706W        W23106  21.676   4.627  17.924 -0.2094 -0.0227 -0.1335
18707W        W23107   1.985   2.902  19.774 -0.0022  0.2443 -0.2952
18708W        W23108  19.659   3.988   1.943 -0.1080 -0.0942  0.1959
18709W        W23109  10.770   5.538   5.859  0.5232 -0.1494 -0.3319
18710W        W23110  17.152   7.347   8.904  0.1521 -0.1146 -0.0783
18711W        W23111  21.132   3.717   2.042  0.0318 -0.0431  0.1506
18712W        W23112   8.979   4.002   4.663  0.3316  0.0155  0.0874
18713W        W23113  12.744   1.154   0.458 -0.1061 -0.0760  0.1298
18714W        W23114  13.220   3.136  10.446  0.1831 -0.1762  0.0862
18715W        W23115  24.967   1.618  23.267  0.0811  0.1818  0.2693
18716W        W23116  16.116   3.724   9.533  0.2347  0.1030 -0.0083
18717W        W23117  11.008   7.727   5.692 -0.1307  0.0415 -0.2187
18718W        W23118  12.593   0.525  10.332 -0.0927  0.0851  0.0749
18719W        W23119   7.907   3.680   2.507  0.0147  0.0015  0.3022
18720W        W23120  21.188   1.297   4.067 -0.4318  0.2358  0.2151
18721W        W23121   4.649   2.581  23.580 -0.0494  0.1132 -0.2228
18722W        W23122  15.167   4.122   0.780  0.0110  0.0083 -0.1465
18723W        W23123  19.442   6.656   8.578 -0.0591 -0.2029 -0.1832
18724W        W23124  25.958   6.929  17.335 -0.0345  0.2775 -0.0427
18725W        W23125  18.626   0.408  18.617 -0.1276 -0.1927  0.0127
18726W        W23126  12.652   6.260   9.570  0.2086  0.0761 -0.2427
18727W        W23127   2.278   3.531   8.793 -0.3551  0.1458 -0.1147
18728W        W23128   7.044   6.684   8.771  0.0478 -0.0986 -0.0042
18729W        W23129  21.412   6.015   6.838  0.2970 -0.1423 -0.2371
18730W        W23130   9.356   3.154  16.867 -0.2967 -0.0833  0.1764
18731W        W23131   6.042   6.886  19.370  0.0085 -0.3265  0.0378
18732W        W23132  14.593   4.219  24.171 -0.1153  0.0345 -0.1927
18733W        W23133   2.685   1.096   9.286 -0.0562  0.1936 -0.0243
18734W        W23134  23.417   2.535   6.970 -0.0511 -0.2583  0.0268
18735W        W23135  16.982   6.291   2.178  0.1213 -0.0743 -0.0220
18736W        W23136  24.160   0.396  25.052 -0.0407  0.0624 -0.0954
18737W        W23137  20.263   3.006  15.535 -0.1765 -0.1198  0.0498
18738W        W23138   4.640   5.714   5.112 -0.0929 -0.1800 -0.2823
18739W        W23139  13.432   6.401   0.391  0.0701 -0.1375  0.0693
18740W        W23140  19.863   2.874   4.277 -0.0488  0.0852  0.1229
18741W        W23141  14.860   2.864  22.171  0.2017 -0.4859  0.2210
18742W        W23142  17.824   4.829  10.272  0.1240 -0.4191 -0.0638
18743W        W23143   3.468   7.741   9.016  0.2048  0.0066 -0.0205
18744W        W23144   1.280   3.740   2.746  0.0391 -0.0492 -0.0670
18745W        W23145  15.456   0.512  15.822 -0.4891 -0.0023 -0.2809
18746W        W23146   9.169   4.201   2.522 -0.3002  0.1179 -0.1989
18747W        W23147  12.892   4.648   8.072 -0.1395  0.0062 -0.2021
18748W        W23148  16.149   5.428   9.797  0.0219  0.2354  0.3213
18749W        W23149   3.270   4.595  19.918  0.1409 -0.0480 -0.1788
18750W        W23150  23.664   6.088   8.066 -0.0115  0.1617 -0.2730
18751W        W23151  13.723   5.498   0.165  0.0623 -0.1433  0.1188
18752W        W23152  15.232   5.034  17.968  0.1793 -0.2149 -0.3130
18753W        W23153  20.912   7.804  16.044 -0.0042  0.3863 -0.2291
18754W        W23154  17.356   5.562   6.754 -0.1289  0.1140 -0.0241
18755W        W23155  26.540   6.567   2.847  0.1498 -0.0565  0.2626
18756W        W23156  21.346   2.254  23.692  0.0306 -0.0661  0.2900
18757W        W23157  13.558   7.260   9.405  0.1958  0.2066  0.2117
18758W        W23158   3.131   0.626  20.001  0.0355  0.3578 -0.1616
18759W        W23159  23.856   3.012  22.912  0.3366 -0.1060 -0.0960
18760W        W23160  15.891   2.482   7.998  0.0194  0.0090 -0.1119
18761W        W23161  22.316   1.912  21.138 -0.1491  0.2140 -0.0609
18762W        W23162  12.078   3.278  24.750  0.5687  0.0890  0.0344
18763W        W23163  27.674   7.188  24.514  0.0044  0.1024  0.2386
18764W        W23164  26.772   1.001   9.672  0.0536  0.2143  0.0414
18765W        W23165  26.499   1.433  25.239  0.0555  0.4913 -0.1601
18766W        W23166   6.572   2.745  22.096 -0.1283  0.0788  0.0502
18767W        W23167   2.661   3.692   1.018  0.0399  0.3412 -0.0720
18768W        W23168  14.128   5.882  21.855  0.1780 -0.3284  0.1008
18769W        W23169  30.329   2.185  24.713 -0.0654 -0.0062  0.1895
18770W        W23170  16.964   5.687   6.458  0.1390 -0.0715  0.1354
18771W        W23171  25.869   4.877   2.413 -0.0330 -0.1579  0.0673
18772W        W23172  15.396   6.958   4.291 -0.1643 -0.1877 -0.2176
18773W        W23173  23.849   0.559  19.189 -0.0234  0.2696 -0.1391
18774W        W23174   6.152   3.037   3.683 -0.0657 -0.4173 -0.0906
18775W        W23175  14.642   5.864   7.943  0.1088  0.2087 -0.1135
18776W        W23176   0.423   2.125   2.258  0.0317 -0.2557 -0.0167
18777W        W23177   2.133   0.053   4.843 -0.0084 -0.1136 -0.0171
18778W        W23178  21.978   7.360   8.456 -0.0503 -0.1171  0.2270
18779W        W23179  12.627   7.739   2.282  0.1118  0.0059 -0.2762
18780W        W23180  11.472   2.646  22.394  0.1512 -0.0260  0.0399
18781W        W23181   3.723   4.919  22.711 -0.0224  0.2021  0.0197
18782W        W23182  26.926   4.675  15.015 -0.0730  0.1538  0.0390
18783W        W23183  31.194   3.270   5.271 -0.0141 -0.1512 -0.0655
18784W        W23184   4.172   2.734   2.228 -0.0522  0.2217  0.1636
18785W        W23185  30.233   2.468  18.830 -0.1354  0.2496  0.3553
18786W        W23186   3.721   5.450   2.932  0.0433 -0.2443 -0.1460
18787W        W23187   6.525   1.992  26.052 -0.1025  0.0658  0.3224
18788W        W23188  16.855   2.008  25.395 -0.3354  0.1075  0.0326
18789W        W23189  16.014   6.911  10.558 -0.0550 -0.0851 -0.0438
18790W        W23190  21.785   2.806  24.353  0.0787 -0.0785  0.0481
18791W        W23191  20.398   5.986  23.800  0.1384  0.0206  0.0025
18792W        W23192  27.586   3.253  20.459 -0.1379  0.0744 -0.4623
18793W        W23193  16.421   4.791   5.515  0.1786  0.1464 -0.1080
18794W        W23194  18.897   6.504   0.725 -0.0318 -0.0507  0.3332
18795W        W23195   1.411   1.988  18.987  0.1133 -0.0996  0.0151
18796W        W23196  22.728   2.559   1.690 -0.4844 -0.0466  0.0536
18797W        W23197  24.161   2.929  19.052 -0.1397 -0.2894 -0.3155
18798W        W23198   0.906   1.842  19.092 -0.2820 -0.0226 -0.0080
18799W        W23199   9.784   7.768   6.265 -0.0327  0.1588  0.0835
18800W        W23200  18.852   1.695  18.547  0.1797  0.1555 -0.1474
18801W        W23201  11.857   2.423   3.044 -0.0747 -0.0260  0.0301
18802W        W23202  19.243   4.249  25.338  0.0257  0.2129 -0.0545
18803W        W23203  26.738   6.620  20.740  0.1840  0.0786  0.1461
18804W        W23204  13.150   3.402   3.494  0.1284 -0.2430 -0.0754
18805W        W23205  22.810   2.188  20.975 -0.0394 -0.0271  0.1911
18806W        W23206   6.549   5.002  18.016 -0.2845  0.0227 -0.1092
18807W        W23207   7.925   0.828   9.556  0.1372 -0.2810 -0.0414
18808W        W23208   7.225   2.690   9.440 -0.0652 -0.0428  0.2206
18809W        W23209  19.614   6.109  17.618  0.0296  0.1372 -0.0681
18810W        W23210   7.703   3.654  16.974  0.3224  0.1789  0.0970
18811W        W23211   3.760   5.465   9.993  0.1805 -0.3076 -0.1697
18812W        W23212  22.630   7.578   1.562 -0.1398  0.2130 -0.0541
18813W        W23213  27.875   3.700  17.365  0.1529  0.4331 -0.2597
18814W        W23214  10.031   1.366   5.319  0.0829  0.1470 -0.3626
18815W        W23215  18.781   4.830  25.818 -0.0612 -0.2211  0.2454
18816W        W23216  29.260   3.665   9.191 -0.0317  0.0561 -0.0535
18817W        W23217  25.869   0.153  19.976  0.2016 -0.1713  0.2496
18818W        W23218  10.317   1.462   6.974  0.0450  0.0342  0.2652
18819W        W23219   2.370   4.258   1.695  0.1718 -0.2159  0.1784
18820W        W23220  29.034   5.738  20.605  0.0244 -0.1518 -0.2950
18821W        W23221   9.287   3.997  22.558  0.1029  0.3058  0.2757
18822W        W23222   4.950   6.585   3.647 -0.2847  0.0749 -0.3405
18823W        W23223  18.412   7.373  25.082  0.0688  0.4845  0.0664
18824W        W23224  17.881   5.478  22.796  0.0978 -0.0735  0.2634
18825W        W23225  29.917   4.137  11.064  0.1254  0.0640  0.0563
18826W        W23226  26.937   1.457   5.348 -0.0491 -0.3044 -0.1901
18827W        W23227   3.002   4.307  20.213 -0.0431 -0.1925 -0.3908
18828W        W23228  16.564   2.547   2.299 -0.0357 -0.0716  0.2068
18829W        W23229  27.670   3.592  18.267  0.0548 -0.0720 -0.1487
18830W        W23230  21.351   1.964  19.306  0.1584 -0.3833 -0.0788
18831W        W23231  29.252   6.639  24.180 -0.2856  0.1477 -0.1524
18832W        W23232  16.169   5.720  20.456 -0.0984  0.0342 -0.0223
18833W        W23233  14.746   3.881  10.328 -0.2420 -0.0546 -0.2040
18834W        W23234  29.040   6.484   5.082  0.0945  0.3136  0.0739
18835W        W23235   9.108   0.854  15.611  0.2460  0.0561  0.0126
18836W        W23236  26.998   5.083  22.543 -0.0884  0.1989  0.0505
18837W        W23237  17.691   0.758  15.518 -0.2724 -0.0365 -0.0437
18838W        W23238  25.346   5.675  10.420 -0.2923 -0.1600  0.0824
18839W        W23239  16.376   7.222   3.112  0.1052 -0.1483  0.0074
18840W        W23240  31.246   5.177   1.802 -0.1963 -0.0355 -0.0623
18841W        W23241  30.299   1.736  24.993 -0.0759  0.2112  0.4017
18842W        W23242  13.704   7.421  18.093  0.0969 -0.1246  0.3553
18843W        W23243  15.366   3.898   9.246  0.0679  0.1594  0.2438
18844W        W23244   1.251   6.818  16.963  0.0781  0.1747  0.1644
18845W        W23245  13.529   7.613   5.537 -0.2060  0.1516 -0.3683
18846W        W23246  22.754   0.690  20.627 -0.2372 -0.1842  0.0151
18847W        W23247   7.478   4.720  18.804 -0.2651 -0.0785 -0.0406
18848W        W23248  30.732   0.179   6.592 -0.0408  0.0999 -0.0267
18849W        W23249  24.979   7.629   4.999  0.1637  0.0561 -0.0577
18850W        W23250  29.546   2.779  20.176  0.0227 -0.1988 -0.1590
18851W        W23251   4.117   0.030   5.582 -0.0749 -0.1497 -0.0310
18852W        W23252  29.676   3.151   4.739  0.2040 -0.2205 -0.5621
18853W        W23253  16.077   6.146   2.058  0.2070  0.0536  0.2545
18854W        W23254  25.342   6.080   3.613 -0.3684  0.3526 -0.2607
18855W        W23255  11.117   7.814   1.455 -0.0160 -0.2950 -0.1785
18856W        W23256  23.053   3.368   2.247 -0.0290 -0.0502  0.0038
18857W        W23257  29.617   5.089  24.655 -0.0046 -0.0837  0.1734
18858W        W23258  20.870   4.173  15.899 -0.0809  0.1037 -0.0245
18859W        W23259   6.338   6.854  22.730 -0.1270 -0.0287 -0.0103
18860W        W23260   7.930   1.745  22.118 -0.0711  0.2096 -0.0730
18861W        W23261  13.804   2.646  15.737 -0.2903  0.2531  0.0412
18862W        W23262  19.033   7.115  10.778 -0.1229  0.0850  0.1045
18863W        W23263  17.175   2.774  20.839 -0.1389  0.1684  0.0232
18864W        W23264  31.024   6.778  10.160 -0.2051  0.2498  0.0256
18865W        W23265  26.010   0.728   1.887  0.2001  0.1308  0.0447
18866W        W23266  23.209   7.321   9.430  0.3455 -0.1348  0.3391
18867W        W23267  26.761   3.706   8.883 -0.0426  0.1228 -0.0030
18868W        W23268  20.259   3.851  23.477  0.1418  0.0057 -0.0775
18869W        W23269   6.116   2.732   5.979  0.0764  0.0981 -0.1774
18870W        W23270   0.579   4.869  10.093 -0.2900  0.1154 -0.0231
18871W        W23271  15.000   3.286   2.309 -0.1430  0.2699  0.1723
18872W        W23272  17.044   3.495  16.822  0.1134 -0.1209  0.1415
18873W        W23273   2.677   5.375  21.479 -0.0116  0.0455 -0.0213
18874W        W23274  21.402   4.495   2.939  0.0867  0.1898  0.0346
18875W        W23275  16.873   4.934  17.724  0.1744 -0.0156 -0.2680
18876W        W23276  16.816   6.151  24.352  0.0223 -0.1752 -0.2738
18877W        W23277   1.553   7.382  24.729 -0.1163 -0.0488  0.0141
18878W        W23278  18.964   0.753   5.752  0.0153  0.0843  0.2075
18879W        W23279  11.012   5.159   2.763  0.1509  0.1339  0.2901
18880W        W23280   7.433   6.578   5.513  0.2479 -0.0474  0.2503
18881W        W23281  15.431   6.752   6.523  0.0615 -0.0285  0.0396
18882W        W23282  25.431   4.229  21.993  0.0579 -0.0262 -0.4834
18883W        W23283   2.173   2.999   4.897 -0.0313  0.0579 -0.1916
18884W        W23284   6.208   0.065  22.280 -0.1675  0.0417 -0.1168
18885W        W23285  11.955   2.846  23.226 -0.1441 -0.1761  0.1315
18886W        W23286  18.616   6.035   1.403 -0.2187  0.1314 -0.2457
18887W        W23287  12.387   6.173  19.403  0.0088  0.2855  0.0395
18888W        W23288  12.463   7.071   9.651 -0.1520 -0.1241  0.0225
18889W        W23289  10.950   1.131  10.548  0.0967 -0.0367 -0.0719
18890W        W23290  13.246   7.786   1.770 -0.0155  0.1748  0.1987
18891W        W23291  13.886   4.028   4.253  0.1150 -0.2633  0.1098
18892W        W23292   8.973   0.593  16.554 -0.1557 -0.0401 -0.0221
18893W        W23293  22.435   0.070  20.719 -0.1503 -0.1753 -0.1690
18894W        W23294  22.229   5.204  25.655 -0.0476 -0.2341 -0.1262
18895W        W23295  29.931   6.239   8.205 -0.0570  0.2777  0.1097
18896W        W23296  12.249   5.381  19.485  0.1847  0.1187 -0.1092
18897W        W23297  25.699   1.360  24.742 -0.1852 -0.2689 -0.1391
18898W        W23298  24.486   4.900  23.735 -0.0747  0.0661 -0.1803
18899W        W23299  12.259   4.391   4.263  0.1063 -0.0108  0.2681
18900W        W23300  29.469   3.619  10.389  0.0817 -0.1489  0.2405
18901W        W23301   3.167   2.169   2.497  0.2319  0.1465  0.1709
18902W        W23302  23.591   5.780  25.757  0.0315  0.1245  0.0989
18903W        W23303   5.805   3.918   1.797 -0.3122  0.0034 -0.2301
18904W        W23304   9.138   4.012  10.092 -0.0839 -0.0097  0.0753
18905W        W23305   5.969   1.965  20.489  0.2440 -0.2734 -0.0052
18906W        W23306   9.712   2.648   6.790  0.0202  0.0345 -0.0450
18907W        W23307  23.787   5.085  15.935  0.1589 -0.0233 -0.1449
18908W        W23308  30.703   5.785   2.330  0.0168 -0.2806  0.2002
18909W        W23309  21.309   0.211  25.596 -0.1939 -0.1732 -0.2767
18910W        W23310  26.734   0.520   9.556 -0.0425 -0.1841 -0.0630
18911W        W23311  29.052   1.781  19.025 -0.0091  0.3119 -0.0640
18912W        W23312   2.220   7.675   8.942  0.0803  0.2301 -0.1972
18913W        W23313   4.711   3.992  17.058  0.0543  0.2720 -0.2334
18914W        W23314  10.779   3.935   2.087 -0.0105 -0.0475 -0.0274
18915W        W23315   9.029   2.771  16.692 -0.2548 -0.2053  0.1323
18916W        W23316   3.437   7.091   9.329  0.2716  0.1657  0.1030
18917W        W23317  24.984   6.414   8.313  0.0143  0.0349  0.2436
18918W        W23318   8.751   4.633  14.615  0.0385 -0.5606  0.5258
18919W        W23319  25.619   5.958   9.303  0.2167  0.1849  0.2515
18920W        W23320   1.395   6.476   6.726 -0.0321 -0.0102 -0.1813
18921W        W23321  25.682   4.802  22.331 -0.0449  0.2232 -0.2214
18922W        W23322  28.424   6.476  24.684  0.0232  0.0581  0.1402
18923W        W23323   2.165   4.866   2.533  0.1553  0.0581 -0.0303
18924W        W23324  19.400   6.412  26.050  0.0176  0.4685  0.2042
18925W        W23325  22.135   3.622  23.891  0.0120  0.1122  0.1802
18926W        W23326   6.561   7.102   1.320 -0.0695  0.3001 -0.0558
18927W        W23327  12.925   2.766  10.798 -0.1554  0.0964 -0.3215
18928W        W23328  22.556   4.876  10.513 -0.0470  0.1765  0.0347
18929W        W23329  24.440   6.315  25.317  0.0696  0.1308 -0.0766
18930W        W23330   1.542   2.392  18.260  0.2948 -0.2340  0.0589
18931W        W23331   3.858   1.954   5.998 -0.0170  0.0845 -0.3532
18932W        W23332  27.668   0.815   5.428 -0.3589 -0.2548  0.1407
18933W        W23333  20.996   3.834  22.474  0.2981  0.0247 -0.1012
18934W        W23334  16.026   1.890   6.489  0.1291 -0.0370 -0.0826
18935W        W23335  23.828   7.335   5.654  0.1572  0.0616 -0.1150
18936W        W23336  15.891   6.692  14.873 -0.2469  0.0663  0.4251
18937W        W23337   3.269   7.780   0.352  0.0620  0.0249  0.0969
18938W        W23338  12.878   0.222   9.942 -0.1499 -0.2620 -0.0733
18939W        W23339  20.438   6.081  18.124 -0.2333  0.0565 -0.0112
18940W        W23340  31.190   6.799  20.522 -0.2480 -0.0068  0.4477
18941W        W23341   2.668   3.985   2.265 -0.1199  0.1187  0.2083
18942W        W23342  12.025   6.429  15.861 -0.1181  0.0095  0.0672
18943W        W23343  16.737   5.984   6.137  0.2117 -0.1098 -0.1095
18944W        W23344   7.170   1.981   4.126  0.1973 -0.1815 -0.2473
18945W        W23345   1.832   6.165  25.685 -0.2495 -0.0738  0.1775
18946W        W23346  20.059   5.112   4.083 -0.1624  0.0584 -0.0692
18947W        W23347  22.561   5.498  17.808  0.1857 -0.0404 -0.1106
18948W        W23348   7.389   2.182  18.182  0.2345  0.0427 -0.0040
18949W        W23349  28.509   3.735  25.817  0.0152 -0.4486  0.1899
18950W        W23350   1.318   7.242  23.880  0.0489  0.1970 -0.1199
18951W        W23351  20.938   3.722  24.372 -0.1429 -0.0947 -0.3016
18952W        W23352  12.894   7.745   0.370  0.1318 -0.0756  0.1497
18953W        W23353  19.198   5.659   1.878 -0.0265 -0.2571 -0.0962
18954W        W23354  27.085   5.875  15.900 -0.0147 -0.1784 -0.1591
18955W        W23355  15.406   4.307   1.551 -0.0020 -0.3770 -0.3486
18956W        W23356   6.564   2.481  23.926  0.1599 -0.1127  0.1680
18957W        W23357  27.896   6.801   0.646  0.0399  0.1614 -0.4747
18958W        W23358   2.380   7.684  18.300  0.0149 -0.1480 -0.1944
18959W        W23359  22.714   7.730   8.670  0.2847  0.1946 -0.1032
18960W        W23360   8.455   7.339   4.274 -0.3412  0.2815  0.1983
18961W        W23361  19.391   6.836   6.592 -0.2120  0.2054 -0.4247
18962W        W23362  25.126   0.925   8.490  0.2857  0.1321  0.2121
18963W        W23363  12.771   7.486   0.877 -0.3026  0.0008  0.2093
18964W        W23364  21.064   5.570   1.360  0.3931  0.1495 -0.0255
18965W        W23365  14.841   5.058  16.563 -0.0665  0.2170 -0.0266
18966W        W23366   8.909   1.498   0.302 -0.2223  0.0396 -0.1300
18967W        W23367  10.965   7.157   1.831 -0.3298  0.1333  0.0401
18968W        W23368   5.535   2.063  20.698  0.0462 -0.0428  0.0961
18969W        W23369  16.097   0.455   5.343  0.1332 -0.3596 -0.1965
18970W        W23370  20.479   6.076  21.066  0.1804  0.1121  0.3900
18971W        W23371   7.489   4.717   8.116  0.0401 -0.0660  0.1424
18972W        W23372   2.960   3.804  24.652 -0.2109  0.1237 -0.3021
18973W        W23373  22.833   1.055   3.228  0.0363 -0.0391  0.2854
18974W        W23374  27.750   5.405  15.739 -0.0996  0.1774  0.3473
18975W        W23375  19.085   6.730   7.836 -0.1740 -0.1332 -0.0495
18976W        W23376   7.022   5.944  20.521  0.0887  0.2129 -0.0550
18977W        W23377  23.383   2.053   7.460 -0.1775  0.0403  0.3177
18978W        W23378  24.661   3.742  20.499 -0.1387 -0.0791 -0.0927
18979W        W23379  25.300   0.371   1.951  0.3355 -0.1831 -0.1655
18980W        W23380  22.064   3.254  21.581  0.0911 -0.0828 -0.0391
18981W        W23381  19.806   2.772  20.450 -0.0616  0.1449  0.1577
18982W        W23382  15.163   2.582   3.197 -0.3388 -0.0471 -0.2890
18983W        W23383   4.962   6.478   6.568  0.0338  0.2229 -0.0688
18984W        W23384   1.076   3.900   3.194 -0.4376  0.1847 -0.1641
18985W        W23385  12.020   3.877   7.021  0.1196  0.0849 -0.2442
18986W        W23386  27.047   6.908  25.949 -0.3377 -0.0088 -0.1230
18987W        W23387   7.689   3.938  24.185 -0.2650 -0.3220  0.1382
18988W        W23388   3.746   2.640  20.922  0.2071  0.2927 -0.0639
18989W        W23389   6.170   2.931  19.639  0.0564 -0.2757  0.1654
18990W        W23390  14.618   2.880   6.489  0.0393 -0.0011 -0.1092
18991W        W23391  17.149   1.389   2.391  0.0491 -0.1996 -0.3454
18992W        W23392   3.980   5.297  23.512 -0.2242  0.2824 -0.1405
18993W        W23393  23.729   6.696  18.043  0.3297  0.1541 -0.0458
18994W        W23394  25.995   2.739   8.707 -0.5115  0.2256 -0.0101
18995W        W23395  16.371   5.746  20.976 -0.1653  0.0817  0.2791
18996W        W23396  30.602   4.434   1.337  0.0190 -0.1478 -0.3035
18997W        W23397  18.813   1.307  22.863  0.0819  0.0001  0.2038
18998W        W23398  15.232   2.242  23.799 -0.0912 -0.0457 -0.0484
18999W        W23399  13.085   2.679   6.500 -0.1875 -0.0399  0.0496
19000W        W23400  14.110   5.758  24.382  0.0184  0.0162 -0.3894
19001W        W23401   4.880   5.683  17.576  0.2383 -0.0230  0.0872
19002W        W23402  13.041   5.414   5.509  0.0120 -0.3450 -0.3466
19003W        W23403  23.258   3.433   9.513  0.2235  0.2902 -0.0337
19004W        W23404  16.929   1.611  19.249 -0.0519 -0.0624  0.1788
19005W        W23405   1.244   4.217  21.457  0.2113  0.0696  0.1631
19006W        W23406  28.902   3.018  21.900 -0.0798 -0.0409  0.2144
19007W        W23407   5.643   7.035   6.744 -0.0125  0.1854 -0.1288
19008W        W23408  12.336   2.707   4.421  0.1220  0.0349 -0.0949
19009W        W23409  23.599   6.985  23.140  0.4185 -0.3479  0.0529
19010W        W23410  18.376   4.506  20.838  0.2726 -0.3261 -0.0137
19011W        W23411  13.249   2.750  25.164  0.2899  0.1281 -0.0231
19012W        W23412   6.997   5.602   9.748 -0.2214 -0.3804  0.2831
19013W        W23413  24.730   1.164  24.492  0.1392  0.2209 -0.3493
19014W        W23414  19.488   0.716  16.484  0.0110  0.2014 -0.1209
19015W        W23415  22.818   4.825  24.764  0.3824  0.0196 -0.0688
19016W        W23416  25.979   6.447  17.536  0.1065  0.0852 -0.0819
19017W        W23417  12.768   0.416  25.293 -0.0981 -0.1563 -0.1127
19018W        W23418  24.556   4.614   0.513 -0.1068  0.0615 -0.0903
19019W        W23419   1.304   4.881   0.640  0.1380  0.1000  0.2111
19020W        W23420  30.617   6.812   9.908 -0.1409 -0.1984  0.1252
19021W        W23421  20.100   4.719  18.309 -0.0716  0.2112  0.0071
19022W        W23422   0.524   0.138  15.975  0.0646  0.2703 -0.0148
19023W        W23423  28.622   2.180   4.257 -0.3075  0.0428  0.1913
19024W        W23424  14.152   1.410   3.616  0.0527 -0.1354 -0.1987
19025W        W23425   2.515   3.778  18.931  0.2044 -0.2708 -0.1347
19026W        W23426  22.551   6.716  24.304 -0.0334  0.1562  0.1744
19027W        W23427  22.046   7.367   7.977  0.1268  0.1660  0.1107
19028W        W23428  28.158   6.053   3.519 -0.0043  0.2779 -0.1113
19029W        W23429  23.193   2.006  10.883  0.0243 -0.0385  0.0173
19030W        W23430  14.164   6.636   4.415  0.1617 -0.1440  0.1457
19031W        W23431  18.413   6.987  19.885 -0.4115  0.0285 -0.0476
19032W        W23432  17.242   4.552  23.848 -0.3458  0.2443  0.1348
19033W        W23433  30.856   3.293  22.064 -0.0761 -0.3033  0.4398
19034W        W23434  21.580   7.002  16.456  0.2251  0.0786 -0.3552
19035W        W23435  20.442   0.053   7.053 -0.0897  0.1875 -0.0596
19036W        W23436  18.871   7.040   2.518 -0.0252 -0.0016  0.1198
19037W        W23437  14.961   7.356  16.202 -0.0529  0.0286  0.0729
19038W        W23438  26.883   2.846   1.734 -0.0230  0.6271  0.2540
19039W        W23439   3.863   2.698  10.117  0.1926 -0.2212  0.2602
19040W        W23440  30.782   6.743   0.199  0.1524  0.2147 -0.0139
19041W        W23441   6.257   0.435   3.455  0.2453  0.1288  0.3664
19042W        W23442   1.841   7.820   8.056 -0.2062 -0.0173  0.0858
19043W        W23443   5.039   2.978  24.129  0.0451  0.6076 -0.0014
19044W        W23444   4.580   0.487  17.629  0.2287 -0.0378  0.0018
19045W        W23445   5.334   6.063  15.537  0.2351 -0.1382  0.0115
19046W        W23446   1.527   3.146  10.791  0.2388 -0.1003  0.2740
19047W        W23447   6.785   6.107   3.341 -0.0905 -0.1611  0.1520
19048W        W23448  16.627   7.526  19.503  0.1227 -0.3073 -0.2540
19049W        W23449  21.494   6.434   5.407  0.2290 -0.2350  0.2180
19050W        W23450   7.472   5.091   4.886 -0.1216 -0.3782  0.0137
19051W        W23451  21.614   0.971  21.092 -0.2688 -0.0063 -0.1887
19052W        W23452  20.575   1.322  21.858 -0.1152 -0.2384 -0.3930
19053W        W23453  18.290   6.726   4.562 -0.4087 -0.3160  0.1826
19054W        W23454   4.455   2.264  17.953  0.0868  0.1788  0.2341
19055W        W23455  30.855   7.772   5.310  0.0179 -0.1666  0.2216
19056W        W23456  21.167   1.980   0.953  0.1861  0.1370 -0.0342
19057W        W23457   9.716   1.327  16.033 -0.0605 -0.2647  0.0668
19058W        W23458  20.221   7.519   7.444  0.0746  0.1240  0.0361
19059W        W23459   8.570   4.254  23.321  0.0791 -0.1522  0.0567
19060W        W23460   4.903   3.606   0.720  0.0607 -0.0015 -0.0799
19061W        W23461  19.712   1.963   1.966  0.0439 -0.0570  0.0556
19062W        W23462   6.051   6.311   0.355 -0.2867 -0.0956  0.3298
19063W        W23463  14.289   7.113  22.256  0.5276 -0.1633 -0.0543
19064W        W23464   9.315   2.211  17.104  0.1134  0.0053 -0.0985
19065W        W23465   0.267   1.559   4.577 -0.3354  0.0477  0.0530
19066W        W23466   1.486   7.625   6.683  0.0643  0.2830  0.1368
19067W        W23467  20.523   0.486   1.915 -0.0946 -0.0534 -0.2652
19068W        W23468  17.024   3.798   4.721  0.0710  0.0759 -0.1635
19069W        W23469   2.709   6.918   3.284  0.0691 -0.1889  0.0153
19070W        W23470  18.576   7.717   9.570  0.0318 -0.1150  0.2228
19071W        W23471  24.704   1.640   8.307  0.1337 -0.3767  0.1109
19072W        W23472  13.095   7.204  25.876 -0.1513 -0.0427  0.1783
19073W        W23473  23.962   6.343  10.847  0.1545 -0.1671  0.2850
19074W        W23474  16.400   3.167   6.214  0.3235 -0.2539 -0.1465
19075W        W23475  25.494   3.690   3.797  0.1853 -0.2366 -0.2379
19076W        W23476   6.890   3.037   0.704  0.0428  0.1705  0.2094
19077W        W23477   7.388   7.598  21.050 -0.0360 -0.0149 -0.1187
19078W        W23478   8.858   2.391  25.503 -0.1383 -0.0005 -0.2380
19079W        W23479  28.465   5.881  17.981  0.2982  0.0525  0.1712
19080W        W23480  26.959   0.336  19.021 -0.3901  0.2055 -0.0968
19081W        W23481   4.120   2.136  16.359  0.1525 -0.2191 -0.0167
19082W        W23482  22.387   3.946   2.011  0.2316  0.5594  0.1454
19083W        W23483  11.329   2.947   8.575  0.2893 -0.0354 -0.0402
19084W        W23484  14.786   1.477   4.588 -0.0275  0.0004 -0.0371
19085W        W23485  10.268   3.965  19.281  0.0317 -0.1323  0.1265
19086W        W23486  23.075   1.934  26.071  0.0934 -0.0144 -0.0232
19087W        W23487  27.888   1.383   5.602 -0.2116  0.4188  0.1062
19088W        W23488  29.830   7.475  10.483 -0.1922 -0.2748 -0.2662
19089W        W23489  28.082   5.491   2.050  0.1510  0.3498  0.0294
19090W        W23490  27.083   3.901   6.937  0.0235  0.2785 -0.1841
19091W        W23491  26.683   0.066  15.225  0.2901  0.1589 -0.2684
19092W        W23492  15.825   0.840   0.372  0.0640 -0.0955  0.0717
19093W        W23493  18.571   0.621  10.993  0.0636 -0.1915 -0.0680
19094W        W23494  13.408   4.667  23.645 -0.0384  0.0375 -0.3620
19095W        W23495  15.531   4.249  10.046  0.0824 -0.0125 -0.2988
19096W        W23496  28.335   0.398  18.244 -0.0988 -0.1036  0.1519
19097W        W23497  13.621   0.436  16.499  0.1382 -0.0315 -0.2455
19098W        W23498  17.285   4.496   5.560 -0.0609 -0.1368  0.0441
19099W        W23499   4.803   3.804   1.709  0.1674  0.0563 -0.2618
19100W        W23500  26.303   5.411  20.314  0.0574 -0.0862  0.2058
19101W        W23501  19.617   0.591   3.702  0.0480 -0.0878 -0.3813
19102W        W23502  24.115   7.250   8.837  0.2571  0.0771 -0.2600
19103W        W23503   2.292   4.271   6.692  0.2377 -0.4346 -0.0310
19104W        W23504   3.805   5.645   0.821 -0.5000 -0.0496  0.0531
19105W        W23505  20.923   0.359   7.756  0.5456 -0.0826 -0.0608
19106W        W23506  21.274   7.105  25.833  0.0624  0.1978  0.2459
19107W        W23507   4.021   5.352  16.488 -0.0262 -0.0067  0.1097
19108W        W23508  23.540   2.912   1.672  0.1676  0.0238  0.1696
19109W        W23509  30.250   5.676  24.014 -0.0111  0.1261 -0.0869
19110W        W23510   8.117   0.029  19.960  0.1225 -0.2342 -0.2231
19111W        W23511  15.265   7.331  18.093  0.0569 -0.0672 -0.3855
19112W        W23512  18.312   4.747   1.667 -0.2545 -0.1933  0.0874
19113W        W23513   1.259   5.432   5.288  0.0463 -0.2779  0.2870
19114W        W23514  12.479   3.409   5.181  0.0349  0.1447  0.2255
19115W        W23515  13.556   0.654   3.289  0.1763  0.0512 -0.3586
19116W        W23516  22.749   2.409  15.723  0.1730 -0.0912  0.1551
19117W        W23517  16.430   6.569  10.423  0.1083  0.2024 -0.0990
19118W        W23518  13.966   1.741  10.025  0.1792  0.1142  0.0802
19119W        W23519  22.488   1.318  24.402  0.1174  0.3367  0.1902
19120W        W23520  25.769   5.374  15.830  0.1398  0.0810  0.0421
19121W        W23521  20.147   5.985  16.367  0.1877  0.1684 -0.0089
19122W        W23522  15.995   1.396  17.068  0.2467  0.0126  0.1899
19123W        W23523   1.556   0.608   7.429 -0.4439  0.0025  0.2761
19124W        W23524  19.108   2.094  23.079 -0.1741 -0.0877  0.4118
19125W        W23525  12.360   5.500  10.004 -0.0737 -0.0975  0.1165
19126W        W23526  11.786   6.311   9.945  0.1328  0.1540  0.2466
19127W        W23527  30.889   2.746   2.738  0.2448  0.2027 -0.0187
19128W        W23528  23.569   2.063  24.302  0.0107 -0.0376  0.2067
19129W        W23529  22.133   6.895  22.535  0.2323 -0.0309 -0.2555
19130W        W23530   6.168   7.644   2.955 -0.2412  0.2372 -0.0281
19131W        W23531  13.466   3.088  16.813 -0.2112  0.1468 -0.1691
19132W        W23532  19.884   4.580  11.159 -0.3161  0.0280  0.0520
19133W        W23533   4.165   3.533  25.900 -0.1245  0.1375 -0.1791
19134W        W23534   7.605   5.494   5.881 -0.0522  0.0490 -0.0484
19135W        W23535  12.210   3.048   3.690  0.1800  0.0087 -0.1203
19136W        W23536  11.710   5.808   7.937 -0.1774  0.1977  0.0699
19137W        W23537  15.373   6.820  24.062  0.0219 -0.0598 -0.1679
19138W        W23538  23.864   5.914  25.383 -0.2787 -0.0667  0.1297
19139W        W23539   2.186   6.491  25.576 -0.1121 -0.2126  0.0056
19140W        W23540   0.892   2.166  21.170 -0.1988 -0.0421  0.0428
19141W        W23541   1.696   2.635   1.845  0.1306 -0.0334 -0.4037
19142W        W23542  19.794   7.150  16.441  0.0545 -0.1895  0.2501
19143W        W23543  20.083   1.346  20.370 -0.2007  0.0592  0.2910
19144W        W23544  14.188   6.892   5.162 -0.2262 -0.0518  0.0356
19145W        W23545  24.920   2.963   3.524 -0.0266 -0.0782  0.0659
19146W        W23546   1.552   7.382  10.129 -0.0003 -0.2199 -0.1363
19147W        W23547   0.305   1.488   7.662  0.3153 -0.0844  0.0676
19148W        W23548   5.731   1.720  20.038  0.0128  0.2511 -0.1267
19149W        W23549  29.363   0.609  16.688  0.1953 -0.0609  0.0426
19150W        W23550   9.344   3.367   1.739 -0.0837  0.0629 -0.0716
19151W        W23551   9.914   2.153  19.113 -0.1931 -0.0987  0.1429
19152W        W23552  11.365   7.811   7.639 -0.2195  0.1270 -0.2726
19153W        W23553  27.686   6.881   0.166  0.0153 -0.0909 -0.0679
19154W        W23554  12.650   1.712  23.562 -0.1412 -0.1769  0.3060
19155W        W23555   9.396   2.168  19.100  0.0097 -0.3667  0.1991
19156W        W23556  10.050   5.360  24.182  0.2404 -0.1742 -0.4873
19157W        W23557   9.358   4.962  25.163 -0.0609  0.2280 -0.1594
19158W        W23558  26.605   6.582  23.506  0.0722 -0.1202 -0.0766
19159W        W23559  10.186   2.835  25.295 -0.0086 -0.0193 -0.5354
19160W        W23560   1.338   1.441  21.221 -0.0661 -0.1972 -0.0413
19161W        W23561  27.449   6.087   4.452  0.0507 -0.0256 -0.2033
19162W        W23562  30.438   5.736  19.857 -0.2327  0.2970  0.2413
19163W        W23563   3.499   7.738  21.966  0.0729 -0.0454  0.0819
19164W        W23564  27.160   1.909   1.186  0.0062 -0.1519 -0.0919
19165W        W23565  12.683   4.847   1.153  0.2837 -0.0658  0.1867
19166W        W23566  12.541   3.512  21.208 -0.0220  0.1183 -0.0504
19167W        W23567  10.670   3.288  23.654 -0.0700  0.0405  0.0658
19168W        W23568  15.363   5.823  22.428 -0.1472 -0.1125  0.2201
19169W        W23569  12.591   0.411   3.714 -0.0972  0.4044 -0.0759
19170W        W23570   7.426   1.620   7.877 -0.1309 -0.2109  0.0740
19171W        W23571  27.091   0.249   9.220 -0.0605  0.0581 -0.2562
19172W        W23572  28.848   5.164  22.865 -0.2372 -0.0758 -0.3930
19173W        W23573   9.461   4.807   9.043  0.3826  0.2586  0.1900
19174W        W23574  18.026   1.975  14.234 -0.2190  0.0059 -0.4675
19175W        W23575  21.610   1.115  24.336 -0.2358 -0.2910 -0.2452
19176W        W23576   3.633   1.835   1.305  0.0666  0.2286  0.1641
19177W        W23577  30.934   5.412  11.316 -0.1301  0.0626  0.1483
19178W        W23578   8.721   7.575  18.272 -0.1383 -0.1910 -0.2685
19179W        W23579  19.959   4.946  24.566 -0.0242  0.1881  0.0682
19180W        W23580   5.350   2.875  10.507  0.0046 -0.1854  0.2693
19181W        W23581   9.876   4.203  22.801  0.2814  0.1280 -0.1572
19182W        W23582  21.596   1.367  19.736 -0.3997  0.3478  0.0078
19183W        W23583   9.269   6.871   5.915  0.0058  0.0425  0.0802
19184W        W23584   6.617   3.360   7.090  0.0613  0.5088 -0.0452
19185W        W23585  11.852   0.474   3.753 -0.1374 -0.2378 -0.0142
19186W        W23586  13.333   6.383  26.094 -0.0311 -0.0336  0.0509
19187W        W23587  16.438   2.091  23.315  0.1451  0.3607 -0.0557
19188W        W23588   3.623   1.554  19.073  0.3115  0.1918  0.0905
19189W        W23589  25.318   1.377   0.916  0.0911 -0.0512  0.3437
19190W        W23590  13.713   6.759  20.205 -0.0483 -0.2419 -0.0669
19191W        W23591  30.071   4.385   0.041  0.1069 -0.1086  0.1172
19192W        W23592  21.536   5.663   2.767 -0.0222  0.0385  0.0742
19193W        W23593  20.476   6.649   4.768 -0.1651 -0.0642 -0.0344
19194W        W23594  20.261   2.693  17.294 -0.1677 -0.0279 -0.2582
19195W        W23595  11.509   5.821   7.447  0.0314 -0.1788  0.1945
19196W        W23596  21.524   6.423   2.622 -0.0133  0.0603 -0.1105
19197W        W23597   6.991   3.549  21.910 -0.3182  0.5135 -0.0388
19198W        W23598  14.531   5.473  19.688  0.1504  0.1679  0.0529
19199W        W23599  27.560   1.057  26.111 -0.1447  0.0447 -0.1781
19200W        W23600  24.604   1.185  21.158  0.1580  0.1594 -0.0046
19201W        W23601   1.049   5.838   6.015 -0.0143 -0.0788  0.1699
19202W        W23602  26.182   2.991   7.262 -0.1892  0.0949  0.0179
19203W        W23603  25.527   4.904   6.831  0.0368 -0.2157  0.0330
19204W        W23604  11.950   6.647  19.389 -0.1561 -0.1372  0.0086
19205W        W23605   3.002   0.947  19.658 -0.3564  0.0375 -0.1093
19206W        W23606  15.187   6.850  10.145 -0.0617 -0.0374 -0.2213
19207W        W23607  20.265   0.916   1.119 -0.0302 -0.1904 -0.1056
19208W        W23608   5.057   7.713   6.257 -0.2746  0.0730  0.1252
19209W        W23609  29.448   1.921  25.109  0.1219 -0.0451 -0.1017
19210W        W23610  23.891   1.867  25.548  0.1124  0.0478  0.4096
19211W        W23611  26.901   4.042  16.945  0.2736  0.2008  0.1102
19212W        W23612   6.092   1.447   4.669 -0.2585  0.1069  0.3172
19213W        W23613  13.896   4.825   7.520  0.0118  0.1241  0.2951
19214W        W23614  26.785   4.163  16.064 -0.0632  0.0013  0.0515
19215W        W23615  25.941   2.587   2.990  0.0609  0.2238 -0.1419
19216W        W23616  25.417   1.636   9.021  0.2875 -0.1116 -0.1056
19217W        W23617   8.308   2.550   2.129  0.1707  0.0379 -0.0066
19218W        W23618   7.564   2.656  25.747 -0.0004  0.1581 -0.0947
19219W        W23619   6.566   7.078  16.045 -0.0154 -0.0973 -0.1070
19220W        W23620   0.055   3.245   0.036  0.0769 -0.0143 -0.0514
19221W        W23621  11.818   7.119  19.128 -0.1007 -0.0228 -0.1154
19222W        W23622  22.197   1.978  18.031 -0.0532  0.2954 -0.0296
19223W        W23623  24.415   7.754  11.266 -0.1582  0.0700 -0.0029
19224W        W23624  13.564   0.708   5.799 -0.1808 -0.0475  0.1463
19225W        W23625  16.564   3.366  15.919 -0.0607 -0.1103 -0.1229
19226W        W23626  16.787   1.718   7.120  0.2186 -0.3507 -0.0099
19227W        W23627   9.642   0.073  15.572 -0.0485  0.0486  0.0859
19228W        W23628  21.701   0.579   0.962  0.1994  0.1163  0.0178
19229W        W23629  28.852   7.821   3.495 -0.1117  0.1268  0.0728
19230W        W23630   3.307   2.372   0.942 -0.2435  0.5253  0.1882
19231W        W23631   3.278   3.129  25.293  0.2703  0.2095 -0.1036
19232W        W23632  28.333   2.523  17.528 -0.2471 -0.0952  0.0258
19233W        W23633  29.744   7.325   0.948 -0.1831 -0.1941 -0.1573
19234W        W23634   8.269   2.769   8.821  0.4694  0.4839 -0.1586
19235W        W23635   7.426   2.944  10.401  0.0487 -0.1912 -0.3936
19236W        W23636   6.486   5.918  18.394 -0.1175 -0.6694  0.0381
19237W        W23637   9.652   0.304   8.188  0.1787  0.0135  0.0415
19238W        W23638  12.766   3.291   8.328  0.0364  0.2961 -0.1098
19239W        W23639   6.117   3.266   4.731  0.0239 -0.2562  0.2378
19240W        W23640   8.114   5.708  17.500 -0.1197  0.0999  0.1232
19241W        W23641  14.587   6.197   6.652  0.1419  0.1473 -0.0088
19242W        W23642  24.677   4.120   5.210 -0.0950  0.2536  0.2303
19243W        W23643   5.184   2.436   7.679 -0.0250  0.0044 -0.1142
19244W        W23644  13.364   2.128   8.134 -0.1874 -0.1520  0.0213
19245W        W23645  26.419   3.059  11.095  0.2825  0.2362 -0.2375
19246W        W23646   2.540   3.322   4.910  0.0774 -0.2774  0.0131
19247W        W23647  20.104   4.696   2.548  0.3550  0.0910  0.3373
19248W        W23648  11.318   4.803   5.862 -0.0353  0.1020  0.2733
19249W        W23649  20.641   1.911  21.390 -0.3317 -0.1514 -0.1493
19250W        W23650  26.832   0.139   3.421  0.3868  0.0990  0.0313
19251W        W23651  28.609   2.782  16.286 -0.0582 -0.1991  0.0562
19252W        W23652   6.604   0.520  16.103 -0.1009 -0.1391  0.1835
19253W        W23653   2.264   4.928   0.242 -0.1993 -0.0501  0.0975
19254W        W23654  24.594   4.192   1.709 -0.0782 -0.1956  0.2214
19255W        W23655   8.434   1.540   9.031  0.1684 -0.1795  0.1025
19256W        W23656  30.307   3.141  24.690 -0.3418  0.1159  0.0577
19257W        W23657   4.554   7.683   6.403 -0.0048 -0.2888  0.1826
19258W        W23658  23.514   1.273   8.047 -0.0961  0.1664  0.1477
19259W        W23659  28.319   6.228  18.973 -0.1934  0.1118 -0.2272
19260W        W23660   5.380   4.927  17.198 -0.0098 -0.1791 -0.0744
19261W        W23661   9.593   3.098   7.875 -0.0834  0.2460  0.1250
19262W        W23662  25.988   2.753   6.244 -0.0900 -0.0523 -0.0580
19263W        W23663  23.394   2.781   0.437  0.0077 -0.0239 -0.1853
19264W        W23664  13.586   1.625  21.324  0.0595  0.0338  0.0962
19265W        W23665  18.345   2.804   5.889 -0.2627 -0.0879  0.3614
19266W        W23666  28.495   5.936  21.815  0.0089 -0.2598  0.1162
19267W        W23667   6.425   3.783  24.971  0.4325  0.0573  0.1198
19268W        W23668  18.220   5.100   6.982 -0.1686  0.1736  0.0781
19269W        W23669  11.942   0.206   2.707  0.3872 -0.0589 -0.2275
19270W        W23670  28.978   1.653  25.181  0.0876 -0.3308  0.1658
19271W        W23671  14.426   3.530  15.153  0.4999 -0.0475  0.1664
19272W        W23672  16.590   3.813  23.647 -0.2520  0.1778 -0.1373
19273W        W23673  21.341   5.014   4.268  0.0144 -0.0220 -0.1826
19274W        W23674   4.574   0.895  20.985 -0.1748  0.0670 -0.0267
19275W        W23675  31.163   5.880  16.992 -0.1773 -0.0027  0.2460
19276W        W23676  30.851   1.415  22.675  0.3109  0.1403 -0.0592
19277W        W23677   3.204   6.204   6.621  0.2046  0.0544 -0.1774
19278W        W23678  17.481   1.988   7.519  0.0008  0.0208  0.0458
19279W        W23679   0.899   4.867   8.245 -0.0544 -0.0153 -0.1186
19280W        W23680  31.070   2.995  23.467  0.0316 -0.0741  0.0936
19281W        W23681  26.835   3.347  25.708 -0.2759  0.2461  0.0560
19282W        W23682  17.466   6.854   2.510  0.2386  0.0919  0.0116
19283W        W23683  22.155   3.516  24.438  0.0932  0.0745  0.2489
19284W        W23684   6.682   0.503  25.185  0.3681  0.1552 -0.0381
19285W        W23685  19.013   6.731  18.261 -0.0418  0.0637 -0.0455
19286W        W23686  13.836   3.648  10.432  0.1805 -0.1664  0.0467
19287W        W23687  30.832   0.619   3.407 -0.0626  0.1562 -0.0185
19288W        W23688  19.152   1.866   5.166  0.0188 -0.0788 -0.1946
19289W        W23689   6.844   2.348   3.880 -0.1800  0.0334  0.0349
19290W        W23690  16.910   2.587  21.322  0.0619  0.1826 -0.1723
19291W        W23691  11.897   7.361  24.482  0.1204  0.0401  0.1173
19292W        W23692  10.563   7.295   9.916  0.0193  0.2506  0.1328
19293W        W23693  12.565   2.039   2.615 -0.4301 -0.0110 -0.1918
19294W        W23694   0.467   5.655  20.183  0.2243  0.2198  0.0395
19295W        W23695  17.411   5.932   6.380  0.0126 -0.0599  0.3068
19296W        W23696  20.363   4.015   7.956  0.0821 -0.0295 -0.3344
19297W        W23697  12.400   4.079  17.529 -0.1445 -0.2872 -0.2813
19298W        W23698   2.824   0.750   8.179 -0.1785 -0.1858 -0.1431
19299W        W23699  11.260   2.361   3.067 -0.0415  0.2796  0.0682
19300W        W23700   4.586   0.390   9.621 -0.0347  0.2395  0.0451
19301W        W23701  30.107   1.841   8.505  0.2912  0.2037 -0.1448
19302W        W23702   2.698   4.931   5.981  0.0951 -0.2357 -0.1242
19303W        W23703  21.294   6.578   8.499 -0.3076 -0.1889  0.1434
19304W        W23704  21.874   0.957  26.030  0.0052  0.1098  0.1876
19305W        W23705  11.161   1.744   7.468 -0.1900 -0.2178 -0.0933
19306W        W23706  31.057   4.743   1.598  0.0554 -0.1145  0.0170
19307W        W23707  10.530   7.220   1.532  0.1055 -0.0012  0.1226
19308W        W23708  24.468   4.137   0.368 -0.0380  0.1783 -0.0441
19309W        W23709  15.267   3.566  19.831  0.3772 -0.1486 -0.0129
19310W        W23710   9.598   0.854   1.476  0.0573 -0.0424 -0.0174
19311W        W23711  11.248   1.577  18.966 -0.1028  0.1427  0.1067
19312W        W23712  25.400   6.247  17.535  0.0538  0.0147  0.0308
19313W        W23713  21.060   2.151  19.947  0.0886  0.0172 -0.3227
19314W        W23714  18.593   4.023   8.738 -0.1454  0.1841  0.1020
19315W        W23715   8.685   4.793  22.049 -0.2624  0.1085 -0.2917
19316W        W23716  24.866   1.205   6.781  0.1048 -0.3104 -0.2651
19317W        W23717  18.761   3.395  15.419 -0.1261 -0.1064 -0.1552
19318W        W23718   4.541   4.278  25.972 -0.0752  0.1369  0.0917
19319W        W23719  25.516   0.807  20.233  0.1365 -0.1935 -0.1503
19320W        W23720   4.981   2.119   1.875  0.1212 -0.0093  0.2287
19321W        W23721   7.443   4.401  25.167 -0.0615  0.1021 -0.0785
19322W        W23722  28.773   5.784  18.378 -0.1256  0.0139  0.0345
19323W        W23723   6.464   4.283   8.596 -0.0113  0.2637  0.3287
19324W        W23724  27.042   4.353   4.765 -0.1365  0.0254 -0.2763
19325W        W23725   3.234   5.930   1.476  0.1159  0.1515  0.0596
19326W        W23726  10.517   0.561  16.674 -0.0371 -0.2887  0.0259
19327W        W23727  15.152   0.122  15.662 -0.1861 -0.2332  0.5010
19328W        W23728  13.742   6.597   7.429  0.3469  0.0459 -0.0061
19329W        W23729  20.300   2.046  19.362 -0.2356  0.1725 -0.2778
19330W        W23730   8.304   3.430  18.298  0.1371 -0.0680  0.0500
19331W        W23731  26.958   1.072  17.379 -0.2215 -0.1756  0.1261
19332W        W23732  13.268   6.035   5.705 -0.0108  0.3105 -0.0313
19333W        W23733   4.671   2.412  16.766  0.0093  0.1822  0.1022
19334W        W23734  23.965   4.520   5.574 -0.0516  0.1817  0.0158
19335W        W23735   5.679   2.581  18.525  0.1344 -0.1371 -0.0095
19336W        W23736  29.371   4.487  24.105 -0.2530 -0.1028  0.1758
19337W        W23737   7.132   2.264  24.047 -0.0669  0.1847 -0.1166
19338W        W23738  22.474   6.955   8.052 -0.0481 -0.0775  0.1116
19339W        W23739   5.580   4.206   0.887  0.2419 -0.0740  0.2171
19340W        W23740  10.858   0.050  17.339 -0.0911  0.0107  0.4680
19341W        W23741  29.286   5.620  18.487 -0.0189 -0.0824  0.0164
19342W        W23742  17.997   0.847  16.686  0.2474  0.1319 -0.1471
19343W        W23743   9.308   2.197   7.738  0.2045 -0.0055  0.1458
19344W        W23744  16.550   3.985  17.647  0.0481 -0.0765  0.5231
19345W        W23745   5.611   5.468   9.858  0.3698  0.0404 -0.3837
19346W        W23746  16.303   5.288   7.761 -0.1621 -0.2630  0.2219
19347W        W23747  26.109   0.446  21.462  0.0943 -0.3366  0.0439
19348W        W23748   9.704   0.150  16.106  0.0964  0.0786  0.1367
19349W        W23749   1.550   0.202   7.003 -0.1684 -0.0187 -0.0917
19350W        W23750   5.303   6.283  20.909 -0.1756  0.0995  0.2644
19351W        W23751   7.737   2.265   5.324 -0.0434 -0.0364  0.5390
19352W        W23752  10.656   2.898  20.895  0.0241  0.0204 -0.0278
19353W        W23753   7.872   6.435   2.705 -0.0737 -0.0130  0.4271
19354W        W23754   1.663   0.491  21.732 -0.3517 -0.3205 -0.0404
19355W        W23755  22.016   3.966  21.938 -0.2035 -0.0124 -0.1338
19356W        W23756  16.130   2.231   1.847  0.0892  0.0272 -0.1628
19357W        W23757   3.135   1.089   9.860  0.3567  0.0153  0.2273
19358W        W23758  18.031   3.587   7.158  0.1399 -0.2924 -0.2398
19359W        W23759  27.064   2.361   9.175 -0.1287  0.0960 -0.4852
19360W        W23760   4.105   0.781  16.635  0.0589  0.0508 -0.0751
19361W        W23761   9.947   5.429   3.721 -0.0258 -0.0318  0.1905
19362W        W23762  22.911   2.874  17.189  0.2043 -0.0163  0.1666
19363W        W23763  18.255   7.346  20.334 -0.2644  0.3006 -0.0431
19364W        W23764  18.745   5.905   4.474 -0.2482  0.0608 -0.3356
19365W        W23765  21.065   6.009   7.231 -0.1087  0.3738 -0.0013
19366W        W23766   0.415   7.415  25.448 -0.1852 -0.0580 -0.0425
19367W        W23767  23.959   7.059  20.985  0.2610  0.1100 -0.3083
19368W        W23768   1.146   0.135  22.695  0.3931 -0.0521 -0.1591
19369W        W23769  16.893   4.458   8.601  0.1078  0.0156  0.3302
19370W        W23770  14.701   5.807  24.515  0.0473  0.0502  0.1280
19371W        W23771   2.566   2.890   2.151 -0.2233  0.2909  0.2090
19372W        W23772  28.435   7.674   9.640 -0.2736  0.1897  0.0914
19373W        W23773  21.266   5.666  23.816 -0.3413  0.1989 -0.0125
19374W        W23774  10.253   5.879  18.807 -0.1900  0.3515  0.0986
19375W        W23775   7.802   5.287  21.182  0.0020  0.3229 -0.2225
19376W        W23776  16.506   4.075   9.730  0.0240 -0.0982  0.0127
19377W        W23777  29.240   6.984   3.735  0.1628 -0.1345  0.2159
19378W        W23778   4.566   5.451  15.863  0.4657 -0.2613 -0.1285
19379W        W23779  11.045   5.342  22.661  0.3895  0.0074 -0.3025
19380W        W23780  21.703   6.855  21.174  0.0155 -0.0377  0.0392
19381W        W23781  16.443   6.188   3.617 -0.1111  0.1633  0.0466
19382W        W23782  20.904   1.844  17.998 -0.3184 -0.1211  0.0821
19383W        W23783  23.902   5.441  23.177  0.0985 -0.1023  0.1876
19384W        W23784  13.704   1.486  17.162  0.1789  0.0544 -0.0668
19385W        W23785  20.733   1.800   2.055 -0.1312  0.0000  0.0405
19386W        W23786  17.175   7.220  20.055  0.2208  0.0467  0.1924
19387W        W23787  28.852   0.600  24.832 -0.1519  0.1400 -0.0638
19388W        W23788  10.566   0.336   0.120  0.0067  0.1558  0.0915
19389W        W23789  18.862   1.614   0.816 -0.1551 -0.1225  0.1026
19390W        W23790  25.166   1.338  24.931 -0.2226  0.2003 -0.1331
19391W        W23791   2.414   7.174  17.408 -0.3235 -0.0286 -0.0931
19392W        W23792   4.915   3.266   3.575  0.4011 -0.0085  0.0761
19393W        W23793  17.816   0.332  16.863  0.1841 -0.0645  0.0780
19394W        W23794  11.699   2.719   2.278 -0.0190 -0.1573  0.1950
19395W        W23795   1.838   4.554  16.639  0.2605 -0.0725  0.0176
19396W        W23796  11.530   4.565   2.738  0.0620  0.3965 -0.1861
19397W        W23797  25.914   7.551  19.682 -0.1038  0.1280 -0.0560
19398W        W23798  26.220   5.234   6.325  0.1415  0.2382 -0.0342
19399W        W23799  12.862   7.035  24.396 -0.1917  0.0739  0.1534
19400W        W23800  25.620   0.264  10.709  0.0771  0.1160  0.1718
19401W        W23801  10.122   3.184   4.127 -0.1672 -0.0122 -0.1011
19402W        W23802   5.641   1.264  21.777 -0.1797 -0.2419 -0.0554
19403W        W23803  18.084   7.773   9.554  0.0185  0.3687  0.0558
19404W        W23804  28.449   4.331  11.377 -0.0841  0.1720 -0.1517
19405W        W23805  19.299   3.535   0.046 -0.1552  0.1727 -0.1673
19406W        W23806   4.458   1.782   9.391 -0.2226 -0.2828  0.2054
19407W        W23807  14.055   5.267   7.063 -0.0513 -0.1330  0.3689
19408W        W23808   8.902   2.912  25.415  0.2006  0.1351  0.0928
19409W        W23809  12.265   5.208   5.644 -0.0989  0.4175 -0.1984
19410W        W23810  18.971   2.281   5.381  0.1775 -0.1005  0.2710
19411W        W23811  19.599   0.288   7.371  0.0362  0.1194  0.1536
19412W        W23812  19.353   5.071   9.301 -0.0355 -0.4819 -0.0324
19413W        W23813  21.200   1.046   2.332  0.1599  0.2466  0.2299
19414W        W23814  20.515   0.984   4.647  0.2193 -0.1943 -0.0694
19415W        W23815  13.813   0.494   9.420 -0.0922  0.2520 -0.0673
19416W        W23816  29.972   4.386  21.455 -0.0553  0.0938 -0.1821
19417W        W23817   6.803   3.076  17.752 -0.0591  0.2551  0.4445
19418W        W23818  28.878   5.432  25.663 -0.1042 -0.3703 -0.1918
19419W        W23819  26.033   1.456  18.703 -0.0333  0.1849  0.0058
19420W        W23820   9.252   5.382   6.752 -0.2795 -0.1348 -0.2471
19421W        W23821  21.660   6.929   6.800  0.2107  0.1478  0.1692
19422W        W23822  26.449   1.118  15.850 -0.1972  0.1566  0.2435
19423W        W23823   0.798   2.991  15.784  0.1067  0.0632  0.0223
19424W        W23824  10.419   4.160   8.563 -0.4382  0.1563  0.0414
19425W        W23825  22.995   5.574  21.793 -0.0368 -0.2224  0.0867
19426W        W23826  28.635   1.229   4.469 -0.0541  0.2884  0.1347
19427W        W23827  24.407   7.260   6.936  0.1814  0.0951  0.2485
19428W        W23828  28.442   4.613  25.867 -0.1701  0.0244 -0.1595
19429W        W23829  27.732   0.087   9.847 -0.0041 -0.3122  0.0931
19430W        W23830  23.850   5.435   5.732 -0.0182 -0.0690  0.1560
19431W        W23831   7.384   0.824  26.146  0.1037  0.1392  0.0320
19432W        W23832  13.057   1.793  21.296 -0.4025 -0.1467  0.1935
19433W        W23833   1.711   7.235  21.990  0.0917 -0.0928  0.0048
19434W        W23834  29.969   1.729   6.529  0.1928 -0.1808  0.1166
19435W        W23835   2.842   1.238   7.394  0.0069  0.1536 -0.1527
19436W        W23836  14.731   6.621   1.739  0.2059  0.0144 -0.0625
19437W        W23837  13.257   7.443   4.529  0.2849 -0.0836  0.0655
19438W        W23838  29.277   0.203   3.674 -0.0209  0.3723 -0.0200
19439W        W23839  14.050   7.134  10.184 -0.0011  0.0580 -0.2734
19440W        W23840   9.961   6.612  10.002 -0.2433  0.0393  0.3560
19441W        W23841   2.922   6.403  26.168  0.0340  0.0785  0.0116
19442W        W23842  13.954   2.826  18.182 -0.1307  0.0477  0.0401
19443W        W23843  22.468   7.677   0.474  0.0674  0.3641  0.0366
19444W        W23844   8.105   3.807   6.165  0.1014 -0.0380 -0.1866
19445W        W23845  14.794   0.478   6.708  0.1398  0.2790 -0.1253
19446W        W23846  28.898   7.123  19.405  0.1313 -0.2128 -0.3698
19447W        W23847  26.278   5.066   3.803 -0.1944 -0.1688 -0.0773
19448W        W23848  30.708   5.543   8.439  0.0381  0.0665  0.0359
19449W        W23849   2.421   5.178  11.552  0.0571 -0.1922 -0.0372
19450W        W23850  12.553   1.382   6.064  0.0905  0.1528  0.1516
19451W        W23851   8.559   4.677   3.153 -0.1631 -0.3251  0.0109
19452W        W23852  28.089   2.971  10.037  0.1747 -0.1180  0.0349
19453W        W23853  25.680   1.309   5.761 -0.2995 -0.0143  0.0778
19454W        W23854  23.130   7.648  22.617 -0.4268 -0.3315  0.0296
19455W        W23855  21.268   2.711   3.479  0.1142  0.1716 -0.1524
19456W        W23856  22.035   1.226   3.735  0.0820  0.1123 -0.4960
19457W        W23857  21.708   4.103   3.891  0.4001 -0.1949 -0.0318
19458W        W23858  30.239   1.511  26.046  0.1028 -0.3983 -0.0488
19459W        W23859  26.218   4.041   4.449 -0.0579 -0.0466 -0.1196
19460W        W23860  22.745   4.070   0.334  0.0459  0.0974 -0.3760
19461W        W23861  13.556   5.598  20.686 -0.0176 -0.1028  0.2542
19462W        W23862  30.586   1.513  16.247 -0.1337 -0.0575  0.0927
19463W        W23863  21.605   5.087  16.064 -0.1648  0.2314  0.3749
19464W        W23864  25.230   6.055   2.681 -0.1597 -0.0051  0.0160
19465W        W23865  27.301   1.556   0.832  0.1902 -0.3523  0.1415
19466W        W23866  18.441   1.185   9.363  0.1378 -0.3389 -0.2853
19467W        W23867   3.675   0.374  17.189  0.2396  0.1905 -0.3648
19468W        W23868   4.023   0.237  23.106 -0.1108  0.1463  0.0782
19469W        W23869  25.887   2.136   4.483 -0.0960 -0.0383  0.2602
19470W        W23870  16.219   0.819   9.711 -0.1977 -0.0495  0.2430
19471W        W23871  13.442   2.424   9.967  0.1281 -0.0997  0.0019
19472W        W23872  18.536   6.332   6.438 -0.1764  0.0818 -0.1710
19473W        W23873   3.088   4.012  21.437  0.0493 -0.0419 -0.0217
19474W        W23874  10.399   0.999  11.280 -0.0836  0.0668  0.0613
19475W        W23875   2.106   1.131   2.957  0.1286  0.4773 -0.0719
19476W        W23876  21.186   4.255  21.594  0.0620  0.0222  0.1035
19477W        W23877  24.387   2.543   0.790 -0.3009 -0.1050 -0.0783
19478W        W23878   7.535   0.413  19.210  0.0064 -0.0951 -0.1485
19479W        W23879   0.958   3.938  21.893 -0.3420 -0.1331 -0.2227
19480W        W23880  10.494   1.654  23.726 -0.3170  0.0742 -0.0700
19481W        W23881  14.674   2.095   7.743  0.4836  0.0657  0.1442
19482W        W23882  23.128   0.664   3.305  0.0380 -0.3863  0.0739
19483W        W23883  19.711   2.879   9.695 -0.1028 -0.2095  0.0315
19484W        W23884  29.403   1.154  18.370 -0.6341  0.0573 -0.0343
19485W        W23885  24.597   2.564  16.338 -0.1997  0.0070  0.1563
19486W        W23886  19.741   0.841  10.600  0.1864 -0.0115 -0.2925
19487W        W23887   0.153   4.903  25.947 -0.3467 -0.0145  0.2091
19488W        W23888  25.232   1.614   7.405 -0.1156  0.3882 -0.0261
19489W        W23889  28.601   6.173  25.609 -0.2213 -0.0905  0.1286
19490W        W23890  13.425   2.653   8.060 -0.0614  0.1267  0.2108
19491W        W23891  29.174   2.552  11.329 -0.0930  0.1762 -0.0871
19492W        W23892  29.191   6.717  18.073  0.1930  0.2022 -0.0118
19493W        W23893  14.433   2.340   0.834  0.2155 -0.1994 -0.0744
19494W        W23894  29.979   1.696   1.184  0.0957 -0.3773 -0.3638
19495W        W23895  10.277   6.568  22.527 -0.0900 -0.0853 -0.4003
19496W        W23896   4.985   0.992  20.426  0.1064  0.0177  0.1557
19497W        W23897  25.220   6.852   8.357  0.0850 -0.1123 -0.1849
19498W        W23898   2.147   0.670   2.541 -0.0036  0.0120 -0.0141
19499W        W23899  12.493   5.717  23.996 -0.0018  0.0809  0.0635
19500W        W23900  11.147   1.648   9.450 -0.0436 -0.1421  0.2177
19501W        W23901   1.272   7.166   5.765 -0.0208  0.0083  0.0337
19502W        W23902   2.119   3.798   3.606 -0.2180 -0.2662  0.1424
19503W        W23903  29.829   7.603  21.471 -0.0270  0.0670 -0.0106
19504W        W23904  16.678   5.497   7.430  0.1136 -0.3842 -0.4358
19505W        W23905  28.305   5.289  10.153  0.1516 -0.2247 -0.0410
19506W        W23906  20.354   6.005  25.020 -0.0274  0.0856 -0.0026
19507W        W23907  27.105   3.586  16.710  0.0368  0.3127  0.0820
19508W        W23908   3.623   4.514  18.192  0.1351 -0.0617 -0.0491
19509W        W23909   3.675   2.432   6.071  0.2552  0.0411  0.1222
19510W        W23910   3.364   2.574   7.499  0.2808 -0.4020  0.0453
19511W        W23911  17.578   5.497   2.118 -0.2415  0.0074 -0.0862
19512W        W23912  16.685   3.534  21.219 -0.0320  0.0903 -0.3713
19513W        W23913  11.051   2.645   5.578 -0.0682 -0.0509  0.1553
19514W        W23914   0.432   2.973  24.849 -0.0915  0.1665  0.1627
19515W        W23915   8.879   0.850  21.974  0.0330  0.1430  0.1237
19516W        W23916  13.720   6.664   7.999  0.0617  0.0352 -0.2360
19517W        W23917  12.491   7.803  16.113 -0.0226  0.0843 -0.0355
19518W        W23918   9.649   3.657  25.221 -0.3885 -0.2253 -0.0095
19519W        W23919  30.841   4.891   1.135 -0.3261  0.2455  0.0048
19520W        W23920  25.067   5.858  17.240  0.0119  0.0302  0.0295
19521W        W23921  28.160   0.015  24.796 -0.1282  0.1334  0.3093
19522W        W23922  16.870   0.054   5.350 -0.0217  0.0209 -0.1021
19523W        W23923   5.691   2.780  16.334 -0.0291  0.0213  0.0915
19524W        W23924  14.031   6.451   1.208  0.0717  0.1750 -0.0775
19525W        W23925  21.536   7.788  25.210  0.1081 -0.2657 -0.1846
19526W        W23926  12.808   7.789  17.196  0.2069  0.0559 -0.2124
19527W        W23927  15.881   6.507  15.703  0.2220  0.3455 -0.0774
19528W        W23928   1.082   0.055   9.568  0.1357  0.0851 -0.0793
19529W        W23929  24.920   3.307   4.536  0.3514 -0.2234 -0.0194
19530W        W23930  23.026   0.728  21.077  0.1474 -0.0845  0.0195
19531W        W23931  18.121   1.727   4.709 -0.1670 -0.0879 -0.2148
19532W        W23932  25.028   5.463  16.983  0.0374  0.2577 -0.1748
19533W        W23933  29.798   4.872   7.989 -0.0656  0.0894 -0.3001
19534W        W23934   7.954   0.533  19.916 -0.4008  0.1322 -0.3239
19535W        W23935  31.144   2.714   3.174 -0.2534 -0.2212  0.0458
19536W        W23936  13.689   0.850   7.015 -0.0867  0.1949 -0.1933
19537W        W23937   7.729   0.045  23.107  0.1404 -0.1636  0.0474
19538W        W23938  18.320   3.970  10.190 -0.0247  0.1699 -0.0040
19539W        W23939  24.273   3.349  19.496  0.2999  0.1444 -0.0018
19540W        W23940  11.101   0.583  20.982 -0.2608 -0.0661  0.1320
19541W        W23941  23.261   1.820  16.885  0.3003  0.2172 -0.3580
19542W        W23942  17.188   0.574   1.849  0.0336 -0.1484 -0.1373
19543W        W23943  20.399   0.212   3.793 -0.0381 -0.1262  0.2723
19544W        W23944  29.822   4.278   5.260 -0.2115 -0.0889 -0.0067
19545W        W23945  12.587   6.909  17.547  0.0088 -0.2176  0.0302
19546W        W23946   1.146   5.261  16.706  0.0384 -0.0340 -0.0875
19547W        W23947  23.964   2.713   3.776 -0.3367 -0.3110 -0.2697
19548W        W23948  24.943   2.281   4.554 -0.0983 -0.1301  0.3571
19549W        W23949  19.786   0.855   5.842 -0.1920  0.0010 -0.1008
19550W        W23950  23.594   2.143  22.714  0.0116 -0.0578 -0.1310
19551W        W23951  19.961   1.266  26.163  0.1553  0.3483  0.0371
19552W        W23952   5.221   6.737   3.150 -0.2090 -0.1982  0.1267
19553W        W23953  23.640   6.299  25.753 -0.0642  0.0049 -0.0035
19554W        W23954  24.766   5.017  22.819  0.0730 -0.0052  0.1381
19555W        W23955  19.582   0.087   3.586 -0.2642 -0.0075  0.2793
19556W        W23956  17.964   7.524   2.649  0.2985 -0.3609 -0.4066
19557W        W23957  17.498   0.896  25.868  0.1641 -0.0842 -0.0572
19558W        W23958  30.063   3.252   2.039 -0.1390 -0.3103 -0.0048
19559W        W23959  20.472   4.628  15.922 -0.2484  0.1385 -0.1064
19560W        W23960   9.274   4.443  24.082 -0.0178  0.0223 -0.1309
19561W        W23961  27.203   7.028   0.208 -0.3526 -0.2269  0.1691
19562W        W23962  15.526   1.537   9.119  0.0833  0.0468  0.0256
19563W        W23963   4.671   1.104   8.806  0.1171 -0.1615 -0.1079
19564W        W23964  22.970   0.107   1.606 -0.1096  0.1480  0.1321
19565W        W23965   7.372   2.915  17.010 -0.0754  0.0703 -0.1217
19566W        W23966   2.303   0.556  16.708  0.2769 -0.1021  0.0223
19567W        W23967  16.147   5.243   5.816  0.2658  0.0897  0.1373
19568W        W23968  14.430   7.262  15.910  0.1912 -0.2215 -0.1532
19569W        W23969   8.656   4.868   7.932 -0.1969  0.1269  0.0047
19570W        W23970   5.104   4.035   5.570 -0.0376 -0.1199 -0.1791
19571W        W23971   3.718   7.583   6.875 -0.1652  0.2464  0.4544
19572W        W23972  26.601   2.098  16.529 -0.0720 -0.2006 -0.1133
19573W        W23973  13.545   1.603   2.230  0.0295 -0.2469  0.1188
19574W        W23974  30.347   7.744  17.398  0.0670  0.0031 -0.1472
19575W        W23975  13.235   3.539   8.630  0.0337  0.1162  0.0598
19576W        W23976   9.080   7.088  25.490 -0.1368  0.0277 -0.0134
19577W        W23977  10.949   0.088  21.122 -0.0892 -0.1568 -0.0341
19578W        W23978  17.814   2.737  17.990  0.1101 -0.0583 -0.1109
19579W        W23979  24.755   6.282   4.233 -0.0825  0.1244  0.1993
19580W        W23980   0.131   7.736  18.987  0.0095 -0.2320  0.0870
19581W        W23981  28.890   7.374  15.822  0.1145  0.1016 -0.0332
19582W        W23982  20.308   2.965   2.527 -0.2308 -0.2026  0.0820
19583W        W23983  11.408   7.533   8.034  0.2588  0.1138  0.0704
19584W        W23984   4.581   5.661   1.491 -0.2024 -0.1649 -0.2596
19585W        W23985   5.469   5.768  20.770 -0.1385  0.2537 -0.0228
19586W        W23986  10.503   6.666  17.184  0.0074  0.2035  0.1270
19587W        W23987  16.934   6.965  22.545 -0.2807  0.0992 -0.2180
19588W        W23988  20.794   3.694  16.553 -0.0660 -0.1904  0.0457
19589W        W23989   1.560   3.404   6.676  0.0628  0.1839  0.1570
19590W        W23990  10.909   7.610   8.079  0.0305 -0.1628 -0.0551
19591W        W23991  26.837   6.095   5.532  0.3308  0.0148 -0.2172
19592W        W23992  29.482   0.122  23.014 -0.0438 -0.4576  0.1389
19593W        W23993  15.474   0.369   3.588 -0.1332  0.0411  0.2282
19594W        W23994   1.522   0.736  23.495  0.0349  0.2507  0.2481
19595W        W23995   2.240   0.991   5.954  0.0713 -0.1040  0.2907
19596W        W23996  27.509   7.116  21.711 -0.1498  0.1855 -0.1590
19597W        W23997   8.994   0.327  15.679  0.0744 -0.1239 -0.0360
19598W        W23998  11.003   5.903  24.995  0.0146  0.0589  0.4328
19599W        W23999  27.009   0.744  18.701 -0.3148  0.1793  0.0112
19600W        W24000   5.112   5.561  21.553 -0.1087 -0.0836  0.0947
19601W        W24001   2.949   4.484   3.791  0.0956 -0.0032  0.3620
19602W        W24002   0.813   6.554   2.397  0.1922 -0.0868 -0.2197
19603W        W24003  27.831   6.280   8.957 -0.5258  0.0582 -0.0902
19604W        W24004  16.107   2.839  19.848 -0.3727  0.0227 -0.1276
19605W        W24005  14.100   4.323  20.794  0.0128  0.1908 -0.1885
19606W        W24006  22.250   2.501  17.728 -0.1798  0.0841  0.2981
19607W        W24007  17.071   0.594  15.498  0.0427 -0.0537  0.1102
19608W        W24008  24.520   2.178  17.931 -0.0347  0.0101  0.0889
19609W        W24009  16.142   3.305  25.408  0.1006 -0.1307  0.5968
19610W        W24010  27.719   2.298  25.409 -0.1634 -0.0082  0.0807
19611W        W24011  13.623   4.065   5.729 -0.1118 -0.1887  0.1552
19612W        W24012  10.561   3.682  11.279  0.1393 -0.0218  0.0509
19613W        W24013  28.192   0.161  26.111  0.0877  0.1103  0.2029
19614W        W24014   9.130   2.049   2.370  0.1228 -0.0989 -0.2117
19615W        W24015   2.862   5.776  11.752 -0.0154 -0.1347 -0.1681
19616W        W24016  11.783   4.091  26.179  0.0166  0.3668 -0.1411
19617W        W24017  26.362   6.582  21.775  0.0508 -0.0168 -0.0341
19618W        W24018  13.666   7.474  21.136 -0.0206 -0.1421  0.3142
19619W        W24019  12.003   6.221  19.094 -0.0086  0.0423 -0.4641
19620W        W24020  11.084   2.263  24.224 -0.1531 -0.1155 -0.1887
19621W        W24021   9.221   2.021   9.080 -0.0585  0.1022  0.2060
19622W        W24022   6.611   3.805   7.297  0.0213  0.0524 -0.2964
19623W        W24023  13.489   2.950   3.239  0.2128  0.1692 -0.2247
19624W        W24024  14.661   2.785   4.868  0.1245 -0.1187 -0.1107
19625W        W24025  23.565   3.665   8.242  0.1818  0.3666 -0.0740
19626W        W24026   6.384   6.505  18.588  0.1655 -0.0436  0.3248
19627W        W24027  18.982   5.648   1.230 -0.2184 -0.1216 -0.1427
19628W        W24028   3.682   0.831   1.301  0.0737  0.0869  0.3918
19629W        W24029  25.103   0.597  20.466 -0.1259  0.0811 -0.0448
19630W        W24030  26.071   6.840  16.824  0.2881  0.1213  0.1904
19631W        W24031  30.001   5.322  25.852  0.3862 -0.1054 -0.0416
19632W        W24032  26.719   5.115  15.654  0.2021 -0.0746  0.3716
19633W        W24033  23.528   4.141  16.659 -0.1405  0.0005 -0.0720
19634W        W24034  26.129   3.818  17.293  0.0702 -0.1051 -0.2600
19635W        W24035  29.890   5.878  19.682 -0.1260 -0.0652  0.3013
19636W        W24036  21.451   3.747   2.924 -0.1034  0.0997 -0.4380
19637W        W24037   6.757   1.648  25.098 -0.2306 -0.0649 -0.1731
19638W        W24038   8.047   6.568  15.167  0.1776 -0.0218 -0.0345
19639W        W24039  10.857   2.075   8.568 -0.0923 -0.0107 -0.0014
19640W        W24040  30.151   4.499  19.381 -0.1425 -0.0399  0.1121
19641W        W24041  30.428   4.979   5.259 -0.1395  0.0911  0.0371
19642W        W24042   7.409   6.981  21.432  0.0905 -0.2160 -0.0661
19643W        W24043   3.474   4.397  19.526 -0.2633  0.1088 -0.2060
19644W        W24044  22.865   2.910  21.933 -0.3002 -0.0945 -0.0851
19645W        W24045  14.002   5.000   5.073  0.0956 -0.0008  0.0637
19646W        W24046  24.354   6.545   4.578  0.0006 -0.1310  0.2196
19647W        W24047   6.602   1.333  22.993 -0.2614  0.1000 -0.2461
19648W        W24048   4.261   7.719  10.813  0.2587 -0.1602 -0.1701
19649W        W24049   0.192   7.078  25.909  0.1227 -0.1781  0.3801
19650W        W24050  25.310   5.153  16.504 -0.5458  0.1352  0.1061
19651W        W24051  15.568   3.507   3.971 -0.0726 -0.0104 -0.2237
19652W        W24052  20.762   2.768   4.910  0.0514  0.2309 -0.2355
19653W        W24053  21.166   6.491  20.425  0.1282  0.2431 -0.1517
19654W        W24054   5.320   6.356  18.736 -0.0299  0.0521 -0.1854
19655W        W24055  24.629   4.975  15.747 -0.2525 -0.0936  0.2098
19656W        W24056  21.232   6.479   1.577  0.0092  0.3464 -0.1283
19657W        W24057  17.423   4.570   8.403  0.3115 -0.0405 -0.1214
19658W        W24058  14.358   0.495   9.390  0.0891  0.1228  0.0362
19659W        W24059   5.466   2.923   0.582 -0.0952 -0.4093 -0.0018
19660W        W24060  24.266   6.381   9.110  0.0578 -0.1115 -0.1157
19661W        W24061  21.326   2.599   0.210 -0.1063  0.1216 -0.2346
19662W        W24062  15.740   0.639  24.822  0.3957  0.0922  0.0948
19663W        W24063  21.455   1.789  22.063 -0.1834 -0.0644  0.1161
19664W        W24064  17.748   0.849  16.219  0.0345  0.2674 -0.0598
19665W        W24065  29.466   5.524   2.365 -0.0230 -0.1712 -0.2447
19666W        W24066  28.342   4.808   8.881 -0.2862 -0.2668  0.0420
19667W        W24067   6.275   5.503  24.085 -0.0299 -0.1906 -0.0426
19668W        W24068   0.585   7.130  10.297 -0.1170 -0.1087  0.1743
19669W        W24069  27.503   5.564   0.402 -0.0408 -0.0842 -0.1364
19670W        W24070  11.665   0.525  25.673  0.2859  0.1314  0.1552
19671W        W24071   7.912   0.187  19.475 -0.1245  0.0653  0.3021
19672W        W24072   3.574   7.598   8.513 -0.0372  0.0794  0.0088
19673W        W24073  21.432   7.649   9.543 -0.3270 -0.0694 -0.2344
19674W        W24074  27.726   7.187  20.552 -0.0083  0.0692  0.0681
19675W        W24075  10.911   7.714   6.268 -0.0473  0.2393 -0.1552
19676W        W24076  29.111   6.240  19.325 -0.1784 -0.0008  0.1965
19677W        W24077   6.920   3.386  19.730 -0.1385  0.0420  0.0898
19678W        W24078  18.955   6.745   8.394 -0.0437  0.0379  0.2745
19679W        W24079  15.038   3.104  10.452 -0.0454  0.1978  0.0345
19680W        W24080  17.359   3.262  19.030  0.1794 -0.0208 -0.0591
19681W        W24081  16.032   0.011  23.278  0.3461  0.0571 -0.1012
19682W        W24082  25.998   5.289  19.453 -0.0090  0.3352  0.1409
19683W        W24083   6.623   4.310  17.418 -0.2402  0.1597  0.1923
19684W        W24084  20.194   3.835   6.237  0.0807 -0.2409  0.0321
19685W        W24085   5.010   6.268   1.686  0.2089  0.0144  0.0988
19686W        W24086  27.485   1.162  21.577  0.0957 -0.2004 -0.0766
19687W        W24087  25.405   4.398  17.131 -0.2201 -0.0846 -0.2210
19688W        W24088  22.797   6.584   8.815  0.3247  0.0087  0.0178
19689W        W24089  17.773   2.906   5.322 -0.0364 -0.0420  0.0858
19690W        W24090  22.725   6.631   2.663 -0.0451  0.0518  0.0952
19691W        W24091  30.765   2.896  24.531  0.3965 -0.2956 -0.0519
19692W        W24092  11.049   4.863  10.277 -0.1003 -0.1569  0.1768
19693W        W24093  29.904   0.895   7.425  0.1804  0.1845  0.1836
19694W        W24094  25.073   6.026   7.925 -0.0620  0.0630 -0.1524
19695W        W24095   8.367   1.277  23.116  0.1461  0.1444 -0.1261
19696W        W24096  15.583   1.742  21.243  0.0158 -0.1031  0.3722
19697W        W24097  12.715   0.496  20.444 -0.3815  0.4044  0.0120
19698W        W24098  21.438   0.197  22.022  0.0597  0.0311  0.0420
19699W        W24099   6.671   0.734   7.622  0.0042 -0.0505 -0.0551
19700W        W24100  20.391   0.506  19.809 -0.1016 -0.0017  0.0915
19701W        W24101  22.818   0.451  16.965  0.1593 -0.1666  0.1268
19702W        W24102  20.902   2.753   0.031  0.1511 -0.2111 -0.1652
19703W        W24103  25.706   5.579   9.734  0.2417  0.0518 -0.0919
19704W        W24104  17.543   7.655  16.774  0.0932 -0.0917 -0.2266
19705W        W24105  31.116   1.916  25.454  0.0714  0.5247  0.0352
19706W        W24106   0.777   2.750  22.541  0.1028  0.1712  0.0322
19707W        W24107  11.494   7.714   2.879  0.2298 -0.0639 -0.1332
19708W        W24108   5.711   5.078   8.136 -0.0891 -0.0942 -0.1325
19709W        W24109  25.367   2.880   2.411 -0.2044  0.1238 -0.1019
19710W        W24110  27.187   2.962  20.467  0.3097 -0.0685 -0.0616
19711W        W24111  24.939   6.472   3.789 -0.0562 -0.0208 -0.1162
19712W        W24112  20.900   3.716  25.182  0.1854  0.0442 -0.0770
19713W        W24113  13.606   2.543  17.397  0.0356  0.0946  0.2872
19714W        W24114   7.797   2.158   7.640  0.1345 -0.0192  0.0034
19715W        W24115   4.319   4.418   6.267 -0.0612  0.1219 -0.0969
19716W        W24116   4.022   5.104   0.053  0.1720  0.2241  0.0974
19717W        W24117   7.866   3.422  23.964  0.0070 -0.0220  0.1969
19718W        W24118   7.550   2.743  21.500  0.3891 -0.0541  0.1722
19719W        W24119  10.620   2.730   0.843 -0.1430 -0.0006  0.0710
19720W        W24120  24.932   2.965   9.326  0.1453  0.2006 -0.3186
19721W        W24121   3.649   7.744  15.558 -0.3685 -0.2735 -0.1969
19722W        W24122   9.098   5.196   5.510 -0.1363 -0.0228  0.1060
19723W        W24123  10.212   3.751   1.174 -0.0858 -0.1467 -0.0018
19724W        W24124   5.536   7.388   0.534  0.0475  0.0881  0.2058
19725W        W24125  24.327   1.677   8.616 -0.2763 -0.1424 -0.1021
19726W        W24126  17.470   7.190   5.488 -0.0192  0.2754  0.0082
19727W        W24127   7.161   0.171   4.305 -0.1564  0.1986 -0.0828
19728W        W24128  23.919   3.101   6.531  0.1400 -0.0025  0.3296
19729W        W24129   3.080   1.169   5.482 -0.1698  0.4379 -0.3269
19730W        W24130   5.332   5.824  18.673  0.0441 -0.0479 -0.2072
19731W        W24131   6.388   3.841  18.286  0.2095 -0.2670 -0.0742
19732W        W24132  28.355   1.560   2.370 -0.2309 -0.2155  0.0328
19733W        W24133  24.447   6.597  15.734 -0.2083 -0.1997  0.1806
19734W        W24134   8.477   7.669  18.733 -0.1618 -0.1530 -0.0261
19735W        W24135  24.803   5.638  24.902 -0.0567  0.1468 -0.0026
19736W        W24136  12.713   3.120  17.887 -0.0781 -0.2489  0.2822
19737W        W24137  18.253   7.302   6.503 -0.1939  0.1435 -0.0321
19738W        W24138   0.612   2.742   0.639  0.1128 -0.1256  0.0173
19739W        W24139  25.436   0.678   7.493 -0.0145  0.1178 -0.1733
19740W        W24140   7.961   4.993  19.631 -0.0106 -0.1835  0.1887
19741W        W24141   5.126   2.837   3.046  0.1526 -0.2270 -0.0891
19742W        W24142  16.499   1.182   5.017 -0.1530 -0.0679  0.0449
19743W        W24143  10.508   6.154  16.560 -0.2675 -0.0195 -0.0602
19744W        W24144  14.521   4.206  20.161 -0.0941 -0.0419  0.0571
19745W        W24145  21.970   3.333   4.546 -0.2903 -0.3027 -0.0181
19746W        W24146  10.330   4.529   7.360 -0.2836 -0.1640  0.1143
19747W        W24147  18.062   4.332   7.003 -0.1296 -0.0373  0.2640
19748W        W24148  19.672   4.929  15.135 -0.1847  0.2886 -0.0508
19749W        W24149  13.295   4.942  21.963  0.0280  0.0176 -0.1545
19750W        W24150  15.390   3.732  25.659 -0.2214  0.1860 -0.2465
19751W        W24151  14.485   1.872   1.531  0.3133  0.1125  0.1147
19752W        W24152   2.880   7.556  18.167  0.2180 -0.0246  0.1945
19753W        W24153  29.045   7.809  17.223  0.2268 -0.1778  0.0656
19754W        W24154  15.664   6.852  16.796 -0.1026 -0.1188 -0.0234
19755W        W24155  24.695   3.433  22.449 -0.0389  0.1985  0.0050
19756W        W24156  30.339   6.774  16.733 -0.0414 -0.0856 -0.0085
19757W        W24157   7.177   6.383  10.317 -0.0877 -0.3455 -0.0184
19758W        W24158  12.886   0.239  21.467  0.1312  0.0310 -0.3119
19759W        W24159   8.735   7.461  24.656 -0.0656 -0.2052 -0.0588
19760W        W24160   6.011   2.379   0.715 -0.2133  0.2073  0.0987
19761W        W24161  12.784   7.214  20.212 -0.3138 -0.2387  0.0517
19762W        W24162  27.348   4.546  22.755  0.1253 -0.0558  0.0240
19763W        W24163   2.056   0.549  18.330 -0.1364  0.1398 -0.0817
19764W        W24164  25.003   2.701   5.916 -0.0070 -0.3494 -0.1195
19765W        W24165   3.360   5.687  11.556 -0.1707 -0.0348 -0.2935
19766W        W24166   1.537   2.819  17.967  0.0875 -0.2347 -0.1676
19767W        W24167  23.978   0.027   2.222 -0.1260  0.1644 -0.0658
19768W        W24168   3.697   0.101   4.992 -0.0179  0.0780 -0.0042
19769W        W24169  11.240   3.910   7.443 -0.4711  0.2688  0.1100
19770W        W24170  14.931   7.639   0.389  0.0443  0.3409 -0.0788
19771W        W24171  24.854   6.642  22.010 -0.2747  0.0967  0.0136
19772W        W24172   3.021   7.627  17.004  0.3040 -0.1180  0.0354
19773W        W24173   0.908   4.596  18.278  0.1204 -0.2211  0.3118
19774W        W24174  12.821   7.090  15.564  0.0923  0.1316 -0.0724
19775W        W24175  16.872   6.048   8.092 -0.0118 -0.0692 -0.0147
19776W        W24176   4.556   6.852  24.881 -0.0482  0.0519 -0.0826
19777W        W24177   0.075   7.779  23.456  0.0414  0.0666  0.1931
19778W        W24178  14.986   3.376  19.045 -0.0379  0.3885  0.3241
19779W        W24179   5.282   4.500  21.369  0.0491  0.0480 -0.1962
19780W        W24180   8.504   6.789   6.092  0.1886  0.0863 -0.0767
19781W        W24181  14.369   5.719  15.082 -0.2234 -0.1263  0.1892
19782W        W24182   7.910   0.813   5.567  0.2319 -0.0112  0.2769
19783W        W24183   0.078   4.302  25.786  0.0656 -0.2911 -0.2759
19784W        W24184  16.817   4.222  25.034  0.0525  0.0339 -0.1640
19785W        W24185  30.236   3.217   9.291 -0.1124  0.1014 -0.0352
19786W        W24186  10.106   3.147  19.621  0.0750  0.0237  0.1301
19787W        W24187   6.000   2.143  26.033 -0.0543  0.4152  0.1749
19788W        W24188  10.898   7.334   6.865 -0.2337  0.1059 -0.1387
19789W        W24189   8.183   1.266  16.637 -0.1097  0.0773  0.0153
19790W        W24190  28.204   4.927  22.065 -0.0107  0.1919 -0.0310
19791W        W24191  29.108   0.863   1.140 -0.1444  0.1228  0.3361
19792W        W24192  22.300   3.855   9.231  0.0961  0.1435 -0.0247
19793W        W24193  11.613   0.828   1.776 -0.1688 -0.0787  0.0140
19794W        W24194   6.530   6.635  23.651  0.0870  0.2325  0.3159
19795W        W24195  24.443   0.308   9.155  0.2340 -0.2135  0.0768
19796W        W24196  21.745   7.143   0.539  0.0900  0.1561  0.1061
19797W        W24197  14.666   6.087  17.192 -0.0221  0.1663  0.1145
19798W        W24198  29.968   0.524   6.148  0.0774  0.2825 -0.1600
19799W        W24199   5.196   3.852   3.195  0.0417  0.2011 -0.1402
19800W        W24200  14.132   3.436  21.653  0.2029  0.2062  0.0432
19801W        W24201  26.630   7.643  17.772  0.0679 -0.2456 -0.1116
19802W        W24202  13.670   4.350  18.704 -0.1841 -0.1811 -0.1523
19803W        W24203   5.525   2.128  22.296 -0.0856  0.0317  0.3314
19804W        W24204   7.894   1.358  23.185  0.1681  0.0721 -0.0408
19805W        W24205  27.843   1.861   0.023  0.0725  0.2391 -0.0220
19806W        W24206   0.718   7.070   5.719 -0.2534 -0.1024 -0.0831
19807W        W24207  26.674   2.268   7.490  0.0342 -0.1472 -0.0788
19808W        W24208  15.617   5.903   4.835 -0.0359  0.0791  0.0917
19809W        W24209  31.175   2.329  20.954 -0.0125 -0.0245  0.0448
19810W        W24210  19.184   3.287   1.806 -0.3160  0.2105  0.1087
19811W        W24211   8.771   3.445  10.102  0.1284  0.1740  0.2614
19812W        W24212   3.006   4.841  20.312  0.0854 -0.0316 -0.0789
19813W        W24213  13.783   3.094   4.758  0.1764  0.3964  0.0592
19814W        W24214  24.609   5.196   7.093 -0.1723  0.0911  0.0305
19815W        W24215  12.464   1.196  18.873  0.0071  0.1130  0.2328
19816W        W24216  26.574   7.380  23.790 -0.1653  0.0204 -0.3912
19817W        W24217  14.718   3.505  16.198  0.4225 -0.0175  0.3482
19818W        W24218  10.511   5.317  17.935  0.1010 -0.0186  0.0579
19819W        W24219   1.693   3.532   3.683 -0.0633  0.0766  0.1765
19820W        W24220   1.175   2.692  21.574 -0.0976 -0.0820  0.0397
19821W        W24221  24.220   7.511   4.164  0.2374 -0.0422  0.0866
19822W        W24222  21.669   0.378  17.465 -0.2698 -0.2577 -0.3262
19823W        W24223  15.239   3.075   3.691 -0.1189  0.1661 -0.0042
19824W        W24224  24.342   5.774   0.813 -0.1049  0.0084 -0.1912
19825W        W24225   1.202   4.262   1.251  0.3049  0.0829 -0.1011
19826W        W24226   0.005   6.312  23.507  0.0480  0.0426 -0.1096
19827W        W24227   1.651   1.200  23.187  0.0862  0.2349  0.1174
19828W        W24228  10.430   6.130  17.059  0.2024  0.0454  0.2977
19829W        W24229  21.714   5.532   2.307  0.1021  0.0283 -0.0390
19830W        W24230  23.149   4.969   5.636  0.1844  0.0331 -0.1084
19831W        W24231   4.321   6.998  23.686  0.0741  0.2137  0.1034
19832W        W24232   1.936   3.958  18.971  0.0647  0.2403 -0.0728
19833W        W24233  22.308   7.601   2.388 -0.1448 -0.0185  0.2138
19834W        W24234  20.258   2.179   5.951  0.1290 -0.0072 -0.0721
19835W        W24235  11.072   1.839  16.468  0.2903 -0.0048 -0.2189
19836W        W24236  24.363   2.940  16.093  0.1215  0.3254 -0.1380
19837W        W24237  17.365   5.091   8.053  0.2200 -0.0794  0.2486
19838W        W24238  15.600   3.755  22.580  0.0626  0.1969 -0.2436
19839W        W24239  15.033   3.003  16.179  0.2630  0.1933  0.0250
19840W        W24240  16.863   1.609   0.356  0.0695 -0.1154 -0.1972
19841W        W24241   8.070   0.149   3.637 -0.0579  0.1159 -0.1820
19842W        W24242   1.997   0.591   5.809 -0.0110 -0.0982  0.0631
19843W        W24243  25.592   3.098   6.421 -0.0210 -0.0053  0.0864
19844W        W24244   6.795   7.741  24.308  0.0333 -0.1640 -0.1691
19845W        W24245  12.877   5.925   6.034  0.3185  0.0315 -0.0025
19846W        W24246  14.405   1.287   6.244  0.0356 -0.1392  0.1588
19847W        W24247  19.139   3.849  20.796 -0.1594  0.2107  0.1725
19848W        W24248  26.361   2.540   4.176  0.1758 -0.2916 -0.0077
19849W        W24249  21.182   0.703   7.443  0.0447 -0.2777  0.3046
19850W        W24250  26.808   4.348  25.259  0.1517  0.1351 -0.1811
19851W        W24251  23.771   2.653  24.985 -0.1590  0.0504 -0.1061
19852W        W24252   8.083   7.709  15.049  0.1115 -0.1050  0.1613
19853W        W24253  18.666   2.085   3.996  0.1247  0.1892 -0.3423
19854W        W24254  29.403   2.628  10.540  0.2335 -0.0843 -0.1582
19855W        W24255  14.919   3.447  15.280 -0.1348  0.0245  0.1132
19856W        W24256   5.902   1.575  24.111  0.3163 -0.3132  0.3201
19857W        W24257  11.397   5.704   8.784  0.2125 -0.0115  0.2270
19858W        W24258  21.925   4.838  19.987 -0.2105 -0.0894 -0.1890
19859W        W24259  13.730   7.170  18.722  0.0883 -0.1207 -0.2127
19860W        W24260  30.620   7.529  18.304  0.1740 -0.1807  0.1734
19861W        W24261  28.974   6.082  17.277 -0.4774  0.1375 -0.3189
19862W        W24262   1.967   1.121   9.825  0.0696  0.0830 -0.2964
19863W        W24263  18.651   7.713  18.850  0.1731  0.1942  0.2039
19864W        W24264  20.631   4.197   5.119 -0.0068  0.0329  0.0438
19865W        W24265   2.828   1.880  11.366 -0.1822 -0.0352 -0.1370
19866W        W24266   9.231   0.574   1.456  0.1373 -0.0688  0.0177
19867W        W24267  12.987   2.401  24.913 -0.1020  0.0147 -0.2365
19868W        W24268  30.823   6.750  18.934 -0.1122  0.0767 -0.0993
19869W        W24269   5.421   6.645   1.540  0.0958 -0.0027  0.1050
19870W        W24270  10.041   7.226   3.382  0.1189  0.0150 -0.1280
19871W        W24271  13.954   2.181  23.105  0.4225 -0.1029 -0.0560
19872W        W24272  25.278   6.505  23.738  0.0186  0.2886 -0.1816
19873W        W24273  24.945   3.034  15.299 -0.1108  0.1261 -0.3363
19874W        W24274  18.467   1.612   0.066  0.2554  0.2605 -0.1078
19875W        W24275   5.018   2.973   4.492 -0.0030 -0.2335  0.2598
19876W        W24276   0.684   4.439  15.416  0.0367  0.1340  0.2162
19877W        W24277  30.616   0.696  17.635  0.2883  0.1977 -0.3871
19878W        W24278   1.977   2.269   9.710 -0.0724 -0.0440  0.2197
19879W        W24279   4.152   0.016  17.713  0.2049  0.1972  0.0013
19880W        W24280  11.714   0.525  22.994 -0.1345  0.0274  0.1379
19881W        W24281   3.473   6.427   4.778 -0.1794  0.1602  0.1473
19882W        W24282  18.120   6.692  15.557 -0.0160  0.1905  0.1029
19883W        W24283  21.725   0.154   6.310 -0.1550 -0.2446  0.2615
19884W        W24284   9.217   5.245   3.518 -0.0213 -0.0787  0.1193
19885W        W24285   6.195   5.276  20.124  0.3376 -0.1209 -0.4363
19886W        W24286  24.245   7.303  19.814  0.0418  0.2182  0.0660
19887W        W24287   3.819   6.618  25.168 -0.0391 -0.1489  0.1318
19888W        W24288   7.187   2.115  19.939  0.2789 -0.2979  0.0417
19889W        W24289  17.290   6.661  18.858 -0.3578  0.0584  0.1540
19890W        W24290  18.280   0.987  14.714  0.0047  0.1005  0.1954
19891W        W24291   4.343   1.416  18.789 -0.0867  0.1466 -0.0381
19892W        W24292  10.067   1.856   5.210 -0.2902 -0.0903 -0.0923
19893W        W24293   3.299   0.247   1.972  0.0938 -0.0699 -0.0144
19894W        W24294  23.846   2.496  19.768  0.1553  0.0379 -0.5421
19895W        W24295   5.066   1.208  26.076 -0.1881 -0.0912 -0.3116
19896W        W24296  24.654   3.237   8.891 -0.0138  0.3563 -0.2147
19897W        W24297  13.226   6.375   9.398 -0.0725 -0.0502  0.2504
19898W        W24298  24.610   3.120  23.316 -0.0645  0.3679 -0.1261
19899W        W24299   5.075   2.658  22.459  0.2583 -0.1028 -0.3292
19900W        W24300   2.677   7.187  22.106 -0.0043 -0.0862  0.0023
19901W        W24301  21.070   3.160   7.743 -0.1220  0.3727  0.1428
19902W        W24302  27.212   4.150  18.901  0.1728 -0.1581  0.0125
19903W        W24303  30.257   4.529  25.330 -0.2464  0.1788  0.1324
19904W        W24304  22.341   6.298  16.081 -0.1683 -0.1001 -0.0076
19905W        W24305  20.399   4.509  25.166 -0.1376 -0.3587  0.0092
19906W        W24306  12.135   0.661  15.404 -0.1342 -0.0049  0.0204
19907W        W24307  13.187   4.257  18.493 -0.2014  0.1308  0.2519
19908W        W24308  28.750   6.501   9.245 -0.0293  0.0073  0.2621
19909W        W24309   8.842   6.023   5.721 -0.0113  0.2518 -0.3426
19910W        W24310   0.748   5.152   2.927  0.1464 -0.0672 -0.1684
19911W        W24311   1.667   3.707   7.733  0.1117 -0.1696 -0.1358
19912W        W24312  28.918   0.977  18.647 -0.4210 -0.0196  0.2380
19913W        W24313  12.280   0.139  18.999  0.0045  0.2034  0.1177
19914W        W24314  30.022   6.889  21.754 -0.1038  0.0948 -0.0309
19915W        W24315  25.825   2.726  21.290  0.3028 -0.0263 -0.0987
19916W        W24316  23.091   0.527  26.017  0.1071  0.0561 -0.4088
19917W        W24317  24.927   4.351  22.927  0.1068 -0.0869  0.0243
19918W        W24318  16.142   5.527  16.407 -0.1340 -0.1946 -0.0345
19919W        W24319   3.326   2.779   8.557 -0.0484 -0.1153  0.1301
19920W        W24320  13.188   0.821  15.171 -0.0886  0.0319  0.0485
19921W        W24321  11.096   5.201   8.790  0.2141 -0.0162  0.0430
19922W        W24322  16.874   1.696  18.308  0.3276  0.2762 -0.2331
19923W        W24323  13.024   3.420   5.094 -0.1689  0.3066 -0.0290
19924W        W24324  16.584   1.211  23.531  0.1184  0.2292  0.3137
19925W        W24325  30.448   7.378   9.820 -0.0668  0.1378  0.0587
19926W        W24326   8.293   2.874   7.194  0.0207 -0.1144 -0.1415
19927W        W24327  29.404   1.956   5.393  0.0858 -0.1386  0.4155
19928W        W24328  18.329   2.196   6.676 -0.2017  0.0099 -0.0843
19929W        W24329   9.982   2.088  23.164  0.1674  0.0268 -0.1805
19930W        W24330   7.983   0.642  10.061 -0.3218  0.0120 -0.0956
19931W        W24331   6.561   4.549   3.062  0.0258 -0.2532 -0.0428
19932W        W24332  29.598   6.981   9.395  0.0295 -0.0858 -0.0266
19933W        W24333   2.079   4.399   4.084  0.0832 -0.4597  0.1432
19934W        W24334   0.081   2.358  23.988  0.3673  0.2984 -0.4066
19935W        W24335  27.610   3.179   1.205  0.0324  0.1085 -0.1285
19936W        W24336  23.170   4.779   8.689  0.1140  0.3502 -0.1694
19937W        W24337  25.771   4.650  10.363 -0.0367 -0.0727 -0.1008
19938W        W24338  25.192   3.042  24.800 -0.5323  0.0613 -0.0155
19939W        W24339  30.640   4.064   3.367 -0.0081  0.0185 -0.2631
19940W        W24340   2.272   3.976  23.625  0.0135 -0.1340  0.3168
19941W        W24341  18.313   7.325   5.819  0.0687  0.0677  0.1813
19942W        W24342  25.394   5.332  20.059  0.0145 -0.1513 -0.0485
19943W        W24343   8.295   7.038   6.468  0.2387  0.0892 -0.3516
19944W        W24344  21.980   1.174  17.546 -0.0926  0.3913 -0.1007
19945W        W24345  10.434   1.760   8.538  0.1619 -0.4579  0.1986
19946W        W24346   1.038   1.038   7.941  0.0462  0.2734  0.0610
19947W        W24347  28.662   2.149   3.365 -0.0490 -0.0056  0.2035
19948W        W24348  11.274   4.014   1.995 -0.1196  0.0203  0.0478
19949W        W24349  27.146   7.748  16.821 -0.1241 -0.3580 -0.0491
19950W        W24350   3.036   3.544  15.749 -0.2004  0.0176 -0.0576
19951W        W24351  18.568   1.459   9.930 -0.3335  0.0396  0.0192
19952W        W24352  22.434   4.581  19.168 -0.0723 -0.0302  0.1912
19953W        W24353  14.347   3.027   7.974  0.0839  0.0195  0.0908
19954W        W24354  22.586   4.971  15.968  0.1296  0.0200 -0.2463
19955W        W24355  28.028   3.907  18.511  0.2573  0.0858 -0.0811
19956W        W24356   8.088   6.875  25.765  0.0966  0.1793 -0.3523
19957W        W24357  29.549   7.067  18.068  0.2234 -0.2627  0.0008
19958W        W24358  20.748   1.882  16.173  0.0376 -0.2742  0.2126
19959W        W24359   7.255   1.659   5.077 -0.0392  0.1458  0.1570
19960W        W24360  13.178   3.814  25.935 -0.0869  0.0258  0.0767
19961W        W24361  25.225   2.132   2.836  0.0604 -0.0471 -0.2077
19962W        W24362  22.636   1.095   7.762  0.2221 -0.3064 -0.0342
19963W        W24363  18.878   5.872  15.492  0.1431  0.2133 -0.0268
19964W        W24364  12.397   2.483   7.968 -0.0471  0.1977  0.0085
19965W        W24365  28.904   5.753   0.472  0.3838 -0.0956  0.1396
19966W        W24366   5.078   0.344  18.960 -0.0241  0.5076  0.0009
19967W        W24367  22.907   1.104   8.284 -0.1903  0.0035  0.2251
19968W        W24368   2.725   6.068  24.376  0.0125  0.2025 -0.3481
19969W        W24369   6.682   6.361   9.073  0.3863 -0.0047 -0.1726
19970W        W24370  22.938   2.816  19.467  0.0239  0.0356  0.2548
19971W        W24371  25.449   4.926  15.307 -0.3487 -0.1058  0.2530
19972W        W24372  23.469   5.326  15.667  0.1877  0.0686 -0.0927
19973W        W24373  24.256   0.928   7.737  0.0883 -0.0946 -0.0093
19974W        W24374  16.396   3.724   6.007  0.1050  0.2387  0.1294
19975W        W24375  14.182   1.252  22.438 -0.0730 -0.1311 -0.1210
19976W        W24376  13.662   0.782  23.122  0.2690 -0.0424  0.1582
19977W        W24377  25.082   7.798  21.188 -0.0213  0.1862 -0.1323
19978W        W24378   5.940   7.703  16.541  0.0757  0.0003  0.0911
19979W        W24379   4.795   0.912  19.595  0.0173 -0.0392 -0.0145
19980W        W24380  15.805   0.935   2.060  0.2188  0.1764  0.0989
19981W        W24381  21.680   2.144  23.338 -0.1586 -0.0974  0.0823
19982W        W24382  15.303   1.684   8.267 -0.2737 -0.2116 -0.4982
19983W        W24383   3.234   0.106  18.813  0.3504  0.3102 -0.0395
19984W        W24384  16.176   0.930  23.287  0.1516  0.0602  0.0797
19985W        W24385  10.549   4.980   2.780 -0.1500 -0.0005  0.3362
19986W        W24386  10.545   3.431  22.691 -0.3414 -0.0009 -0.1714
19987W        W24387  26.425   1.086   6.394 -0.0047 -0.0703  0.0473
19988W        W24388   4.275   1.326  21.128  0.0344  0.1329  0.0223
19989W        W24389  13.837   2.289  18.866 -0.1144  0.2840 -0.2856
19990W        W24390   8.642   4.859   8.437  0.1429 -0.1472 -0.0600
19991W        W24391  22.330   4.440   2.020 -0.0470 -0.0159  0.1332
19992W        W24392  15.278   3.676  16.389 -0.1790  0.0300 -0.0116
19993W        W24393   6.871   6.238  15.728 -0.1875  0.1164 -0.1900
19994W        W24394  20.990   6.360   0.362  0.1016  0.1791 -0.3681
19995W        W24395  20.020   4.128   1.086 -0.1187  0.1870 -0.3447
19996W        W24396  22.153   1.504  17.090 -0.1737 -0.1361 -0.0054
19997W        W24397  21.687   7.284   5.719  0.0655  0.0519 -0.1060
19998W        W24398  22.465   1.753  15.043 -0.0393 -0.0773  0.2967
19999W        W24399   2.517   0.709  18.533  0.0483 -0.1852  0.1387
20000W        W24400  20.710   3.740  25.639  0.2397  0.0355  0.2982
20001W        W24401  16.260   5.899  23.154 -0.0490  0.0895 -0.3084
20002W        W24402  29.451   3.915  19.673  0.0961  0.0736  0.1543
20003W        W24403  21.576   6.303  22.056  0.0990  0.1475 -0.1666
20004W        W24404  10.812   6.322  21.980 -0.1557 -0.0792 -0.1791
20005W        W24405  11.587   6.409  25.530 -0.2889  0.1224 -0.0605
20006W        W24406   8.676   1.348  17.778  0.1617  0.2420 -0.1328
20007W        W24407  28.241   0.885  23.377 -0.0482 -0.2366 -0.1444
20008W        W24408  23.486   0.093   2.398  0.0916  0.2864  0.3706
20009W        W24409  20.496   5.468  25.027  0.0215  0.3128 -0.2482
20010W        W24410   0.460   5.323  17.479 -0.0332  0.0380  0.1128
20011W        W24411  17.556   1.850  21.349  0.1235 -0.0936 -0.0355
20012W        W24412  16.721   5.801   4.911 -0.3294 -0.2163 -0.2304
20013W        W24413   8.566   3.783   2.947 -0.3681 -0.0109  0.1483
20014W        W24414   3.612   1.833   4.344 -0.1392  0.2770 -0.2362
20015W        W24415  23.655   2.636  18.041 -0.1050  0.1118  0.1913
20016W        W24416  22.757   4.526  16.849  0.2431 -0.0544  0.2331
20017W        W24417   4.841   5.243   9.724 -0.0564  0.0983  0.1596
20018W        W24418   3.892   3.976   7.481 -0.0394 -0.1426 -0.0110
20019W        W24419  26.972   7.293  10.058 -0.1383  0.0682 -0.1487
20020W        W24420  30.495   1.280  19.712  0.1855  0.0512 -0.2388
20021W        W24421  21.206   2.408  23.261  0.3140  0.0814 -0.0590
20022W        W24422   4.460   7.100   1.813  0.1861  0.1028 -0.0984
20023W        W24423   2.334   7.136   7.642 -0.1432  0.2427  0.1623
20024W        W24424   3.256   4.562   1.079  0.2222  0.1895 -0.0935
20025W        W24425  30.747   5.666  21.240 -0.2436 -0.0425  0.2075
20026W        W24426  23.222   6.914   6.167 -0.0084 -0.3273  0.1320
20027W        W24427  22.381   6.901  10.128 -0.1105 -0.0159  0.0487
20028W        W24428  26.310   4.613   0.211  0.0545 -0.1271 -0.2030
20029W        W24429   7.273   1.087  18.941  0.1155  0.5048 -0.1387
20030W        W24430   2.281   2.103   3.993 -0.1006 -0.0237 -0.1980
20031W        W24431   6.949   2.817  22.418  0.3118  0.0105  0.1589
20032W        W24432   8.001   4.901  18.014 -0.3718  0.0345 -0.1808
20033W        W24433   3.873   5.311   5.312  0.4016 -0.2418 -0.2211
20034W        W24434  24.148   7.028  17.363  0.3344  0.2337 -0.1564
20035W        W24435  11.789   3.095  18.961 -0.0258 -0.0260  0.1406
20036W        W24436  20.448   1.326  10.229  0.0906 -0.3357  0.2263
20037W        W24437   5.930   6.485  10.759  0.0881  0.1464  0.0241
20038W        W24438  24.926   2.742  10.109 -0.2498  0.1342 -0.1709
20039W        W24439  24.456   6.761   0.896 -0.1076  0.0267  0.1208
20040W        W24440  24.981   2.914   0.254 -0.0689  0.1810 -0.1829
20041W        W24441   3.560   5.720  20.312  0.0872  0.1431 -0.0376
20042W        W24442   0.507   1.030  17.656 -0.2214  0.0535 -0.0930
20043W        W24443  26.704   3.313   2.854  0.0739 -0.0959 -0.1773
20044W        W24444  26.768   2.467  19.923 -0.1220 -0.0800  0.1521
20045W        W24445   6.646   3.853   9.510 -0.0271  0.0203  0.0279
20046W        W24446   8.463   1.585  17.412 -0.3337 -0.1150  0.1493
20047W        W24447  27.858   4.282   8.518  0.0423  0.1071  0.2062
20048W        W24448  20.667   0.383  16.050  0.4950 -0.1681  0.1602
20049W        W24449  18.570   3.761   4.473  0.0619  0.1966 -0.1799
20050W        W24450   4.466   0.410  26.153  0.1385 -0.1038 -0.0042
20051W        W24451   9.537   0.513   6.837 -0.1107  0.1492 -0.1392
20052W        W24452  28.486   2.914  17.753  0.3199 -0.0438  0.1120
20053W        W24453  22.499   3.373  15.451  0.0196 -0.1506 -0.3006
20054W        W24454  25.957   2.182   7.659 -0.2287  0.0884 -0.2322
20055W        W24455   1.393   4.235   2.554  0.0976  0.0467  0.1358
20056W        W24456  17.367   0.639  10.686 -0.1302 -0.2335  0.0601
20057W        W24457  12.564   1.169   2.292  0.1122  0.3585  0.1457
20058W        W24458  14.619   6.805  15.536  0.0949 -0.2845  0.0046
20059W        W24459  13.561   6.137   2.612 -0.2953  0.0494 -0.1842
20060W        W24460   5.947   1.776   0.665  0.2202  0.0027 -0.1023
20061W        W24461  22.750   0.788  24.225 -0.1092  0.0545 -0.2292
20062W        W24462  16.486   3.185  23.715  0.1946  0.0467  0.0737
20063W        W24463  27.477   6.514  18.386  0.0338  0.1946 -0.0756
20064W        W24464  24.714   6.587  23.765 -0.2155  0.3747 -0.1000
20065W        W24465  15.754   3.550  10.103 -0.1327  0.1263 -0.0627
20066W        W24466  24.382   1.753  15.619 -0.1301 -0.3492 -0.1301
20067W        W24467   9.359   5.740  16.390  0.1323 -0.1670  0.0818
20068W        W24468   9.607   2.228  17.768  0.2488  0.0694  0.1183
20069W        W24469  10.519   1.057   7.129 -0.0272  0.0869 -0.1629
20070W        W24470  21.159   0.116  26.050  0.2238  0.2270 -0.0760
20071W        W24471  30.098   4.218  16.888 -0.0238 -0.1737 -0.1128
20072W        W24472   6.284   2.696   1.585 -0.1468  0.0036  0.0748
20073W        W24473  16.873   5.118  15.782  0.0667 -0.0623 -0.4258
20074W        W24474  27.705   5.686   4.102  0.0477 -0.2545 -0.0233
20075W        W24475  28.380   5.584  21.024 -0.1707  0.0161  0.0307
20076W        W24476  15.139   5.886  17.351  0.1241  0.0611 -0.4225
20077W        W24477  18.652   2.227   0.410 -0.1316 -0.0490 -0.2082
20078W        W24478   7.539   0.017  25.066 -0.1722 -0.0788 -0.0943
20079W        W24479  14.147   7.311  24.885  0.1204  0.0484 -0.1667
20080W        W24480  14.932   6.879  16.440 -0.3219 -0.3736  0.1444
20081W        W24481  12.091   5.554  15.176  0.0676 -0.1252 -0.3602
20082W        W24482  30.598   1.225   4.755  0.2243  0.0945  0.2399
20083W        W24483  18.814   2.524  23.039  0.0660 -0.3242 -0.0861
20084W        W24484   9.972   5.945   8.603  0.1569 -0.1480 -0.2909
20085W        W24485   0.135   4.031   1.920 -0.3355  0.3052 -0.3087
20086W        W24486   9.765   1.109  17.538  0.2988  0.2881 -0.5065
20087W        W24487   7.532   5.906   2.692 -0.4402 -0.3694  0.2462
20088W        W24488  28.655   1.659   0.020  0.0947  0.1571  0.2143
20089W        W24489  23.348   1.086  18.672 -0.1384 -0.2387  0.1583
20090W        W24490  12.068   6.177  10.931  0.0996 -0.0612  0.1151
20091W        W24491  12.088   1.344  19.347  0.1975 -0.1630 -0.0735
20092W        W24492   4.340   3.940  18.751 -0.1315  0.0101 -0.1223
20093W        W24493  18.627   5.892  20.704 -0.1264 -0.0175 -0.1786
20094W        W24494   2.046   2.646   0.205  0.2161 -0.1172 -0.2317
20095W        W24495  22.005   6.924  19.030 -0.0376  0.1346 -0.3296
20096W        W24496   4.303   6.807  17.297 -0.0939 -0.1174  0.1887
20097W        W24497  28.725   2.544  23.091  0.1966 -0.0894  0.0518
20098W        W24498  28.895   6.861   9.928 -0.2960 -0.2064 -0.2382
20099W        W24499  21.158   5.096   7.297 -0.0223  0.1126 -0.2096
20100W        W24500  12.560   2.738  18.778 -0.1842  0.4681  0.0585
20101W        W24501  30.712   3.213  25.423 -0.2864  0.0783  0.0642
20102W        W24502  13.163   6.820   1.921  0.0140  0.0735  0.1753
20103W        W24503  16.892   5.556  25.159  0.1193 -0.3699 -0.0267
20104W        W24504   5.053   1.963  18.174 -0.0621  0.1376 -0.0900
20105W        W24505   5.022   5.367  23.681  0.0242  0.1351 -0.0545
20106W        W24506   6.113   1.349   0.455 -0.2578 -0.2605  0.1102
20107W        W24507   1.464   5.792   4.977  0.0449  0.1498  0.1163
20108W        W24508   0.820   3.902  21.358  0.0838 -0.1043 -0.2487
20109W        W24509  12.100   1.208   5.808  0.0746 -0.2339  0.1432
20110W        W24510   4.935   4.269   8.127 -0.1543  0.1944  0.1316
20111W        W24511   7.215   3.959  24.385 -0.2582  0.0488  0.1426
20112W        W24512  21.873   2.480   8.699 -0.1812  0.1874 -0.2148
20113W        W24513  17.406   4.553   0.649  0.1105  0.1312  0.0676
20114W        W24514   8.339   3.318  15.526  0.1152 -0.2224 -0.1070
20115W        W24515  19.227   1.826   6.497  0.1395 -0.1801  0.3073
20116W        W24516  25.305   6.528   7.937  0.2280 -0.0670 -0.3273
20117W        W24517   3.787   3.235  17.696 -0.0039  0.2069 -0.1118
20118W        W24518  18.370   7.059   4.131  0.2521 -0.1911  0.0035
20119W        W24519  22.088   6.072  18.823  0.0500 -0.0285  0.0526
20120W        W24520  10.378   0.388  23.235  0.2127 -0.2230 -0.0645
20121W        W24521  22.877   1.549  19.245  0.2498  0.0912  0.4649
20122W        W24522   4.343   6.694   9.416 -0.0548  0.2475 -0.0555
20123W        W24523   8.806   2.240  24.598 -0.0249  0.0181 -0.0941
20124W        W24524  30.337   6.364  11.714 -0.0331 -0.0214 -0.2244
20125W        W24525  27.649   4.194  23.416  0.0895 -0.0016  0.1124
20126W        W24526   2.172   4.748   8.180 -0.1354 -0.1467  0.1220
20127W        W24527   0.525   7.357   5.173 -0.1395 -0.1413  0.1022
20128W        W24528  30.564   5.980   7.634  0.0709  0.0026  0.0119
20129W        W24529  12.841   6.176  26.023  0.0549 -0.0975 -0.3752
20130W        W24530   1.948   0.760  21.407  0.0175 -0.0037 -0.1271
20131W        W24531   3.974   4.741  17.212  0.0173  0.1644 -0.0861
20132W        W24532  12.138   5.259   6.501 -0.5001  0.2039 -0.0268
20133W        W24533   7.941   0.097   4.880  0.0030  0.1984 -0.1383
20134W        W24534  15.850   1.233  21.128  0.0417 -0.0744  0.0395
20135W        W24535  25.925   4.361  18.564 -0.0270 -0.2311 -0.1660
20136W        W24536   2.331   2.715  23.880 -0.0292 -0.2703  0.0331
20137W        W24537   7.926   1.413  19.594  0.0952 -0.3303 -0.0047
20138W        W24538   0.898   7.574   5.789 -0.2602 -0.0840  0.1480
20139W        W24539  21.882   4.423  23.610 -0.0924  0.0180  0.1392
20140W        W24540   6.226   4.869   0.854  0.1154 -0.1208  0.2687
20141W        W24541  15.512   0.647  26.041  0.0334  0.1604 -0.1243
20142W        W24542  28.749   0.474   5.030 -0.1495  0.0751  0.2372
20143W        W24543  11.765   1.046   4.584 -0.2102  0.2690 -0.1625
20144W        W24544  27.769   2.176  16.863 -0.0132 -0.3447 -0.0449
20145W        W24545  23.005   5.303  24.817 -0.0202  0.1892 -0.3443
20146W        W24546  15.119   0.791  18.370 -0.0278  0.1848  0.0082
20147W        W24547  10.111   2.213  25.092 -0.1887 -0.1066 -0.0831
20148W        W24548  30.918   0.236   4.474 -0.1564  0.2365 -0.2794
20149W        W24549   2.606   1.555  25.508 -0.0391  0.5261  0.1723
20150W        W24550  18.622   3.266  18.545 -0.1378  0.1898 -0.1049
20151W        W24551   8.828   5.948   3.715  0.1947 -0.1510  0.3131
20152W        W24552  12.196   0.472  26.146  0.0866  0.1873 -0.2205
20153W        W24553  29.641   1.970  21.582 -0.1239 -0.0222  0.0833
20154W        W24554   7.634   7.221  22.475  0.2496 -0.1101 -0.0226
20155W        W24555   1.905   4.753   0.699 -0.0234  0.0595  0.1467
20156W        W24556   8.730   4.673  15.560 -0.0627 -0.1135  0.0626
20157W        W24557  12.399   5.863  23.444  0.0815  0.2422  0.3002
20158W        W24558  24.570   0.769  20.434 -0.1359 -0.0955  0.3380
20159W        W24559  29.422   6.597   7.541  0.0822  0.0695 -0.2045
20160W        W24560  22.882   2.367  15.191  0.0733  0.0170  0.1363
20161W        W24561  18.135   2.448   7.107  0.2406  0.5901 -0.1745
20162W        W24562  21.813   5.207  22.385  0.1379 -0.1403 -0.2661
20163W        W24563  25.428   4.177  18.915  0.0990 -0.1576 -0.1455
20164W        W24564  19.933   7.447   9.660 -0.0379 -0.2410  0.0066
20165W        W24565  16.338   5.950  16.594 -0.0390 -0.2489 -0.1068
20166W        W24566  28.825   6.710  22.243 -0.1607 -0.2832 -0.1049
20167W        W24567  19.166   1.736  25.741 -0.3460 -0.4301 -0.2772
20168W        W24568  20.359   4.318  15.510 -0.1901 -0.1144 -0.1711
20169W        W24569   0.210   4.490  16.197  0.1137 -0.2219  0.3491
20170W        W24570  25.526   4.134  19.881 -0.2325 -0.0856 -0.0606
20171W        W24571  31.001   1.020   5.704 -0.2398 -0.1571 -0.0811
20172W        W24572   0.337   3.335  25.215  0.0888  0.2056  0.1508
20173W        W24573   3.613   5.638  23.440  0.1582 -0.2035  0.1038
20174W        W24574   4.463   7.413  10.027 -0.0374 -0.0148 -0.2717
20175W        W24575  18.877   7.283  24.839  0.0011 -0.0573 -0.1812
20176W        W24576   2.610   1.640  10.018  0.3319  0.0663 -0.2802
20177W        W24577   5.831   2.239  16.906  0.0926 -0.1816 -0.0902
20178W        W24578   4.508   1.990  16.627  0.0479  0.2433 -0.2322
20179W        W24579   4.875   2.606  24.400  0.1710 -0.0687 -0.3677
20180W        W24580  30.239   3.497  19.576 -0.2108  0.0360  0.0150
20181W        W24581  22.149   2.409   7.618  0.1148  0.0166 -0.0075
20182W        W24582   9.141   1.806  10.305 -0.0753 -0.1616 -0.2735
20183W        W24583   2.837   7.703  24.566 -0.1050 -0.0032 -0.0956
20184W        W24584   3.694   0.145   7.288 -0.3481 -0.0073  0.3376
20185W        W24585  26.063   7.622  18.049  0.0232  0.0241 -0.0780
20186W        W24586   4.818   6.877  19.260  0.1486 -0.1597  0.2258
20187W        W24587  17.380   3.748  17.182  0.0126  0.0249 -0.0067
20188W        W24588  16.863   5.274   4.103  0.1211  0.1500 -0.0817
20189W        W24589  15.307   2.430   2.734 -0.0994 -0.1021  0.0895
20190W        W24590  26.832   0.222  15.706 -0.1083 -0.0892  0.0986
20191W        W24591   4.394   1.161   5.854  0.0239  0.1532  0.1832
20192W        W24592  13.479   2.839  19.562  0.0137 -0.0308 -0.1595
20193W        W24593  14.791   5.156   8.665 -0.0099  0.0913  0.1566
20194W        W24594  13.931   0.813  24.859 -0.1048 -0.0642 -0.2040
20195W        W24595  26.136   5.491   0.765 -0.2309  0.2435 -0.0023
20196W        W24596  22.570   1.641  16.429 -0.0943  0.0896  0.0251
20197W        W24597  19.314   0.208   9.385 -0.1069 -0.1618 -0.2107
20198W        W24598  20.558   3.507   8.969  0.1109 -0.0302  0.1416
20199W        W24599   0.472   3.262   0.908 -0.0863 -0.2433  0.1981
20200W        W24600  10.983   6.449  19.548 -0.1943  0.0117 -0.0143
20201W        W24601   4.501   1.220  10.684 -0.3663 -0.1329 -0.1584
20202W        W24602  14.288   2.826  20.467  0.2253 -0.3706 -0.2471
20203W        W24603  16.333   7.065  19.461 -0.0111 -0.0572  0.2694
20204W        W24604  11.854   3.487  25.251  0.0226 -0.0098 -0.0144
20205W        W24605  31.131   6.483  23.054 -0.0670  0.1137 -0.0972
20206W        W24606  23.950   3.078   4.139 -0.3059  0.0181  0.0548
20207W        W24607  23.783   6.688  17.385 -0.0993  0.5944 -0.0356
20208W        W24608   6.444   2.254  20.336 -0.2174  0.0939 -0.2427
20209W        W24609  16.876   0.766  23.715 -0.4527  0.1962 -0.0065
20210W        W24610  19.082   4.658   4.545  0.1215 -0.1910  0.0903
20211W        W24611  23.522   1.984  21.146 -0.1448  0.1920  0.2280
20212W        W24612  22.567   2.887   8.148  0.2559  0.1318  0.1232
20213W        W24613  23.957   2.128   6.634 -0.0831 -0.1512 -0.0955
20214W        W24614   1.001   4.772   6.884  0.5374  0.2498  0.1842
20215W        W24615   6.104   5.088  25.906 -0.0020  0.1907 -0.2581
20216W        W24616  26.375   1.399  23.231 -0.1884 -0.0587 -0.0852
20217W        W24617  12.076   1.779  21.032 -0.1054  0.0621  0.1145
20218W        W24618  19.744   2.764  22.064 -0.0615  0.2087  0.2735
20219W        W24619  20.550   0.926  17.577  0.1842 -0.3110 -0.0962
20220W        W24620  14.343   2.693  11.079  0.2640  0.1823  0.0972
20221W        W24621   5.096   0.062   3.738  0.1522  0.0516 -0.1328
20222W        W24622  12.105   4.443  19.608  0.0918  0.2122  0.1488
20223W        W24623  30.994   2.293  21.788 -0.2243 -0.1489  0.1691
20224W        W24624  23.211   4.861   2.709 -0.0471  0.0766 -0.3580
20225W        W24625  12.426   3.234  20.355 -0.2878  0.2054  0.0343
20226W        W24626   5.194   2.451  10.264  0.0962  0.2910  0.3089
20227W        W24627   3.500   1.330   4.205  0.0240 -0.0744 -0.0977
20228W        W24628  11.208   6.779   6.903 -0.0871  0.2481  0.0689
20229W        W24629  26.313   0.644   6.621 -0.0004  0.1359  0.1127
20230W        W24630  14.348   1.655  20.664 -0.1058 -0.1112 -0.2733
20231W        W24631  15.505   3.311  24.807 -0.0646  0.2219  0.0304
20232W        W24632  22.109   5.365  14.833  0.3501  0.2800  0.3941
20233W        W24633  22.318   0.790  17.336  0.0927 -0.0487  0.0116
20234W        W24634   3.400   6.838  10.834  0.0373  0.3348 -0.3056
20235W        W24635  16.134   2.228  25.853  0.1126 -0.0340 -0.1697
20236W        W24636  26.563   3.462  24.369  0.1540 -0.0667  0.0791
20237W        W24637  27.557   2.900  17.403  0.0069 -0.1183  0.0476
20238W        W24638  19.342   5.628   3.260 -0.1573  0.2025  0.0078
20239W        W24639  10.675   5.781   9.330 -0.0666 -0.1143 -0.0929
20240W        W24640  20.139   2.643  21.804  0.0143  0.2387  0.0962
20241W        W24641  23.645   1.820   0.172  0.2866 -0.2013  0.1830
20242W        W24642  24.361   6.098  20.942 -0.1727  0.0147 -0.3071
20243W        W24643   8.467   0.396   2.557 -0.2590  0.1942  0.0673
20244W        W24644  16.005   5.271  18.128 -0.0616  0.1698  0.2792
20245W        W24645   2.002   0.132  21.595  0.2183  0.0469  0.5978
20246W        W24646  14.940   0.906  22.062  0.0193 -0.0558 -0.1204
20247W        W24647  24.742   4.714  18.573  0.2734 -0.1684  0.3316
20248W        W24648  24.148   2.776  20.049 -0.2099 -0.2330 -0.0130
20249W        W24649  18.526   7.404  24.498  0.3317 -0.1433 -0.2282
20250W        W24650   7.627   3.949  18.829  0.1002 -0.0300 -0.1200
20251W        W24651   0.183   6.927   0.763  0.2567 -0.1020  0.2838
20252W        W24652   3.940   2.155  23.747 -0.1786  0.1876  0.0633
20253W        W24653   6.408   2.024   5.915 -0.3298 -0.2854 -0.1983
20254W        W24654  10.138   3.031  20.847 -0.2138  0.2265  0.3261
20255W        W24655  12.265   5.715   0.069  0.0313 -0.0675 -0.0223
20256W        W24656  10.681   5.412   0.401  0.1771  0.2787  0.1240
20257W        W24657  29.785   3.606   0.258  0.2437 -0.0070 -0.2475
20258W        W24658  13.009   4.548  23.331  0.0535  0.1000  0.0583
20259W        W24659  22.325   5.472   7.397 -0.2225 -0.1672 -0.1617
20260W        W24660  25.180   6.831  15.097 -0.1221 -0.0445 -0.3370
20261W        W24661  20.163   6.388  22.683 -0.2606  0.0308 -0.0823
20262W        W24662  10.874   5.053   4.305 -0.1304 -0.3877  0.1264
20263W        W24663  12.425   3.262  16.483  0.1351  0.1835  0.1830
20264W        W24664  13.943   0.601  15.759  0.0512 -0.3282 -0.2564
20265W        W24665  24.038   2.892   2.045 -0.0861 -0.0318 -0.0895
20266W        W24666  13.828   2.903  20.487 -0.1427  0.1239 -0.0315
20267W        W24667  16.450   6.477  25.733  0.0573 -0.0509  0.0354
20268W        W24668  22.472   4.763  18.284 -0.0321 -0.2602  0.0257
20269W        W24669  18.266   2.951  18.311  0.0663  0.2487 -0.1020
20270W        W24670  17.022   1.487   7.813 -0.1515  0.2543 -0.0840
20271W        W24671   6.688   4.361   1.827 -0.0109 -0.0012  0.0446
20272W        W24672  25.147   1.535  17.301  0.0436 -0.2354 -0.2497
20273W        W24673   4.924   1.479  23.818  0.0444 -0.0473  0.0484
20274W        W24674   5.371   5.936  21.262  0.0331  0.2526 -0.2310
20275W        W24675  11.931   6.575  19.943  0.2316 -0.0483 -0.0404
20276W        W24676   7.617   0.530  25.313  0.2675  0.1324  0.0798
20277W        W24677   4.017   5.874  22.472 -0.3310 -0.0896  0.0195
20278W        W24678   9.820   2.507  18.729 -0.3602  0.1084 -0.3231
20279W        W24679  18.459   5.807   7.960  0.1070 -0.2562  0.1708
20280W        W24680  16.975   0.115   7.354 -0.2022 -0.0854 -0.0617
20281W        W24681   7.005   7.732  15.073 -0.0973 -0.0506 -0.1227
20282W        W24682  10.883   6.303  17.129  0.1733 -0.2295 -0.0550
20283W        W24683  10.603   0.730   6.658  0.0454 -0.0770  0.1136
20284W        W24684  23.071   6.969  14.985  0.2084  0.2143 -0.1485
20285W        W24685   1.748   1.230  19.460 -0.1094  0.1561 -0.1882
20286W        W24686  27.319   3.738   7.971 -0.0114 -0.1786 -0.0118
20287W        W24687  19.254   4.322  20.755 -0.2463  0.0641 -0.2415
20288W        W24688   6.026   7.273  18.549  0.0443 -0.0300 -0.0287
20289W        W24689  23.890   6.315  22.887  0.2019  0.2677 -0.1369
20290W        W24690  29.969   4.713  20.885 -0.0347 -0.1581  0.1473
20291W        W24691  24.181   3.855   5.079 -0.0889 -0.1441 -0.1649
20292W        W24692   5.696   7.377  19.501 -0.1814  0.0205 -0.1704
20293W        W24693   7.655   2.735  18.819 -0.3544  0.1576  0.1405
20294W        W24694   3.243   4.909  25.627  0.1249 -0.0041  0.0943
20295W        W24695  22.870   7.507   0.140  0.0996 -0.1797  0.0468
20296W        W24696  10.763   1.250  22.954  0.0996 -0.1143  0.0254
20297W        W24697  27.162   0.664   0.013 -0.0524 -0.0800 -0.0500
20298W        W24698   6.007   3.509  21.729 -0.3032  0.0738  0.0227
20299W        W24699  28.124   4.215  21.352  0.0323 -0.2815 -0.2446
20300W        W24700   9.646   6.776   3.165 -0.0288  0.1460 -0.1230
20301W        W24701  26.188   3.321   8.866  0.0231 -0.1490  0.1172
20302W        W24702  11.228   0.361   5.786 -0.1378  0.2158  0.2447
20303W        W24703  14.258   1.014   0.846  0.0804  0.1644 -0.2829
20304W        W24704  25.789   3.188   2.328  0.1033  0.0621 -0.0816
20305W        W24705  11.702   1.570  16.535  0.1512  0.1357  0.0098
20306W        W24706  15.398   1.390  20.909 -0.2057  0.3436 -0.1487
20307W        W24707  16.196   7.801   0.306  0.1081 -0.0685  0.0822
20308W        W24708  18.838   1.150  16.700  0.0743 -0.1292 -0.0847
20309W        W24709  27.844   5.895   0.194 -0.0573 -0.0587 -0.0001
20310W        W24710  15.169   3.182   4.184  0.1671  0.0626  0.0963
20311W        W24711  25.517   7.640  15.354 -0.0701  0.4150  0.0096
20312W        W24712  24.843   6.049  26.129 -0.0726 -0.0613  0.0401
20313W        W24713  20.254   3.936  22.730 -0.3916 -0.0754  0.0851
20314W        W24714   2.711   0.399  15.561 -0.2815 -0.1242  0.1076
20315W        W24715  20.347   4.251  24.708  0.1504  0.0682 -0.1606
20316W        W24716  14.597   0.645  17.005  0.0953 -0.2284  0.0725
20317W        W24717  14.422   6.848   0.373 -0.0927 -0.1952  0.1377
20318W        W24718  27.884   1.567   4.812 -0.1302  0.2749 -0.0187
20319W        W24719  30.799   5.504  16.213 -0.3386 -0.1034  0.0843
20320W        W24720  18.068   4.609  18.278  0.0145 -0.2931 -0.4262
20321W        W24721  13.843   4.158   8.386  0.0984 -0.1403 -0.0329
20322W        W24722  15.021   0.310  18.237 -0.2075  0.4574 -0.0666
20323W        W24723  15.586   3.608  23.989 -0.1802  0.4708 -0.0689
20324W        W24724  22.417   3.279   2.934  0.1393  0.0394 -0.0224
20325W        W24725   3.825   5.305   7.959  0.1846 -0.0947  0.0622
20326W        W24726   3.696   4.586   8.487  0.0322  0.1788  0.2036
20327W        W24727  10.136   3.718  17.389 -0.0737 -0.0086 -0.1891
20328W        W24728  26.771   4.174   4.357  0.0350  0.1849 -0.1111
20329W        W24729   7.182   4.690   0.654 -0.0951  0.0867  0.0189
20330W        W24730   6.322   0.351   9.110  0.0391 -0.3225  0.1766
20331W        W24731   2.383   0.023   7.975  0.1783 -0.0880  0.0965
20332W        W24732   6.226   0.767  17.357 -0.0378 -0.0774  0.1160
20333W        W24733   9.096   4.886   3.930 -0.0211  0.0549 -0.0615
20334W        W24734  10.208   5.777  23.864 -0.0737  0.0903  0.3052
20335W        W24735  18.061   5.750  17.810  0.0414  0.0251 -0.1614
20336W        W24736  17.039   1.261   4.295 -0.1990  0.2251 -0.2550
20337W        W24737  30.310   6.904  21.351 -0.1940  0.0689  0.0412
20338W        W24738  11.417   3.037  18.170 -0.1742  0.0717 -0.3400
20339W        W24739  17.777   0.454  19.761 -0.3191 -0.0333 -0.0778
20340W        W24740  30.692   5.080   1.922 -0.0577  0.0734 -0.0802
20341W        W24741  13.939   6.405   2.776  0.0940 -0.0129 -0.2166
20342W        W24742  29.003   0.398  10.818  0.1575 -0.0037  0.0833
20343W        W24743  13.637   6.833   5.160  0.0968 -0.1532 -0.4657
20344W        W24744  29.779   0.088   5.192  0.0003  0.1848 -0.0308
20345W        W24745  18.788   4.769  19.795  0.0425  0.1412 -0.3885
20346W        W24746  24.611   2.580  25.275 -0.0886  0.1845 -0.1931
20347W        W24747  26.443   1.001  16.360 -0.0199 -0.0358 -0.1344
20348W        W24748  17.038   0.264   9.823  0.0021 -0.0454  0.1176
20349W        W24749  19.238   4.038  18.564  0.0339 -0.2000 -0.1320
20350W        W24750  19.751   5.732  23.958  0.1737  0.0613 -0.0958
20351W        W24751  30.993   2.572   5.994  0.2808  0.3819  0.6114
20352W        W24752  29.240   5.594   7.983  0.1442 -0.0924  0.1656
20353W        W24753   5.678   6.383   0.685  0.3415  0.3958 -0.3443
20354W        W24754   7.825   3.380  25.992  0.0283 -0.3398  0.0528
20355W        W24755  28.296   4.995  24.357 -0.0634 -0.0042  0.2418
20356W        W24756   6.971   5.079   6.848  0.0280  0.1012  0.1267
20357W        W24757  22.214   0.812   5.975 -0.2657  0.0031 -0.1471
20358W        W24758  19.804   2.713   7.513  0.0488  0.1390  0.1791
20359W        W24759  22.483   2.197  25.082  0.1229  0.1093 -0.1227
20360W        W24760  19.797   3.715   7.470 -0.2378  0.1682  0.0238
20361W        W24761  27.793   7.334   4.215  0.0565  0.1452 -0.2336
20362W        W24762  22.599   6.392   3.173  0.2274  0.1493 -0.2760
20363W        W24763  19.858   4.355   2.309  0.1308  0.3260  0.0928
20364W        W24764   7.706   6.618  22.970 -0.1559 -0.1645 -0.0062
20365W        W24765   5.662   4.836  21.661  0.0459 -0.0326  0.1489
20366W        W24766  11.413   0.774  25.283  0.0231  0.0489 -0.0814
20367W        W24767   7.549   0.712  20.207  0.0200  0.1946 -0.1259
20368W        W24768  12.633   0.423   6.187 -0.0399 -0.3135  0.0809
20369W        W24769  12.366   1.484   2.694 -0.3568  0.2581  0.0638
20370W        W24770   9.094   3.715   6.491  0.2309 -0.1974 -0.1462
20371W        W24771   9.135   5.799  20.840  0.2166 -0.3367  0.1210
20372W        W24772   4.996   2.971  18.949 -0.0100 -0.2563 -0.2296
20373W        W24773  26.749   1.084  20.624 -0.1201  0.0837  0.3757
20374W        W24774   9.588   5.813  16.817  0.3700 -0.1675  0.1338
20375W        W24775  10.075   5.133  10.202 -0.0242  0.0373  0.1359
20376W        W24776  10.718   1.825  17.830  0.1405  0.0900  0.2127
20377W        W24777  18.708   0.869  18.782 -0.1281 -0.1082  0.2378
20378W        W24778   1.963   7.629   6.477 -0.0778  0.1587  0.0223
20379W        W24779  18.766   4.016   1.716  0.0153  0.1273  0.1605
20380W        W24780  17.488   4.231  15.621 -0.6375 -0.2501 -0.1874
20381W        W24781   4.728   3.544   2.360  0.0844  0.2981  0.0378
20382W        W24782  24.132   5.029  10.630 -0.1160  0.2305  0.1066
20383W        W24783  27.038   3.580   8.515  0.1965 -0.2435 -0.1517
20384W        W24784   2.489   7.324   0.320 -0.1112 -0.1537 -0.3182
20385W        W24785  25.795   4.902   6.230 -0.4010  0.1903  0.0758
20386W        W24786   3.681   0.706   3.615  0.0859 -0.2028  0.1311
20387W        W24787  28.883   2.222  21.326 -0.1513 -0.2331  0.0888
20388W        W24788  18.176   4.784  23.413 -0.2205  0.0172 -0.2116
20389W        W24789  19.655   4.018  25.568  0.0157 -0.0615  0.0792
20390W        W24790  22.413   7.744  25.193  0.1735 -0.0518 -0.2591
20391W        W24791   5.589   4.607  22.111  0.4133 -0.0600  0.0338
20392W        W24792   0.966   5.574  11.692 -0.1372  0.0719  0.0544
20393W        W24793  24.612   5.147  20.897  0.2471 -0.0116 -0.1164
20394W        W24794  23.837   4.534  25.481  0.0437  0.0586  0.2207
20395W        W24795   2.107   4.214   0.860 -0.0867  0.0881  0.0812
20396W        W24796   5.021   6.333   4.488  0.1295 -0.1926 -0.0948
20397W        W24797  19.421   1.845   9.644 -0.1092 -0.2800  0.1949
20398W        W24798  29.957   6.409  21.803  0.1606 -0.1014  0.0802
20399W        W24799  20.129   7.142  16.859 -0.2328  0.1699 -0.1320
20400W        W24800  19.138   0.133  19.520  0.1829 -0.1391 -0.2539
20401W        W24801   7.157   1.478  22.227 -0.0710  0.0320  0.0738
20402W        W24802   7.668   0.388   5.128  0.3162  0.2619  0.1347
20403W        W24803  16.844   6.734  24.527 -0.0152 -0.0980  0.0455
20404W        W24804  26.624   7.424   2.503  0.0810  0.0712  0.2049
20405W        W24805  26.760   6.592   3.800  0.1905 -0.0639 -0.4703
20406W        W24806   8.175   6.114   9.588  0.0265  0.0452  0.2359
20407W        W24807  18.542   4.413  17.550  0.0949  0.0497  0.0272
20408W        W24808  11.781   3.461  22.325 -0.1098  0.0177 -0.0346
20409W        W24809   3.814   4.523   9.395  0.0813 -0.2015  0.0567
20410W        W24810  14.258   4.886  23.471 -0.2279  0.2156 -0.1525
20411W        W24811  16.058   3.671   2.579 -0.0614  0.1085 -0.1769
20412W        W24812   4.307   4.249  21.473  0.0623 -0.3338  0.1610
20413W        W24813   8.423   1.013   7.085 -0.1897  0.1392 -0.0950
20414W        W24814   9.936   7.250   3.931  0.2411  0.0156 -0.1167
20415W        W24815   8.211   7.812   8.622  0.1909 -0.0802  0.2110
20416W        W24816   0.337   6.239   7.307  0.1686  0.0620  0.0195
20417W        W24817   4.766   4.134   9.185 -0.1138 -0.0071 -0.1149
20418W        W24818   7.876   6.926  21.172  0.5127 -0.0346  0.0406
20419W        W24819  19.401   1.862  24.333 -0.1612 -0.0080  0.1049
20420W        W24820  28.115   7.042  20.937  0.0231 -0.1859 -0.0486
20421W        W24821  14.932   2.365  17.150 -0.0843  0.0299 -0.3006
20422W        W24822  30.469   6.740   6.283  0.1100  0.1178 -0.3201
20423W        W24823  10.369   2.460  24.312  0.0442  0.3441  0.0738
20424W        W24824  27.835   5.524  23.346 -0.3433  0.1003  0.1607
20425W        W24825  27.884   6.495  22.326  0.1320 -0.3308  0.0201
20426W        W24826   4.624   7.691  16.687 -0.0359 -0.0591  0.0905
20427W        W24827  20.261   3.005   2.026  0.1565  0.1435 -0.0714
20428W        W24828  29.587   3.254  24.030 -0.2739  0.1789 -0.2763
20429W        W24829  23.758   3.997  20.087  0.1169  0.1953  0.0281
20430W        W24830   2.238   3.817  19.412 -0.0721 -0.1634 -0.2743
20431W        W24831  22.122   2.761  14.716  0.3497  0.0409  0.0469
20432W        W24832   4.652   1.888   2.189  0.2079 -0.3047  0.1536
20433W        W24833  11.364   0.274   4.701 -0.2702 -0.0409 -0.1031
20434W        W24834  14.726   2.601  18.461 -0.0005 -0.1094  0.0568
20435W        W24835   0.661   3.291   3.972 -0.2020  0.2699  0.1149
20436W        W24836   4.356   0.004   7.763  0.5340 -0.2047 -0.1019
20437W        W24837  19.875   1.678   3.464 -0.1066  0.0925 -0.0311
20438W        W24838  14.227   2.856  26.114 -0.0384 -0.2671  0.0218
20439W        W24839  17.067   5.310  24.268 -0.2758 -0.0829 -0.0766
20440W        W24840  17.654   3.311   9.002 -0.0721  0.1096 -0.2166
20441W        W24841  10.564   4.708  17.441 -0.1268 -0.1543  0.3413
20442W        W24842   1.943   3.461   4.970  0.2962  0.0724  0.1945
20443W        W24843  16.335   5.611   2.261 -0.2528 -0.1459 -0.0653
20444W        W24844  11.810   0.179  24.479 -0.0036  0.1052 -0.1064
20445W        W24845  24.833   3.463  23.618 -0.3551 -0.0635 -0.0966
20446W        W24846   6.663   5.103   2.316 -0.2632 -0.4102 -0.3608
20447W        W24847  16.346   0.025  19.971  0.0348  0.0779  0.2038
20448W        W24848  20.066   7.574  20.906  0.2456 -0.0232  0.1024
20449W        W24849  16.796   6.031  25.373  0.0727  0.1399 -0.1819
20450W        W24850  17.071   7.463   0.778 -0.1491 -0.3057  0.1952
20451W        W24851  11.392   2.728  18.789 -0.1690 -0.0739  0.0438
20452W        W24852   3.161   4.580   4.347 -0.0058 -0.1100  0.1822
20453W        W24853  15.630   2.263   9.885  0.1095 -0.0774  0.0606
20454W        W24854   6.850   0.577   8.103  0.2382  0.0320 -0.1361
20455W        W24855  12.387   2.613  10.037  0.2356 -0.1961 -0.2415
20456W        W24856  11.665   7.220  21.856 -0.1469  0.0449 -0.1021
20457W        W24857  25.029   0.542  24.584  0.1894 -0.0089 -0.1241
20458W        W24858   3.488   2.977  10.925 -0.0101 -0.0572 -0.2603
20459W        W24859  28.999   0.340   9.350  0.1633  0.0008  0.2166
20460W        W24860  27.041   7.580   2.256  0.0333  0.0902 -0.2771
20461W        W24861   8.048   0.993  22.375 -0.1288 -0.1932  0.2133
20462W        W24862  12.197   7.478   4.239  0.1056 -0.0382  0.0671
20463W        W24863   2.453   6.707   0.757 -0.3964  0.3013  0.1025
20464W        W24864  25.036   3.761   0.553  0.1050  0.1013  0.0288
20465W        W24865  31.240   7.201   7.415 -0.0560 -0.0608 -0.2047
20466W        W24866  30.754   3.485  21.317 -0.0216 -0.0861 -0.1619
20467W        W24867  20.628   0.685  25.321  0.3069 -0.0750 -0.0344
20468W        W24868  24.645   4.222   7.168  0.1973 -0.0916  0.0609
20469W        W24869  12.834   0.501  23.460 -0.0157  0.0350 -0.0808
20470W        W24870   7.034   2.439   1.935 -0.5025  0.1962  0.0719
20471W        W24871  22.699   1.284   9.619 -0.1638 -0.5372 -0.1548
20472W        W24872   8.994   6.757  18.830 -0.0802  0.2869 -0.2142
20473W        W24873   8.710   4.794  23.638 -0.2397 -0.0003  0.1276
20474W        W24874  26.412   4.182  10.752  0.3753  0.0723  0.0527
20475W        W24875  22.992   2.128   1.758  0.1385  0.1794  0.5558
20476W        W24876   3.243   3.476  10.197  0.5121  0.0128  0.1599
20477W        W24877   7.373   4.448   0.178  0.0072  0.1312 -0.2294
20478W        W24878  22.886   7.369  17.243 -0.1519  0.3533  0.1177
20479W        W24879   4.814   7.211   3.108 -0.1033  0.0765 -0.3107
20480W        W24880  10.035   5.078   4.582  0.1441 -0.2103 -0.0893
20481W        W24881  14.371   1.480  25.973 -0.1958 -0.0604 -0.2790
20482W        W24882   8.768   0.764  18.286  0.0864  0.1750  0.3403
20483W        W24883   5.084   3.278  16.452 -0.2529  0.1333 -0.2021
20484W        W24884   8.407   1.614   0.282  0.1962  0.0763  0.1110
20485W        W24885  24.905   0.293   8.428 -0.2398 -0.0812 -0.0786
20486W        W24886  16.061   6.450  10.003 -0.1956 -0.2474 -0.0623
20487W        W24887  28.295   5.573   1.264  0.2765 -0.0365 -0.2665
20488W        W24888  11.615   5.747  14.518 -0.2927 -0.1321  0.2341
20489W        W24889   2.139   0.940  24.373  0.1391 -0.0522  0.1484
20490W        W24890   3.168   1.730   8.666  0.2684  0.0816  0.0821
20491W        W24891   7.132   7.056  18.284 -0.0332  0.2976 -0.0205
20492W        W24892   3.527   3.423  22.727 -0.0048  0.1237  0.2552
20493W        W24893  28.966   0.414   6.191 -0.1473 -0.0070 -0.1300
20494W        W24894  11.140   5.463  19.752  0.1091  0.1296  0.0474
20495W        W24895   9.049   5.284  10.083  0.1174  0.0820  0.1615
20496W        W24896  27.325   0.856   2.885  0.0798 -0.0359  0.1302
20497W        W24897   7.625   0.101   0.783 -0.4177  0.0147  0.0485
20498W        W24898  28.400   0.898   8.676 -0.2460  0.0920 -0.0187
20499W        W24899   5.198   1.133   4.700  0.3506 -0.0281  0.0904
20500W        W24900   9.295   4.224   1.291  0.2675 -0.0277  0.1411
20501W        W24901  22.004   6.638   7.200 -0.0790  0.1394  0.0972
20502W        W24902  21.214   2.086   3.429 -0.0768 -0.2597  0.1076
20503W        W24903   1.796   2.032  16.797  0.0356  0.1486 -0.2730
20504W        W24904  28.780   0.598   8.565 -0.0811 -0.1528 -0.3000
20505W        W24905   2.620   2.739  21.282  0.0300 -0.0806  0.0858
20506W        W24906   0.909   7.360  22.002 -0.1097  0.1565  0.2047
20507W        W24907  20.813   2.821  19.031 -0.1713  0.0446 -0.2774
20508W        W24908   9.531   5.486  21.024 -0.1261  0.2124 -0.2105
20509W        W24909   7.364   6.161  19.071 -0.1018  0.0761 -0.1725
20510W        W24910  13.277   5.815  15.765 -0.1670 -0.1006  0.2035
20511W        W24911   7.917   2.404  26.023  0.0876 -0.0973 -0.0780
20512W        W24912   2.665   5.487   4.395  0.1429  0.2288 -0.1061
20513W        W24913  17.249   3.625  25.769 -0.3669 -0.3933  0.1322
20514W        W24914  27.384   7.051  18.428  0.2651  0.1323  0.2185
20515W        W24915  20.179   1.653   5.991  0.0985  0.1439 -0.3477
20516W        W24916  31.036   4.387  19.231 -0.1510  0.1066 -0.0371
20517W        W24917  22.409   1.979   0.598  0.2148 -0.3053  0.2184
20518W        W24918   8.819   3.096  17.039  0.1357  0.1627 -0.0553
20519W        W24919  14.184   5.037  24.074  0.1386 -0.2220 -0.0929
20520W        W24920   2.782   0.080   4.886 -0.2658 -0.0882  0.2375
20521W        W24921  16.584   5.370  20.119  0.0711 -0.0130  0.2023
20522W        W24922  23.700   0.279  24.691 -0.1616 -0.0422 -0.0735
20523W        W24923  14.742   4.697  15.740  0.0966  0.0449  0.1440
20524W        W24924   4.663   0.791  23.323  0.0492 -0.2021 -0.2195
20525W        W24925  23.790   0.813   6.995 -0.1177  0.1294  0.1146
20526W        W24926  28.027   3.692  16.343  0.2013  0.1929 -0.1453
20527W        W24927  10.938   4.429   0.312 -0.1813  0.4949  0.0284
20528W        W24928   5.930   7.710   5.764  0.1184 -0.0230  0.1272
20529W        W24929  24.925   5.497  19.904  0.2182 -0.0542 -0.1521
20530W        W24930   5.770   4.821  15.760 -0.1066 -0.2016 -0.0702
20531W        W24931  22.715   6.221   5.253  0.1263  0.0096 -0.4853
20532W        W24932  16.448   2.106   0.426 -0.0690 -0.1225  0.1072
20533W        W24933  23.744   6.220   9.885 -0.2875 -0.2947  0.0100
20534W        W24934  28.496   7.041  25.790  0.1663  0.0468 -0.0203
20535W        W24935   6.732   2.898  22.966 -0.1819 -0.2218 -0.0081
20536W        W24936   2.198   4.529  23.472 -0.1789 -0.0462 -0.1238
20537W        W24937  15.093   1.713  10.396  0.1901 -0.1246 -0.1093
20538W        W24938   3.735   7.306   6.337  0.0447 -0.0070  0.3706
20539W        W24939   9.034   7.469  16.193 -0.2137  0.2836  0.0228
20540W        W24940   7.534   2.321   7.178 -0.1308  0.1623  0.3196
20541W        W24941  29.791   1.756  19.733 -0.1659 -0.2953  0.0928
20542W        W24942  27.549   5.512   2.024 -0.1178  0.0209 -0.0027
20543W        W24943  22.352   5.930   3.983 -0.0723 -0.0388 -0.1103
20544W        W24944  14.433   5.256   6.246  0.4484  0.0029 -0.0506
20545W        W24945  10.008   3.435  23.184 -0.1764 -0.0665  0.1099
20546W        W24946   8.720   4.936   3.633  0.0264 -0.2771 -0.1970
20547W        W24947  16.069   5.076  25.722  0.0041  0.0853 -0.0597
20548W        W24948  20.467   6.537  21.296 -0.1640 -0.1116  0.0815
20549W        W24949  19.188   6.191  10.540  0.0729  0.1141  0.0054
20550W        W24950  30.381   5.934   2.728  0.1076  0.0322  0.2599
20551W        W24951  15.576   7.031   9.420  0.2411 -0.0413  0.0776
20552W        W24952  12.509   5.942   2.720 -0.0023 -0.1911  0.1654
20553W        W24953  29.944   2.637   7.489 -0.3276  0.1485 -0.0512
20554W        W24954   8.134   3.547  16.768 -0.2351 -0.1816  0.0451
20555W        W24955  14.419   5.116   5.737  0.3420 -0.0272  0.0502
20556W        W24956  30.968   2.228   2.806  0.1119  0.0464 -0.0847
20557W        W24957  26.277   7.617  10.143 -0.1965 -0.2276  0.0729
20558W        W24958  29.725   7.228   7.807  0.1748  0.1196  0.2727
20559W        W24959  28.343   4.911  23.771  0.0766 -0.1900 -0.1276
20560W        W24960   2.514   6.767  16.703 -0.1092  0.1474  0.5178
20561W        W24961   9.330   1.373  10.130 -0.1611 -0.1986 -0.2657
20562W        W24962   9.010   1.301   5.271 -0.0612  0.2323  0.0359
20563W        W24963  16.024   1.303  20.613  0.0352  0.2508  0.0433
20564W        W24964  12.757   5.835  17.886  0.2392 -0.2247  0.3093
20565W        W24965  24.540   6.970  23.102  0.2351 -0.0278 -0.1774
20566W        W24966   2.130   3.885  22.718 -0.0892 -0.0894 -0.0812
20567W        W24967  18.517   5.932   2.626  0.0126  0.3944 -0.1120
20568W        W24968  21.877   2.948  22.867  0.1491  0.1803 -0.1105
20569W        W24969  22.430   4.497  24.985  0.0483 -0.0254 -0.1367
20570W        W24970  18.965   6.361   4.371  0.0731  0.0752 -0.0224
20571W        W24971   5.420   4.008  19.097 -0.0034  0.0542  0.0390
20572W        W24972   2.721   1.913   0.248 -0.0444 -0.0655 -0.1130
20573W        W24973  20.176   0.686  23.490 -0.0605 -0.1316  0.1189
20574W        W24974  28.628   2.092  22.671 -0.0281  0.2985  0.0560
20575W        W24975  12.293   6.381   7.872  0.0654  0.1169 -0.2793
20576W        W24976   5.596   6.085  23.231 -0.0185  0.2768 -0.0913
20577W        W24977  26.026   1.793   5.785 -0.0845  0.1424  0.1028
20578W        W24978   6.021   0.508  11.427  0.0265  0.0489 -0.0318
20579W        W24979  14.716   0.784   3.873 -0.1773 -0.2864 -0.2107
20580W        W24980  30.704   4.880   8.607 -0.1021 -0.0903 -0.0273
20581W        W24981  21.299   7.213   1.048 -0.1275  0.1571  0.0763
20582W        W24982   9.768   6.684  23.964 -0.2623  0.2278 -0.1591
20583W        W24983  29.074   3.315   4.546 -0.2082 -0.0454 -0.0720
20584W        W24984  11.185   1.883   2.840 -0.2235  0.1313  0.0928
20585W        W24985  11.108   3.709   8.027 -0.0350 -0.1000 -0.2219
20586W        W24986  18.869   0.757   8.350  0.1860  0.3196  0.2710
20587W        W24987  12.390   6.668   3.056  0.1756  0.1425  0.1209
20588W        W24988  17.491   0.370   0.955 -0.1149  0.0541 -0.1309
20589W        W24989  20.804   6.976  25.947 -0.1421  0.0262  0.1849
20590W        W24990   6.289   1.288   6.014  0.0427 -0.4650  0.0749
20591W        W24991   1.037   0.013  23.309  0.0826  0.2936 -0.1142
20592W        W24992  23.459   6.851   8.055  0.1945 -0.2408 -0.0156
20593W        W24993  21.857   1.428   3.358 -0.2773  0.1319 -0.0816
20594W        W24994  28.867   4.812   0.580  0.1557 -0.0502  0.1265
20595W        W24995  22.428   0.379  15.239  0.1130 -0.2361  0.1987
20596W        W24996   8.066   2.222   4.752 -0.0981 -0.0263 -0.1988
20597W        W24997   5.612   6.161   3.907 -0.1171 -0.0039  0.3574
20598W        W24998  15.137   2.308   9.467  0.0079  0.1232 -0.1774
20599W        W24999   5.020   3.107   2.186 -0.0164 -0.1044 -0.0955
20600W        W25000  30.201   2.587  22.937  0.1388  0.0601  0.1558
20601W        W25001  19.570   3.691  18.738 -0.0728 -0.1450  0.2292
20602W        W25002  12.278   5.870  25.802 -0.1217  0.0689 -0.0641
20603W        W25003   6.300   5.023  25.405  0.0258 -0.1307 -0.0372
20604W        W25004  30.127   1.300   7.996 -0.2912  0.1678  0.3035
20605W        W25005  19.060   0.612   5.198 -0.0797  0.0205 -0.4950
20606W        W25006   2.154   0.605  20.525  0.1001 -0.2845 -0.0785
20607W        W25007  17.179   5.742   0.089 -0.4464  0.0155  0.2033
20608W        W25008  25.571   2.540  16.905  0.3498 -0.0373  0.2119
20609W        W25009  27.906   7.553   1.353  0.0871  0.3082 -0.2532
20610W        W25010   8.031   3.474   4.423  0.1724  0.2188  0.1779
20611W        W25011   7.367   2.421  16.154 -0.0004  0.0338 -0.0050
20612W        W25012  14.647   0.070  22.756 -0.0360 -0.1664 -0.0065
20613W        W25013  30.805   5.226  23.885  0.1010 -0.1033  0.1693
20614W        W25014  19.549   4.929  21.149 -0.2099  0.0640  0.1359
20615W        W25015   9.346   4.469   1.768  0.0316  0.2703  0.2367
20616W        W25016   7.741   0.062  20.790 -0.2557  0.2262  0.3391
20617W        W25017   4.730   5.965   4.287  0.0642  0.1998 -0.3165
20618W        W25018  22.417   0.883  10.992  0.0431  0.2016 -0.2437
20619W        W25019  30.188   7.821  20.087  0.1403  0.1605 -0.0492
20620W        W25020  16.800   6.565   1.685 -0.0917  0.0647  0.0314
20621W        W25021  22.852   2.374  20.438 -0.2753 -0.1258 -0.0560
20622W        W25022  30.844   5.737   3.711  0.1903 -0.1548  0.0349
20623W        W25023  30.260   5.085   3.558  0.2236 -0.1259  0.0323
20624W        W25024  12.261   0.002  15.642 -0.3723 -0.0840  0.1881
20625W        W25025  19.258   1.990   6.028  0.2082 -0.3749  0.1097
20626W        W25026   9.073   3.403   3.036  0.2447  0.3157 -0.3474
20627W        W25027  13.431   3.176  21.299 -0.1172  0.2584 -0.1359
20628W        W25028  27.274   5.181  18.710  0.0417 -0.0583  0.1883
20629W        W25029  20.086   5.792   2.042 -0.0987  0.2535 -0.0074
20630W        W25030   1.512   2.079   8.096  0.2242 -0.1725 -0.2540
20631W        W25031  25.152   7.405  20.842 -0.0758 -0.5719 -0.0993
20632W        W25032  10.879   4.470  22.810  0.0066 -0.1733 -0.3474
20633W        W25033   2.072   0.885  10.725 -0.1672  0.0481 -0.0808
20634W        W25034  27.853   6.955   3.354  0.0421 -0.0659  0.0401
20635W        W25035   3.820   6.283   8.757 -0.1262 -0.1182 -0.0018
20636W        W25036   5.077   4.934   4.555 -0.0471  0.0413 -0.1690
20637W        W25037  25.760   1.182  21.593  0.1171 -0.2976  0.5345
20638W        W25038  23.932   6.834  24.945 -0.0385 -0.2013  0.0075
20639W        W25039  24.747   2.140  25.588  0.1996  0.0895 -0.0277
20640W        W25040  17.309   2.453   2.050 -0.0689 -0.0627 -0.1599
20641W        W25041  27.550   5.611  20.180 -0.1793 -0.0638 -0.1554
20642W        W25042  26.575   5.080  23.451 -0.0742 -0.1244  0.1097
20643W        W25043  29.532   6.700  21.909  0.4178  0.0741  0.1669
20644W        W25044   1.915   7.149   6.728  0.0386  0.0571 -0.4206
20645W        W25045  22.108   5.986   6.867  0.0973  0.3598  0.0392
20646W        W25046  19.033   0.371   4.329 -0.1125 -0.4031  0.0141
20647W        W25047  20.573   2.782   6.651 -0.0937 -0.0158 -0.0473
20648W        W25048   9.996   3.934  20.124 -0.1303  0.0284 -0.2231
20649W        W25049  11.864   3.800   2.246  0.0874  0.1653 -0.0245
20650W        W25050  16.426   0.806   3.650  0.4082  0.0100  0.0570
20651W        W25051  16.097   4.692  18.198 -0.0449  0.0246  0.1351
20652W        W25052   0.960   6.288  19.978 -0.3451 -0.0959  0.1990
20653W        W25053   3.428   2.062   6.260  0.0250 -0.2684 -0.0452
20654W        W25054   2.735   2.888  19.365 -0.2472  0.2910  0.1572
20655W        W25055   2.855   5.292  19.129  0.0747 -0.0604 -0.2343
20656W        W25056  19.793   4.929   5.858 -0.2327  0.1874  0.2867
20657W        W25057   6.877   3.371  18.657  0.1910 -0.0106  0.0477
20658W        W25058   9.665   2.761  22.051  0.3116 -0.0680 -0.1978
20659W        W25059  26.612   5.720  15.736 -0.1840  0.0399 -0.0438
20660W        W25060  22.537   1.591  19.703 -0.0561  0.0901  0.1579
20661W        W25061   4.874   6.078   6.257 -0.2649  0.1362  0.0634
20662W        W25062   6.822   4.074  10.097  0.2927 -0.0533 -0.2628
20663W        W25063  26.759   2.412  10.983 -0.1553 -0.2933 -0.2321
20664W        W25064  24.111   0.006  24.729 -0.0305  0.1322  0.1198
20665W        W25065  15.030   3.282  15.767 -0.0134 -0.0608  0.1769
20666W        W25066   7.377   4.133   4.585 -0.1682 -0.0890  0.2934
20667W        W25067  19.029   5.346  10.080 -0.2497  0.4456 -0.0146
20668W        W25068  24.992   4.961  17.201  0.0814  0.1476 -0.2171
20669W        W25069   0.784   4.443  22.129 -0.0568  0.0407 -0.2231
20670W        W25070   5.939   4.536  16.452 -0.3491  0.4065 -0.0243
20671W        W25071  12.593   1.542  19.575 -0.3270  0.1803  0.3594
20672W        W25072  22.850   4.703   4.771 -0.2900  0.1494  0.0022
20673W        W25073  22.805   3.790  16.856 -0.1912 -0.1440 -0.1314
20674W        W25074  30.859   6.771  24.247 -0.0521 -0.0529 -0.0780
20675W        W25075  29.644   7.418  23.694  0.0016 -0.0109  0.0858
20676W        W25076  13.353   6.894  15.608 -0.0276  0.0288  0.0833
20677W        W25077  16.306   4.817   6.830 -0.0427 -0.1612 -0.2822
20678W        W25078  30.681   3.420  24.479 -0.2351 -0.3227  0.2722
20679W        W25079  13.785   3.697  16.201 -0.0032 -0.0109  0.3314
20680W        W25080  17.638   4.682   5.093  0.0482  0.0713 -0.0216
20681W        W25081  11.551   0.885  24.428  0.0042 -0.2701 -0.2253
20682W        W25082  22.627   1.503  18.734 -0.3482  0.0985 -0.1669
20683W        W25083   1.892   3.397  16.939 -0.0638  0.3045 -0.1268
20684W        W25084   3.012   3.013  10.217  0.0521 -0.2573  0.1559
20685W        W25085  13.833   0.019   9.709  0.1667  0.1163  0.2791
20686W        W25086  20.774   7.208   6.139 -0.1567 -0.0609  0.0028
20687W        W25087  18.697   4.926   5.960  0.1437 -0.1319 -0.0104
20688W        W25088  28.366   2.761   5.262 -0.2702  0.0058 -0.0076
20689W        W25089  27.665   7.227   3.727 -0.0112 -0.0958  0.0903
20690W        W25090  10.396   0.079   4.569  0.1974  0.1953  0.2322
20691W        W25091  26.779   4.040  19.176 -0.1429 -0.0423  0.0606
20692W        W25092  30.566   3.106   2.288 -0.0697 -0.0844 -0.1499
20693W        W25093  27.214   4.974   2.584 -0.1000 -0.0164 -0.2831
20694W        W25094  18.564   1.304   0.564  0.1979  0.1518 -0.2109
20695W        W25095  10.298   6.101  24.265  0.3270 -0.2491  0.2450
20696W        W25096  10.756   1.942   7.293  0.5491  0.0715  0.0331
20697W        W25097   1.175   0.440   1.029 -0.1791  0.0646  0.0653
20698W        W25098  13.368   1.104   1.224  0.1247 -0.1585  0.4256
20699W        W25099  18.597   7.817  23.166 -0.2653 -0.0908 -0.0760
20700W        W25100  21.990   1.333   5.322 -0.2952 -0.4228  0.3711
20701W        W25101  25.024   6.991  21.018  0.2756 -0.2572  0.2093
20702W        W25102  22.455   0.057   9.775  0.0972  0.2878  0.0958
20703W        W25103   4.676   7.823  25.996  0.5021 -0.0929 -0.0421
20704W        W25104  25.099   6.112  22.041 -0.0424 -0.0599 -0.0952
20705W        W25105   3.877   1.038  21.443  0.1009 -0.0447 -0.1144
20706W        W25106   7.711   7.548  18.691 -0.0428 -0.1695  0.1423
20707W        W25107  12.647   1.078  19.793 -0.1066 -0.3207 -0.0062
20708W        W25108  19.330   3.889   7.730  0.3114  0.0720 -0.1926
20709W        W25109   8.389   3.158  19.445 -0.0667  0.0569  0.3167
20710W        W25110  25.229   6.058  24.386  0.1822  0.0923  0.2638
20711W        W25111  14.694   6.693  25.493 -0.0495  0.3928  0.0829
20712W        W25112   1.126   2.781  16.395 -0.0463 -0.0581 -0.0397
20713W        W25113  18.016   1.760  25.030  0.0487  0.0833 -0.1476
20714W        W25114   7.940   5.655  24.500 -0.2501  0.0459 -0.2501
20715W        W25115  14.875   4.380  24.608 -0.0263 -0.1488 -0.1309
20716W        W25116   2.834   5.273  21.031  0.1538 -0.0273 -0.0009
20717W        W25117  14.293   5.711  23.229  0.0632  0.0121  0.0603
20718W        W25118   6.152   6.378   3.117  0.0893 -0.0504  0.1886
20719W        W25119  16.350   1.312   8.576  0.2569 -0.1872  0.0004
20720W        W25120   1.812   5.659  17.537 -0.1780 -0.0238 -0.0112
20721W        W25121  11.484   2.048   5.533 -0.4060  0.3781 -0.2397
20722W        W25122  18.776   3.750  20.151 -0.2502  0.1913 -0.1802
20723W        W25123  26.227   0.436   1.531  0.0128 -0.0939  0.1538
20724W        W25124  18.401   0.244   9.153  0.1145 -0.0497 -0.4342
20725W        W25125  31.111   6.196  20.945 -0.1134  0.3757 -0.0707
20726W        W25126   5.687   7.536  18.128  0.4814 -0.0964  0.0092
20727W        W25127  12.914   5.589   0.776  0.2514  0.1466  0.0349
20728W        W25128  15.072   0.873   8.510 -0.3025  0.1106 -0.0899
20729W        W25129   3.370   6.264   7.371 -0.0356 -0.2053 -0.0778
20730W        W25130   6.098   5.253  22.939 -0.3326 -0.0915  0.1368
20731W        W25131   6.307   1.464  25.523 -0.1586 -0.0506  0.4984
20732W        W25132   3.533   6.734   3.440 -0.1504  0.2807 -0.2541
20733W        W25133  21.056   0.952  16.570  0.1650  0.1283 -0.1651
20734W        W25134   3.002   0.655   5.944 -0.1759  0.0237  0.4188
20735W        W25135   4.501   4.803  18.608  0.1722 -0.4315 -0.1499
20736W        W25136  16.957   3.254  10.138 -0.1953 -0.2391 -0.2180
20737W        W25137  29.072   1.572   7.579 -0.2503 -0.1877  0.0946
20738W        W25138   9.694   7.393  14.600  0.0831 -0.1667 -0.0810
20739W        W25139  25.565   0.143  15.738 -0.0055  0.0875 -0.0271
20740W        W25140  13.904   0.202  16.115 -0.0819 -0.0177 -0.0182
20741W        W25141   3.168   3.407   5.524 -0.2133  0.0035 -0.2424
20742W        W25142   4.734   3.401  25.854 -0.0334 -0.2765 -0.1666
20743W        W25143  23.877   1.059  18.354 -0.1264  0.0316  0.3765
20744W        W25144  10.291   7.298   2.415 -0.1660 -0.4448 -0.2217
20745W        W25145   3.593   6.221  20.138 -0.1895  0.2673  0.0713
20746W        W25146  16.557   1.582   8.898 -0.0217  0.0798  0.0742
20747W        W25147  21.693   6.224   5.885  0.1752 -0.1813 -0.2185
20748W        W25148  11.331   1.984  23.201 -0.1644 -0.0187  0.0626
20749W        W25149  28.927   3.358  10.144 -0.2454 -0.3214 -0.0612
20750W        W25150   2.185   2.614  15.142  0.1515 -0.3176 -0.1577
20751W        W25151   6.539   5.387  15.350 -0.0742 -0.1712  0.0984
20752W        W25152  12.475   5.888  20.635 -0.1953 -0.0601  0.0518
20753W        W25153  29.167   4.391  22.575 -0.0812  0.0613 -0.2302
20754W        W25154   0.558   3.671  24.627 -0.0342  0.1807  0.1151
20755W        W25155   5.735   1.582   7.583 -0.0218 -0.1080 -0.1845
20756W        W25156  11.462   4.389  15.867  0.1107  0.0614  0.0257
20757W        W25157   3.564   4.222   1.211  0.1117 -0.1064 -0.4466
20758W        W25158  27.464   1.221   7.247  0.0580 -0.0171 -0.2248
20759W        W25159   7.384   7.186   1.729 -0.1744 -0.0627 -0.1603
20760W        W25160  17.555   3.686   7.389 -0.0167  0.1386 -0.1729
20761W        W25161   5.353   1.702   7.321  0.0065  0.0324  0.1258
20762W        W25162  18.974   3.893   4.179 -0.2387 -0.0126  0.0579
20763W        W25163  28.314   2.602  20.306 -0.0027  0.0387 -0.0184
20764W        W25164  28.220   5.265   6.657  0.2180 -0.1486  0.2466
20765W        W25165  22.671   7.217  24.259 -0.1343 -0.0112 -0.0341
20766W        W25166  13.212   4.077  23.539 -0.1481 -0.1686  0.0349
20767W        W25167  30.001   2.417  20.400 -0.0603 -0.1115 -0.2433
20768W        W25168  21.496   7.179   2.495  0.0015 -0.2320 -0.0941
20769W        W25169   3.578   3.364  10.573 -0.2603 -0.0852  0.1019
20770W        W25170  17.312   0.597   6.476  0.1025  0.0135  0.1056
20771W        W25171   6.955   0.644  23.139  0.3968 -0.2915 -0.0971
20772W        W25172  30.816   4.808   6.836 -0.0235  0.0588  0.0554
20773W        W25173   1.981   1.635   4.881 -0.0481  0.2750 -0.0811
20774W        W25174  29.354   6.198  22.012  0.1036  0.0693 -0.3062
20775W        W25175   8.062   3.653  18.859 -0.1382 -0.2161 -0.0927
20776W        W25176   7.991   7.117  25.294 -0.1072 -0.3643 -0.1360
20777W        W25177  13.654   1.681   5.224  0.1650  0.1116  0.1821
20778W        W25178   8.177   1.951   5.227  0.2948 -0.0056  0.2790
20779W        W25179  25.927   5.811  19.390 -0.0922 -0.0847  0.0079
20780W        W25180  26.283   7.710  10.662 -0.0741 -0.0654  0.0023
20781W        W25181  18.810   5.059  21.658  0.0232  0.0262 -0.1672
20782W        W25182  29.446   0.945  22.328 -0.0798 -0.0796 -0.2516
20783W        W25183   3.650   6.122   6.950  0.0719 -0.3222  0.1329
20784W        W25184  17.437   2.521  10.330 -0.0672  0.3958 -0.0540
20785W        W25185   2.644   6.956   2.796  0.2100 -0.4203  0.2019
20786W        W25186  24.201   4.427  20.639 -0.1708  0.0520 -0.0579
20787W        W25187  21.636   5.243  19.864  0.0466 -0.1245 -0.0423
20788W        W25188  27.531   0.425  23.643  0.0033  0.0264 -0.0753
20789W        W25189  20.504   6.383  16.564  0.0790 -0.2902 -0.1254
20790W        W25190   8.888   5.381  19.872 -0.0441  0.1146  0.0648
20791W        W25191  23.040   6.615   7.126  0.0404  0.2011 -0.2260
20792W        W25192  19.231   1.505  10.608  0.0750  0.0662 -0.2665
20793W        W25193  21.292   4.559  10.038 -0.1202 -0.0497 -0.0854
20794W        W25194  29.845   0.578  19.446 -0.0056 -0.0308  0.2948
20795W        W25195  15.016   2.578   8.633 -0.1416 -0.0841 -0.1238
20796W        W25196  17.845   3.036   0.162 -0.2907  0.0724 -0.3237
20797W        W25197  10.969   4.198   2.599 -0.2176 -0.1825 -0.2681
20798W        W25198  11.511   3.517   0.167 -0.1759 -0.0517  0.0342
20799W        W25199  23.020   1.802  22.938  0.0825 -0.0961 -0.0425
20800W        W25200  18.898   3.885   3.164 -0.1201  0.1936  0.0755
20801W        W25201   1.990   0.153  18.976  0.1691 -0.0245 -0.4347
20802W        W25202   4.958   2.779  23.150 -0.0052  0.2269 -0.2660
20803W        W25203  26.526   0.551  18.803 -0.1223  0.1890  0.2552
20804W        W25204   8.662   6.646  24.372  0.0668  0.3086 -0.0304
20805W        W25205  15.245   3.899   6.983 -0.1045  0.2047  0.0370
20806W        W25206  31.008   3.373   6.039 -0.2351 -0.1289  0.0627
20807W        W25207   3.686   0.526  24.030 -0.2913  0.0683 -0.1536
20808W        W25208  12.681   6.785  16.448  0.1858  0.0304 -0.0145
20809W        W25209  17.516   7.237   0.866  0.1885 -0.3219  0.2529
20810W        W25210  30.462   1.878  10.731 -0.0600  0.1287  0.1132
20811W        W25211  20.201   4.055  17.748 -0.2300 -0.0559 -0.4205
20812W        W25212  28.380   5.737   0.230  0.0383  0.2992  0.2090
20813W        W25213   2.256   2.312  10.616  0.1658 -0.1388 -0.0707
20814W        W25214  26.311   0.927  20.329 -0.1475  0.1287  0.1008
20815W        W25215  29.345   7.581   2.127 -0.1366 -0.0896  0.1605
20816W        W25216  20.024   5.871  21.288  0.3405 -0.1922  0.0872
20817W        W25217  24.703   1.981   4.013 -0.5225 -0.0667 -0.0927
20818W        W25218  29.572   7.230   4.011 -0.1130  0.2068  0.0491
20819W        W25219  15.048   5.435  17.576  0.0317  0.3232 -0.2715
20820W        W25220   2.805   0.305  23.978  0.0635 -0.1850  0.0036
20821W        W25221  10.880   2.797  23.613  0.0120 -0.1167  0.0723
20822W        W25222   6.624   5.086   1.350 -0.1212 -0.0553  0.0401
20823W        W25223  17.504   0.287   4.248  0.0502  0.1984 -0.2472
20824W        W25224  12.457   7.370  22.269  0.0879  0.0133  0.2113
20825W        W25225  19.951   2.454  25.902 -0.1863 -0.1328  0.0352
20826W        W25226  11.364   7.614  25.067 -0.3310 -0.2684  0.1923
20827W        W25227   5.035   6.411  10.833  0.0119  0.2022  0.4614
20828W        W25228   5.185   7.572  24.217  0.0589  0.1466  0.2165
20829W        W25229   1.016   7.074   4.532  0.5000  0.1585 -0.2174
20830W        W25230  14.722   1.384  21.000 -0.3191 -0.0841 -0.0598
20831W        W25231  31.140   3.629   7.619  0.2041 -0.3650 -0.0394
20832W        W25232  17.688   3.324  25.713  0.1330  0.1679  0.0363
20833W        W25233   8.543   7.533   8.345 -0.2718  0.0652  0.1058
20834W        W25234   2.307   5.091  10.727  0.0053  0.2748  0.0026
20835W        W25235  25.764   4.875   1.084 -0.3773 -0.2186  0.0035
20836W        W25236  29.400   6.562   4.717 -0.3175  0.1518  0.3014
20837W        W25237  18.460   7.182  22.680 -0.1851  0.0179 -0.0405
20838W        W25238  23.066   1.424  19.877  0.1078 -0.0118  0.0982
20839W        W25239   8.184   6.651   7.901 -0.1401 -0.1456 -0.0314
20840W        W25240  22.931   5.744   0.286  0.2826  0.2486  0.0351
20841W        W25241  24.021   6.897   1.096 -0.0302  0.0524 -0.0091
20842W        W25242  19.533   6.540  18.811  0.0546 -0.0536  0.0211
20843W        W25243  19.116   3.276   6.047 -0.1795  0.1111  0.1459
20844W        W25244   1.368   6.884   4.233  0.1410 -0.0001 -0.1895
20845W        W25245  16.909   7.120   7.648  0.0675 -0.0333  0.2772
20846W        W25246  23.297   2.519  22.429 -0.0844 -0.2383  0.2896
20847W        W25247  28.502   6.928   9.619 -0.0046 -0.1341  0.4628
20848W        W25248  24.719   5.770   2.961 -0.1461 -0.3208 -0.1201
20849W        W25249   9.484   1.504  15.417 -0.2704 -0.1903 -0.0584
20850W        W25250  21.944   3.898  10.124  0.1570  0.2241  0.0706
20851W        W25251  27.760   1.308  21.115  0.1061  0.2546 -0.1843
20852W        W25252   3.642   2.336  19.373 -0.1350  0.2407  0.2100
20853W        W25253   7.865   2.813   5.257  0.1084  0.1882  0.1299
20854W        W25254  29.108   0.679   8.932  0.0116 -0.0139 -0.1196
20855W        W25255   1.958   0.736   0.769  0.0614  0.2504  0.3326
20856W        W25256  14.521   0.500  10.217 -0.0208 -0.0850 -0.0131
20857W        W25257   7.217   0.159  15.565 -0.0784 -0.0859  0.0002
20858W        W25258  11.895   0.134  25.530  0.1733  0.0842  0.1008
20859W        W25259  21.398   6.590   9.768  0.0874  0.2434 -0.0737
20860W        W25260   3.273   5.635   8.057  0.1215 -0.0735  0.2589
20861W        W25261  22.945   7.494   6.896 -0.2046  0.1729 -0.2162
20862W        W25262  21.110   2.316   9.095  0.1666 -0.3477 -0.1131
20863W        W25263  30.106   0.287   2.255  0.0347 -0.0685  0.1128
20864W        W25264   4.728   3.262  19.416 -0.2578  0.0371  0.0955
20865W        W25265   2.558   4.925   9.926 -0.1897  0.0354  0.0531
20866W        W25266  10.031   5.106   5.564 -0.0769 -0.0830 -0.1742
20867W        W25267  25.907   6.107  25.081  0.1172 -0.1232  0.1419
20868W        W25268   6.292   2.992   9.004 -0.0786 -0.2258  0.1809
20869W        W25269  29.161   4.955   4.992  0.1008  0.0171  0.0333
20870W        W25270  14.037   5.635   9.087 -0.0467 -0.0559  0.2556
20871W        W25271  28.931   2.537  10.346 -0.2635 -0.2089 -0.1879
20872W        W25272   3.685   1.185   3.689 -0.0200  0.0340 -0.3318
20873W        W25273  17.947   1.921  22.262  0.2921 -0.3975 -0.1547
20874W        W25274   3.203   7.316  16.676  0.0196  0.1228  0.2882
20875W        W25275   4.224   1.221  24.595  0.0002  0.0103 -0.1547
20876W        W25276  24.035   6.966   7.215  0.1598  0.0082  0.0270
20877W        W25277  14.344   7.638  18.858 -0.1925  0.0622 -0.1112
20878W        W25278   3.647   1.079  16.565 -0.1190  0.2812 -0.4785
20879W        W25279   3.692   2.857  19.525  0.1226  0.0192  0.0403
20880W        W25280  12.738   4.836   9.810 -0.0685  0.0140  0.2611
20881W        W25281   2.410   4.434   5.164 -0.0798  0.0672  0.4178
20882W        W25282   2.286   3.719   3.127 -0.2652  0.1380 -0.2244
20883W        W25283  10.467   5.458  21.146  0.0120  0.1140  0.0782
20884W        W25284   8.913   3.149  15.534 -0.3591  0.0023  0.0079
20885W        W25285  19.694   5.468  15.050  0.0578  0.0443  0.0289
20886W        W25286   4.228   2.676   3.644  0.2331 -0.0335  0.1182
20887W        W25287   0.390   6.377  20.986 -0.1632  0.1132 -0.2514
20888W        W25288  15.890   1.029  22.763 -0.2481 -0.1011 -0.2064
20889W        W25289  22.048   0.458  19.961  0.0226  0.1008  0.0427
20890W        W25290  14.072   7.812   8.637 -0.2701 -0.0036  0.0929
20891W        W25291   7.368   2.195  14.771 -0.3207 -0.1455 -0.0264
20892W        W25292  25.127   0.451  10.373  0.2515  0.2263  0.3156
20893W        W25293   8.770   1.387   6.377  0.1753  0.0637  0.0898
20894W        W25294   5.440   6.113  20.403 -0.2139  0.2403 -0.2250
20895W        W25295  22.988   3.244   0.434 -0.0177  0.1116 -0.1865
20896W        W25296  21.364   0.006   3.209 -0.0260 -0.0488  0.1945
20897W        W25297  10.261   5.171   0.132 -0.0409  0.2631  0.0026
20898W        W25298  27.098   6.634  18.128 -0.1251 -0.0380  0.0411
20899W        W25299  17.301   4.189  17.485 -0.3200  0.2486 -0.0824
20900W        W25300  26.760   1.798   4.413 -0.2621  0.0549  0.0770
20901W        W25301   5.825   4.913  21.173  0.2505 -0.1950  0.2284
20902W        W25302  30.177   0.010   6.118  0.0835 -0.1175  0.0230
20903W        W25303  30.648   4.414   7.119  0.2523  0.1500 -0.0229
20904W        W25304  27.288   0.611   4.308 -0.2579 -0.0853  0.2528
20905W        W25305  27.274   6.635  21.829 -0.2089  0.0353 -0.0151
20906W        W25306  24.842   4.790   3.976 -0.3450 -0.0976  0.1013
20907W        W25307  12.327   4.566   1.435  0.1344  0.0136  0.0059
20908W        W25308  17.609   0.862   1.028  0.1833 -0.1388  0.0803
20909W        W25309  20.832   2.270   2.360  0.0072  0.1207 -0.0072
20910W        W25310   8.032   2.431  17.631 -0.0875 -0.0082  0.1714
20911W        W25311  30.412   4.454  21.009  0.2971 -0.1659  0.0961
20912W        W25312  23.995   4.268   0.444 -0.0490  0.1849  0.0679
20913W        W25313  10.354   1.713   0.830 -0.0019  0.1325  0.2637
20914W        W25314  21.709   4.529  18.802 -0.0644 -0.0694  0.2083
20915W        W25315  28.532   2.805  22.150  0.1064 -0.0062 -0.1053
20916W        W25316  25.201   4.919  22.543 -0.0748 -0.2595  0.1082
20917W        W25317   0.933   4.728  23.365  0.2851 -0.1710  0.3955
20918W        W25318  31.111   3.781  22.754 -0.3984  0.0342  0.2786
20919W        W25319   8.223   6.323  16.588 -0.0379  0.1319  0.0405
20920W        W25320  25.563   4.209  23.823  0.0303 -0.2810 -0.1190
20921W        W25321  19.621   3.010   3.538  0.0621 -0.0696 -0.4494
20922W        W25322   7.670   2.786  17.768  0.0729  0.1046  0.0830
20923W        W25323  17.469   3.842  15.158  0.1015  0.1654 -0.1976
20924W        W25324  27.622   4.136  16.188 -0.1339 -0.0538 -0.0742
20925W        W25325  14.712   4.383  25.046  0.0722 -0.0787 -0.1299
20926W        W25326  27.947   5.081  23.026  0.0111 -0.2972  0.0229
20927W        W25327   5.120   5.709  20.307  0.1456 -0.1062  0.1855
20928W        W25328  31.016   0.757  17.334  0.0786  0.1462 -0.2318
20929W        W25329   1.628   0.237   9.679  0.2700 -0.0668  0.2917
20930W        W25330   2.367   0.221  18.625 -0.1653 -0.2081 -0.2524
20931W        W25331  17.203   7.447  14.567  0.3580  0.0943 -0.0642
20932W        W25332   7.540   5.628   6.353  0.2475  0.1751  0.3907
20933W        W25333   2.731   6.725  17.153  0.2152  0.0594 -0.2594
20934W        W25334  29.868   3.712  22.890  0.1067 -0.2886  0.1057
20935W        W25335  12.062   2.991  16.724 -0.3059  0.1609  0.2266
20936W        W25336   3.326   5.035  10.784 -0.1477  0.0898 -0.0238
20937W        W25337  29.165   5.176   5.405 -0.1354 -0.4054  0.1436
20938W        W25338  19.326   1.834  19.349 -0.1372  0.2000  0.0559
20939W        W25339  25.195   0.114  16.201 -0.0549  0.2250 -0.0645
20940W        W25340  14.627   6.157   3.815 -0.2719  0.1813  0.3745
20941W        W25341  10.125   0.649  18.455 -0.0623  0.1634  0.0631
20942W        W25342  13.262   5.733  18.794 -0.0525  0.0622  0.0536
20943W        W25343  13.648   4.423  24.112  0.0499  0.1433 -0.3551
20944W        W25344  14.509   0.979  21.154 -0.2569 -0.1906  0.0691
20945W        W25345  11.255   0.526   7.701 -0.2181  0.1314 -0.2164
20946W        W25346  12.444   5.248  18.979 -0.3695  0.2589 -0.2315
20947W        W25347  25.212   5.561   9.460  0.2830  0.0097  0.1984
20948W        W25348  27.435   4.963   4.855 -0.1791  0.1465 -0.2880
20949W        W25349  12.342   5.634  20.234 -0.0652  0.0226 -0.1233
20950W        W25350  30.431   0.473   6.872  0.0478  0.0826 -0.2161
20951W        W25351  10.532   6.413  15.798  0.1164  0.1941 -0.1046
20952W        W25352  16.263   5.938   4.423  0.0592 -0.0455 -0.2648
20953W        W25353   3.325   2.126  16.516  0.0830  0.1023  0.2193
20954W        W25354   6.211   2.723   5.040  0.0398  0.0556  0.0437
20955W        W25355  29.435   3.874   6.579  0.0114 -0.0308  0.0715
20956W        W25356  26.516   2.373  15.659 -0.3194  0.2771  0.1049
20957W        W25357  18.737   6.393  20.464  0.0742 -0.0680  0.1527
20958W        W25358  18.823   7.021  10.329  0.1130  0.2490 -0.0163
20959W        W25359  29.485   7.533  18.915  0.2642 -0.0191 -0.1652
20960W        W25360   9.624   5.490   8.869  0.0333  0.0177  0.2156
20961W        W25361  19.622   7.409   2.811 -0.0024 -0.2373  0.0678
20962W        W25362  15.912   5.315   3.912  0.3198  0.1961  0.3387
20963W        W25363   5.618   7.235   4.095 -0.0379 -0.1759  0.2629
20964W        W25364  13.450   5.094   5.779  0.0633  0.2276  0.0746
20965W        W25365   2.808   1.045  25.089  0.1443 -0.0161  0.0950
20966W        W25366  27.071   4.541   5.923  0.0055 -0.2306  0.0408
20967W        W25367  18.618   3.615   4.018 -0.3498 -0.0664  0.2660
20968W        W25368  30.377   6.781  25.511  0.1619 -0.0356  0.1937
20969W        W25369  18.410   4.331   1.365 -0.1928 -0.1233  0.1109
20970W        W25370  28.532   7.002   8.640 -0.0594  0.1442 -0.3363
20971W        W25371   2.896   7.592   6.851 -0.0755  0.0554 -0.0664
20972W        W25372   5.600   2.460   7.915 -0.1836 -0.1122 -0.0356
20973W        W25373   6.173   3.412  20.238 -0.0885  0.3552 -0.1977
20974W        W25374   5.906   5.468   2.351 -0.0317  0.0712 -0.0810
20975W        W25375   0.204   5.270   2.225  0.0737  0.1013 -0.0265
20976W        W25376   0.985   1.449   4.930  0.2594  0.1634 -0.0038
20977W        W25377  12.301   2.502   3.924 -0.1650  0.1257 -0.0773
20978W        W25378  14.845   2.682  15.772  0.2291 -0.1133 -0.1622
20979W        W25379  15.576   5.068   5.606  0.0486 -0.1151  0.0425
20980W        W25380   7.216   3.276   7.109 -0.1703  0.0007 -0.2684
20981W        W25381  17.802   2.994  16.184 -0.3528 -0.0181  0.0005
20982W        W25382  20.305   2.936  18.992  0.2588  0.0965  0.1479
20983W        W25383   7.826   5.825  15.565 -0.1172  0.1073  0.0703
20984W        W25384  11.336   5.413   3.062  0.2535  0.0083 -0.2154
20985W        W25385   0.905   3.528  17.096  0.4117  0.0205 -0.0496
20986W        W25386  25.764   5.298  22.911 -0.0993 -0.0454 -0.0193
20987W        W25387   5.638   0.037  24.175 -0.1242 -0.2410 -0.2636
20988W        W25388  12.209   7.056   3.532 -0.1072  0.2062 -0.0005
20989W        W25389   4.005   3.584   8.896 -0.0392  0.0999 -0.0310
20990W        W25390  23.635   4.425   4.797 -0.1056  0.4507 -0.1417
20991W        W25391  20.262   6.730   5.630  0.4385 -0.1058  0.0135
20992W        W25392  10.077   3.650   7.388 -0.0810 -0.0528  0.1343
20993W        W25393  18.870   2.949   0.999 -0.2115  0.0801  0.0945
20994W        W25394  11.929   0.781   0.243 -0.1669  0.0152 -0.2110
20995W        W25395   9.554   3.265  23.197  0.0866 -0.0733  0.0093
20996W        W25396  14.233   6.110  17.004  0.3048  0.1723  0.0382
20997W        W25397   6.617   1.634   5.371  0.1208 -0.0568 -0.0357
20998W        W25398   2.549   3.756  18.046 -0.0975 -0.0702  0.1215
20999W        W25399  29.076   0.705  10.448 -0.1652  0.0572  0.4842
21000W        W25400  14.163   3.142   4.432 -0.0013 -0.3076 -0.0056
21001W        W25401  13.732   6.235   3.181  0.2015  0.1355  0.2181
21002W        W25402   9.481   4.348  23.516 -0.0429 -0.2093  0.0736
21003W        W25403  19.692   1.087  18.762 -0.2186 -0.2955 -0.2954
21004W        W25404   2.008   3.764  22.256 -0.2862 -0.0453 -0.2619
21005W        W25405   7.130   6.395  22.387  0.1070 -0.1115  0.1779
21006W        W25406   9.060   5.165   0.049 -0.1166  0.2400 -0.0804
21007W        W25407  27.505   0.662  16.102  0.1663 -0.1258  0.1293
21008W        W25408  27.501   5.593  17.144 -0.3685 -0.1194  0.2471
21009W        W25409  13.089   0.452  19.985  0.0278  0.1865  0.1884
21010W        W25410  13.447   5.170  25.897 -0.0803 -0.1496  0.4856
21011W        W25411  12.568   7.082  14.953  0.0395 -0.1642  0.1613
21012W        W25412   1.988   2.550   2.775  0.1334 -0.0114 -0.1956
21013W        W25413  22.753   6.348  18.220 -0.1367  0.0313 -0.3303
21014W        W25414  25.528   6.531  22.736 -0.1536  0.1281  0.1321
21015W        W25415   9.347   2.977   3.905  0.0433 -0.0755 -0.0857
21016W        W25416   1.824   4.127  26.068 -0.0069 -0.1839  0.1009
21017W        W25417  31.247   3.884  20.211  0.0052  0.1351 -0.3398
21018W        W25418  29.192   2.213  17.148 -0.0972 -0.0389  0.2139
21019W        W25419  24.630   5.742   4.247 -0.0076 -0.0077 -0.1233
21020W        W25420   3.658   5.079   3.628  0.2296 -0.1333  0.0260
21021W        W25421  14.399   6.503   6.214 -0.1826  0.2091 -0.1455
21022W        W25422   1.470   6.550   8.157  0.1290  0.3006  0.0877
21023W        W25423  28.520   3.960   5.810 -0.0416 -0.0394  0.0790
21024W        W25424  10.041   3.236   3.258  0.0308 -0.0428 -0.3033
21025W        W25425  29.161   1.999   6.241 -0.2853 -0.2066  0.0352
21026W        W25426  21.526   4.614  21.824  0.0405 -0.1561 -0.1623
21027W        W25427  26.192   2.273   2.225 -0.0577  0.1266 -0.1425
21028W        W25428  21.373   0.468  17.035 -0.0206  0.1336 -0.0829
21029W        W25429  21.094   6.885   7.624 -0.1063  0.0941 -0.2042
21030W        W25430  16.835   2.989  19.474 -0.1586  0.0439 -0.1470
21031W        W25431   4.139   3.033   7.612  0.0221  0.2461  0.0553
21032W        W25432   5.008   1.844   5.959  0.0317 -0.4786  0.3223
21033W        W25433  11.365   7.220   9.215 -0.0186 -0.2403  0.1001
21034W        W25434  19.127   2.629   8.909  0.2423  0.0708 -0.0590
21035W        W25435   3.292   1.959  10.495 -0.2201 -0.2037 -0.1650
21036W        W25436   1.939   6.929  22.573  0.3948  0.1237 -0.3354
21037W        W25437  24.596   2.278   8.998 -0.2126 -0.1683 -0.2978
21038W        W25438  30.800   4.425  10.127  0.1068  0.0851  0.1532
21039W        W25439  12.934   3.279  16.579 -0.1046  0.4089 -0.0668
21040W        W25440   3.519   5.569  21.823 -0.0702 -0.2539 -0.1741
21041W        W25441  12.734   5.691  10.212 -0.1227 -0.2879 -0.1779
21042W        W25442   0.186   2.684   2.027  0.0333  0.2539 -0.0085
21043W        W25443   8.101   0.000   2.751  0.1461 -0.2965  0.0669
21044W        W25444  10.623   2.330   5.844 -0.3976  0.0041  0.0018
21045W        W25445   3.906   3.546   3.745 -0.0352 -0.1754  0.1967
21046W        W25446  29.534   4.216  22.166 -0.0791 -0.2925 -0.0183
21047W        W25447  28.397   0.510  24.807  0.1317 -0.1480 -0.0663
21048W        W25448   5.605   1.901   6.071  0.0183 -0.1294  0.1583
21049W        W25449  16.061   4.540   5.840  0.2135 -0.1513  0.1379
21050W        W25450   6.114   6.052   3.948 -0.0484  0.0318  0.1342
21051W        W25451  15.548   5.595   1.726  0.1158  0.5157  0.1889
21052W        W25452  18.333   1.895   3.627 -0.0453 -0.1668  0.1111
21053W        W25453   4.393   4.461  16.478  0.2067 -0.1337 -0.2372
21054W        W25454   2.795   3.059  16.457 -0.0357  0.1156 -0.0970
21055W        W25455  17.098   6.842   4.034  0.1833 -0.1899 -0.1376
21056W        W25456   4.935   3.837   4.202  0.0620 -0.0865  0.1402
21057W        W25457   4.087   0.912   8.136  0.0683 -0.1344  0.0559
21058W        W25458  14.016   0.596   3.454 -0.0637 -0.1776  0.1196
21059W        W25459  18.702   6.844  17.221  0.0945  0.1613  0.0287
21060W        W25460  26.032   2.529  15.717  0.2081  0.1311 -0.3208
21061W        W25461  18.453   4.117  18.674  0.3003 -0.0668  0.0780
21062W        W25462  22.349   5.075   6.575 -0.0730 -0.0632 -0.2464
21063W        W25463  13.011   7.230   0.448  0.0925  0.3670 -0.0409
21064W        W25464  15.362   2.702   9.216 -0.1298  0.0375 -0.0247
21065W        W25465  14.979   2.469   0.887 -0.0483  0.0896 -0.1270
21066W        W25466  25.573   0.467   9.755  0.2425  0.1646 -0.1217
21067W        W25467  25.599   0.988  22.837 -0.2329  0.0559 -0.2514
21068W        W25468  24.988   2.513   2.592 -0.0426 -0.0420  0.0121
21069W        W25469   6.196   1.555   7.788  0.0834 -0.1093 -0.2223
21070W        W25470  11.233   0.879   0.807  0.0454 -0.0461  0.1959
21071W        W25471  11.366   1.916   3.896 -0.0053 -0.0248  0.2482
21072W        W25472  16.981   5.918  15.358  0.2091  0.3949 -0.0244
21073W        W25473  22.654   4.404  23.516  0.0541 -0.1365 -0.0241
21074W        W25474   2.050   1.264  21.308 -0.2448  0.1256 -0.0201
21075W        W25475  24.150   5.819  23.919 -0.2694  0.3252  0.3403
21076W        W25476  13.799   7.627  18.931 -0.3566  0.1774 -0.0154
21077W        W25477  28.171   0.331   4.322 -0.0632 -0.1262 -0.1387
21078W        W25478   0.921   5.543  21.187  0.1657 -0.1798  0.0710
21079W        W25479  25.940   6.487  25.385 -0.1782 -0.0739 -0.1089
21080W        W25480  26.846   7.800   8.863  0.0511 -0.0241  0.0418
21081W        W25481  26.607   1.683   0.312 -0.1106  0.0042  0.0550
21082W        W25482  11.174   3.212   2.701 -0.1306 -0.1057  0.1125
21083W        W25483  14.666   3.534   1.660 -0.2659  0.0920 -0.4547
21084W        W25484  25.140   3.871  24.397  0.2731 -0.2504  0.0466
21085W        W25485   9.761   3.178  25.231  0.1536  0.1046  0.1241
21086W        W25486  23.331   1.103   2.456 -0.1151 -0.3440 -0.1622
21087W        W25487  29.723   1.907  10.352  0.1315 -0.0280 -0.0996
21088W        W25488  24.295   3.495   1.061 -0.0817  0.1474 -0.1939
21089W        W25489   4.701   4.108   0.612  0.1164  0.1118  0.1283
21090W        W25490  12.967   5.636   8.847  0.4017 -0.1449 -0.1050
21091W        W25491  30.433   7.073   8.407  0.1146 -0.0420 -0.0856
21092W        W25492   5.073   0.589  25.258  0.0636 -0.1028  0.2169
21093W        W25493  15.180   1.450  10.838  0.1017  0.0397  0.2025
21094W        W25494  19.844   1.361   8.923 -0.0656  0.1076  0.0539
21095W        W25495  28.863   1.426  20.395  0.1518 -0.1752  0.0580
21096W        W25496   3.924   0.624  19.627  0.0187 -0.1436  0.2920
21097W        W25497  29.321   2.590  15.849  0.0095 -0.1610 -0.3456
21098W        W25498  23.168   2.467  18.110 -0.1781 -0.3496 -0.0261
21099W        W25499  13.761   6.557  15.619 -0.1006 -0.1420  0.1108
21100W        W25500   6.655   4.637  23.861  0.1324 -0.1843  0.1046
21101W        W25501  18.638   3.821  23.419  0.0376  0.1297 -0.0817
21102W        W25502  21.341   5.390   5.341  0.2627  0.1787  0.1645
21103W        W25503  12.605   6.201  22.712 -0.0035  0.0861  0.0127
21104W        W25504  19.229   3.243   1.287 -0.3333  0.0866  0.0510
21105W        W25505  15.480   3.284  20.292  0.3314 -0.3041  0.0225
21106W        W25506   8.092   3.649   9.125  0.2471  0.0093  0.1171
21107W        W25507  29.090   7.808  16.729  0.1000  0.0811  0.0525
21108W        W25508   9.503   0.384   9.623  0.2924  0.0238 -0.2337
21109W        W25509  25.188   7.737   2.201 -0.0449 -0.0568  0.0130
21110W        W25510  18.137   4.973  22.680 -0.0478 -0.0852 -0.0791
21111W        W25511  17.491   5.967  15.541 -0.0959  0.0276 -0.0156
21112W        W25512  19.300   3.417   7.427 -0.2008  0.2924  0.0158
21113W        W25513  10.472   0.685  17.650 -0.3429 -0.0254 -0.1010
21114W        W25514   8.741   7.339  21.553 -0.0100  0.3211 -0.2859
21115W        W25515   7.592   3.356   0.233 -0.0430 -0.1482 -0.0283
21116W        W25516   3.125   2.415  19.385  0.1980 -0.0449  0.0212
21117W        W25517  13.650   4.638   0.967  0.0048  0.2552  0.2403
21118W        W25518  29.821   5.401   4.783 -0.0762  0.0422  0.3317
21119W        W25519   0.032   6.274  11.306  0.1131  0.3716  0.2033
21120W        W25520  16.834   0.197  20.971 -0.1679 -0.1401  0.0189
21121W        W25521   6.176   5.333  21.150  0.1155  0.2617  0.1316
21122W        W25522   5.109   4.330  25.064 -0.0225 -0.1373  0.1703
21123W        W25523   9.208   4.234   4.208 -0.1809  0.0534 -0.2038
21124W        W25524  16.259   6.575   2.352 -0.1472  0.0531 -0.3594
21125W        W25525   9.366   4.737  16.296  0.0102  0.4121 -0.0551
21126W        W25526  26.423   2.244  23.007  0.0586  0.0886 -0.0192
21127W        W25527   6.896   3.949  18.241 -0.0681  0.2820  0.0112
21128W        W25528  23.559   3.554  23.967 -0.0019 -0.3411 -0.1032
21129W        W25529   0.521   7.269   4.608  0.2990 -0.2660 -0.0956
21130W        W25530  20.803   5.617   1.876  0.0401 -0.1437  0.3421
21131W        W25531   2.919   0.196  19.715 -0.1090 -0.2822 -0.0410
21132W        W25532  21.389   2.795   7.699  0.0135  0.0504  0.1322
21133W        W25533  27.507   3.945  16.842  0.1653 -0.1308  0.2006
21134W        W25534   6.555   0.310   2.034 -0.2466 -0.3080  0.0075
21135W        W25535  19.714   5.780   0.422 -0.2859 -0.1663  0.1444
21136W        W25536   4.732   2.520  22.818 -0.1328 -0.2750  0.3727
21137W        W25537  21.771   1.437  22.351 -0.1024 -0.3052  0.1937
21138W        W25538   2.198   5.961  21.705  0.2734  0.2524 -0.2205
21139W        W25539  20.876   3.704   9.508 -0.3116  0.1190 -0.1285
21140W        W25540  15.113   4.261   7.991  0.2327  0.2037 -0.5702
21141W        W25541   6.683   7.530  19.324 -0.0483 -0.2270 -0.0534
21142W        W25542  18.737   1.490   7.222  0.2474  0.2002 -0.0387
21143W        W25543   4.383   4.305   1.584 -0.1142 -0.3775 -0.0493
21144W        W25544   0.815   2.666  24.418 -0.0493  0.2254  0.0147
21145W        W25545  31.133   7.392  20.208  0.2048  0.1593 -0.1599
21146W        W25546   2.090   4.538  17.955  0.1891 -0.0734 -0.0071
21147W        W25547   8.574   7.402   5.600  0.0987  0.1558 -0.1684
21148W        W25548  27.265   7.511  19.616 -0.0994  0.1233 -0.0013
21149W        W25549  16.797   4.400   5.440 -0.3178 -0.0612  0.2392
21150W        W25550   8.673   0.228  16.950  0.0140  0.0800  0.2221
21151W        W25551   7.510   1.328   5.404 -0.0191  0.1808 -0.0402
21152W        W25552   8.264   0.547   7.247 -0.2416 -0.1433  0.0732
21153W        W25553  10.841   4.840  22.360  0.3277  0.0385 -0.1643
21154W        W25554   8.903   6.406   7.267 -0.0843 -0.1242  0.0082
21155W        W25555  23.367   3.667  25.143 -0.0396  0.3275  0.1255
21156W        W25556  24.572   4.091   7.924  0.0643  0.2123 -0.1033
21157W        W25557   0.627   6.516   6.531  0.2023  0.2914  0.1432
21158W        W25558  24.316   1.547  16.034 -0.1256  0.4557 -0.0772
21159W        W25559  30.915   0.174   9.271 -0.1381  0.0262 -0.1275
21160W        W25560  30.968   1.086  23.606 -0.0396 -0.2469 -0.2256
21161W        W25561  24.476   1.248  20.179 -0.2171  0.1035 -0.0611
21162W        W25562  14.493   7.662  15.187 -0.1930 -0.0348 -0.0640
21163W        W25563  20.429   2.370  22.144  0.0517  0.0778  0.0786
21164W        W25564  24.853   5.731   6.628  0.1009 -0.1785  0.0377
21165W        W25565  21.717   3.674  20.701 -0.1030  0.0489 -0.2923
21166W        W25566   9.882   7.811  23.669  0.0442  0.3288  0.1610
21167W        W25567  17.616   7.638   8.160 -0.2250 -0.0140  0.1023
21168W        W25568  30.279   6.587   6.781  0.2317  0.1275 -0.0067
21169W        W25569  12.634   1.876  23.996 -0.0743  0.2743  0.2367
21170W        W25570   2.269   0.573  17.194 -0.2436 -0.1219  0.2206
21171W        W25571   1.381   2.008  25.484 -0.1128  0.0355  0.0810
21172W        W25572  21.301   6.733  19.504 -0.2927 -0.1297  0.2032
21173W        W25573   9.060   3.596  15.737  0.0361 -0.0326  0.0573
21174W        W25574   3.174   3.224   1.504 -0.1671  0.0981  0.2446
21175W        W25575   5.194   1.840   5.454 -0.1504  0.1347 -0.0991
21176W        W25576  13.336   2.430   8.535 -0.0606  0.1555 -0.0491
21177W        W25577  25.652   1.361  21.034 -0.0362 -0.0137 -0.0735
21178W        W25578   3.897   6.686  16.515 -0.0192 -0.2722  0.0013
21179W        W25579  21.666   1.572  17.253 -0.0183 -0.0267 -0.3354
21180W        W25580  28.913   1.192   8.531 -0.1702 -0.3293 -0.1479
21181W        W25581  16.393   0.107   8.871 -0.0404  0.1735 -0.2998
21182W        W25582  17.406   5.823   5.524  0.0254  0.4614 -0.0352
21183W        W25583  31.144   3.727  16.274  0.0512  0.2133  0.0101
21184W        W25584   5.868   0.657  15.575  0.2293 -0.0123 -0.0705
21185W        W25585   1.275   3.038  10.041  0.1678 -0.3346  0.0525
21186W        W25586  19.489   4.306  21.591 -0.0594  0.0252 -0.0129
21187W        W25587   8.579   6.775   4.017  0.0214 -0.1220  0.0645
21188W        W25588  12.267   2.276   1.011  0.0566 -0.1530  0.0926
21189W        W25589  30.598   2.741   5.617 -0.1698  0.0708  0.1827
21190W        W25590   8.917   6.543   5.875 -0.1132 -0.0022 -0.0775
21191W        W25591   1.932   1.395  20.027 -0.1856 -0.0332 -0.3433
21192W        W25592  16.620   2.178  22.139 -0.0716 -0.0094 -0.1804
21193W        W25593   4.682   4.519  10.166  0.1501  0.0415  0.1153
21194W        W25594   3.734   5.488  23.921  0.0606 -0.0872  0.0934
21195W        W25595   5.951   0.320  24.516  0.2738  0.0345 -0.1409
21196W        W25596  20.924   1.699  23.117  0.1505  0.2926  0.2244
21197W        W25597  17.986   6.471  14.483 -0.1409  0.4583 -0.0116
21198W        W25598   9.862   4.077  19.079  0.0913  0.1022  0.0880
21199W        W25599  16.943   2.635  15.437  0.0269 -0.1532 -0.0672
21200W        W25600  15.157   6.003   7.838 -0.1152 -0.0188  0.1164
21201W        W25601  10.995   0.231   2.448 -0.0911  0.1528  0.0331
21202W        W25602   6.575   3.934  23.147 -0.1183  0.0054 -0.1501
21203W        W25603  11.411   6.844  25.355  0.1429  0.1492 -0.0614
21204W        W25604  11.855   3.971  25.100  0.0743  0.1387 -0.1946
21205W        W25605  22.768   6.714   5.117 -0.0378  0.0703 -0.3656
21206W        W25606  30.923   7.142  25.989  0.2207 -0.2076  0.1772
21207W        W25607  31.058   2.981   5.702  0.0767 -0.0133 -0.0097
21208W        W25608  27.129   4.491  10.178 -0.2799  0.0233 -0.0505
21209W        W25609  10.459   2.630   2.878  0.1835  0.0040 -0.0244
21210W        W25610   7.695   5.827   3.271  0.2934 -0.1729  0.1398
21211W        W25611  28.760   2.439  25.685  0.0202 -0.0886 -0.2357
21212W        W25612   5.215   3.069   6.310  0.2296  0.0393 -0.4481
21213W        W25613  12.713   6.732  18.720 -0.1654  0.1534 -0.1171
21214W        W25614   2.397   5.366  10.336 -0.2574 -0.0595  0.1948
21215W        W25615  15.617   4.201  17.520 -0.1297 -0.1430  0.1399
21216W        W25616  17.192   6.342  23.141 -0.3136  0.1069 -0.4500
21217W        W25617  18.718   0.416  18.121  0.0490 -0.3080 -0.0255
21218W        W25618  28.162   1.274   0.640  0.0269 -0.2995 -0.0483
21219W        W25619  14.979   5.481  16.366 -0.2015  0.1208  0.0517
21220W        W25620  26.288   5.084  17.613 -0.0781 -0.2060  0.1019
21221W        W25621   7.420   1.896  21.286  0.2597 -0.1132 -0.1354
21222W        W25622   8.684   5.053   4.647 -0.1804 -0.1219 -0.2367
21223W        W25623  10.117   6.089   8.141  0.0420 -0.1263 -0.1522
21224W        W25624   0.311   4.316  21.933 -0.1383  0.0025 -0.3785
21225W        W25625  16.592   7.783  23.572  0.0392  0.3117 -0.0875
21226W        W25626  11.877   6.471   9.448  0.1059 -0.1762  0.0474
21227W        W25627  23.814   0.808   0.296  0.2487 -0.0529  0.1451
21228W        W25628  13.457   2.273   6.413 -0.0449 -0.0203  0.1289
21229W        W25629  14.955   3.546  21.468 -0.1867  0.1711 -0.0428
21230W        W25630   4.133   4.571   3.189 -0.1675  0.0888 -0.0180
21231W        W25631  14.493   0.316  22.370 -0.1076  0.0282 -0.2651
21232W        W25632  14.706   1.355   9.614  0.0659 -0.0252 -0.1297
21233W        W25633  16.927   4.020   2.486 -0.0470  0.1074  0.2000
21234W        W25634  25.875   3.154   5.385  0.1707 -0.3063  0.0165
21235W        W25635  16.374   4.724  23.299 -0.0035 -0.0149  0.1622
21236W        W25636   8.596   7.811  15.809  0.1597 -0.0676 -0.1018
21237W        W25637   7.446   7.309  10.555 -0.0937 -0.0611  0.0008
21238W        W25638  23.205   1.290   0.813  0.3177  0.1068 -0.0654
21239W        W25639  11.643   6.439   3.948 -0.0776 -0.2356 -0.0073
21240W        W25640  24.157   5.324  21.173 -0.2238 -0.4532 -0.3579
21241W        W25641  26.417   2.071  25.277 -0.1065 -0.3007  0.1329
21242W        W25642   2.302   3.883  16.317 -0.1089 -0.0034  0.0725
21243W        W25643  29.926   1.728   3.231  0.4072  0.3104  0.3911
21244W        W25644  25.516   6.915  18.322 -0.1786 -0.0087 -0.0516
21245W        W25645  19.013   0.790   4.676  0.3938  0.1167  0.0314
21246W        W25646  27.597   1.874   0.512 -0.1712  0.0019  0.1335
21247W        W25647  23.675   3.972  22.931  0.0256  0.0042 -0.3263
21248W        W25648   8.805   0.449  22.853  0.0329 -0.0447 -0.1079
21249W        W25649   4.190   7.341  25.201  0.3297 -0.2685 -0.1794
21250W        W25650   2.308   4.076   4.665  0.3112 -0.1070 -0.1606
21251W        W25651  20.437   1.292   9.134 -0.1149  0.0281  0.0561
21252W        W25652  22.198   1.338  15.177  0.1169 -0.2495 -0.2675
21253W        W25653  27.833   2.291   6.396 -0.0560  0.1712 -0.0105
21254W        W25654   5.162   5.469   6.948 -0.0459  0.0065 -0.4122
21255W        W25655  23.586   2.778  15.836  0.0124 -0.0242  0.1162
21256W        W25656  15.721   0.094  24.078  0.2320 -0.2301  0.0964
21257W        W25657  16.294   3.686   9.036  0.1306  0.0547 -0.1318
21258W        W25658   9.951   1.643   2.323  0.0611  0.0615 -0.1654
21259W        W25659  21.233   0.867  22.806 -0.0016  0.1609  0.0071
21260W        W25660  30.554   0.598   0.005 -0.0082 -0.1172 -0.2301
21261W        W25661   4.443   1.032  22.848  0.1438 -0.1423 -0.1631
21262W        W25662  21.517   1.039   7.191 -0.0821  0.1149 -0.3240
21263W        W25663  21.399   1.617   9.796 -0.1390 -0.1169 -0.2867
21264W        W25664   2.831   2.656  23.926 -0.2837 -0.0409  0.0610
21265W        W25665  27.439   5.660  15.474  0.0898 -0.2529  0.0334
21266W        W25666   9.483   2.338  20.498 -0.1671  0.0560 -0.0917
21267W        W25667  11.022   7.053  20.356 -0.1511  0.0869 -0.1136
21268W        W25668   5.664   2.863   5.609  0.1143 -0.2093 -0.1145
21269W        W25669  26.457   5.201   1.621  0.1674 -0.0881  0.2271
21270W        W25670  17.902   7.772  22.601  0.0372  0.2169  0.0380
21271W        W25671  18.793   3.013  22.534  0.1859  0.0119 -0.2260
21272W        W25672   5.436   0.453   0.153  0.0668  0.0025 -0.2175
21273W        W25673   5.289   0.552  21.274 -0.4482  0.1316  0.0135
21274W        W25674  25.717   5.402  16.334 -0.1499 -0.3203  0.2146
21275W        W25675   0.035   5.677  17.459  0.0374  0.1815  0.0114
21276W        W25676   4.631   1.902   3.768 -0.0383 -0.3156  0.1082
21277W        W25677   6.796   6.301  24.380  0.0752  0.1949 -0.3271
21278W        W25678  19.867   0.272  16.872 -0.0322  0.0787 -0.1148
21279W        W25679  13.126   1.666  17.861 -0.3203  0.0197 -0.1106
21280W        W25680  24.902   5.493  20.666 -0.1634 -0.1443 -0.1645
21281W        W25681  15.063   5.231  15.302 -0.2292  0.0171 -0.3093
21282W        W25682  12.639   2.356  21.567 -0.1656 -0.2040  0.0061
21283W        W25683  21.885   2.851   0.894  0.1961  0.0475 -0.0625
21284W        W25684   8.249   3.355  10.345 -0.0488 -0.5095  0.1324
21285W        W25685  26.366   7.332  25.354 -0.0048 -0.2065 -0.1787
21286W        W25686  11.214   3.385   8.375  0.0533 -0.3328 -0.1358
21287W        W25687  28.778   0.217  23.546 -0.1040  0.1530  0.1974
21288W        W25688  18.606   4.831  23.799 -0.0478 -0.0687 -0.0887
21289W        W25689  16.341   0.443   0.498  0.3459 -0.1951 -0.2644
21290W        W25690  23.610   6.736  15.567 -0.0134  0.0721 -0.1529
21291W        W25691   5.574   4.421  16.031 -0.1804  0.1905  0.3324
21292W        W25692   5.129   2.596  20.193  0.1070  0.0055  0.1986
21293W        W25693  24.656   3.713   3.440  0.3009  0.0846 -0.3121
21294W        W25694  25.880   4.294  19.091  0.1286  0.1854 -0.3154
21295W        W25695   3.143   6.851  16.832 -0.0604  0.0079  0.1993
21296W        W25696  23.570   5.316  15.169  0.0144 -0.0965 -0.1843
21297W        W25697  11.627   3.526   7.167  0.3552  0.1696  0.2906
21298W        W25698   2.534   7.431  10.966 -0.2950  0.0513 -0.1420
21299W        W25699  12.330   4.008  19.123  0.3800 -0.0871 -0.0717
21300W        W25700   2.987   6.211   1.907  0.0515 -0.0586  0.0288
21301W        W25701   6.848   4.180  16.206 -0.0144 -0.1399  0.0172
21302W        W25702  29.412   1.975   0.109 -0.0492  0.0618 -0.0896
21303W        W25703  24.684   2.343   3.578 -0.2885  0.0611  0.2316
21304W        W25704  17.601   2.402   7.262 -0.1305  0.0194 -0.1365
21305W        W25705   2.095   0.125   9.644  0.2083 -0.2469 -0.0311
21306W        W25706   4.882   2.885   5.038 -0.0436  0.1256 -0.1844
21307W        W25707  25.756   4.611   8.651  0.0255  0.0078 -0.1798
21308W        W25708  17.543   6.512  19.501 -0.1516 -0.1217  0.0116
21309W        W25709   4.313   3.117  11.129  0.0294 -0.1166  0.1336
21310W        W25710  30.798   4.479   8.188 -0.2154  0.3190  0.1581
21311W        W25711  25.263   5.242   1.386  0.1870  0.1540  0.2090
21312W        W25712   8.653   4.943  19.125 -0.1657 -0.0360 -0.0600
21313W        W25713  14.331   6.317  20.820  0.2562  0.2946 -0.1127
21314W        W25714  12.873   6.346   5.601  0.1211 -0.0244  0.1338
21315W        W25715  11.435   2.210   7.326  0.2157  0.1032 -0.0519
21316W        W25716   3.750   5.879   7.965 -0.0733 -0.0935  0.4886
21317W        W25717  29.256   2.831   0.134 -0.1042  0.1312  0.0683
21318W        W25718   1.847   7.647  21.142 -0.0228  0.3747  0.0736
21319W        W25719  18.512   7.125  21.728  0.0786 -0.1188 -0.1727
21320W        W25720  18.657   1.896  19.040  0.0293 -0.0334 -0.1263
21321W        W25721  19.503   3.739  25.165 -0.0796  0.3141 -0.0330
21322W        W25722  14.359   5.343   8.665  0.1625  0.2595 -0.1552
21323W        W25723  17.715   5.943   0.951  0.0508  0.1779  0.0388
21324W        W25724   9.016   2.464   4.725  0.1966  0.0499 -0.0839
21325W        W25725  26.326   7.666  15.573  0.1428  0.0571 -0.2340
21326W        W25726  20.637   7.435   0.401  0.1649  0.1279 -0.1249
21327W        W25727  17.147   7.377   5.021 -0.1971 -0.0192 -0.1896
21328W        W25728   4.111   5.457   6.562 -0.2628 -0.3303  0.1116
21329W        W25729  22.824   1.154  16.504  0.0984 -0.0667 -0.2426
21330W        W25730  11.660   4.152   7.184 -0.3488 -0.0665 -0.3795
21331W        W25731  20.816   0.997   1.827  0.1250 -0.1073 -0.2221
21332W        W25732   5.690   1.051   3.096 -0.1325 -0.3688  0.0701
21333W        W25733  11.996   0.890   1.439 -0.1407 -0.0672 -0.0040
21334W        W25734   4.367   4.910  24.338  0.1644  0.1486  0.3404
21335W        W25735  30.405   2.127  21.466 -0.0170  0.1060  0.1712
21336W        W25736  18.619   0.377  22.099 -0.1387  0.3287 -0.4045
21337W        W25737  30.084   7.667  25.585 -0.0144  0.0837 -0.2337
21338W        W25738  20.153   7.028  21.505  0.0627 -0.2906  0.0153
21339W        W25739   6.114   0.273  15.414 -0.3232  0.2846  0.1971
21340W        W25740  28.476   4.775   1.594 -0.0409 -0.1290  0.5003
21341W        W25741   8.628   1.736  24.194 -0.1439 -0.1844 -0.0735
21342W        W25742   8.560   7.455  23.316 -0.0548 -0.0313 -0.0735
21343W        W25743   2.366   4.626   0.614 -0.2778 -0.3896  0.0999
21344W        W25744  30.218   6.118  24.695 -0.0865 -0.1801 -0.0515
21345W        W25745  13.290   5.980   1.066  0.3210 -0.1697 -0.2987
21346W        W25746  18.582   4.187  19.509 -0.0639 -0.0634  0.0680
21347W        W25747  16.973   4.496   2.422 -0.0901  0.2088  0.3836
21348W        W25748  29.399   0.317   8.423 -0.0806 -0.1493 -0.2940
21349W        W25749   8.485   4.681  15.998 -0.2235  0.1446 -0.1451
21350W        W25750  10.445   2.747   2.000  0.2139 -0.0821  0.1885
21351W        W25751  29.600   5.104  10.290 -0.0739 -0.1350 -0.0459
21352W        W25752  20.238   4.411  21.067  0.0099 -0.1455  0.3697
21353W        W25753  18.087   2.876  19.357 -0.0472  0.0388 -0.0918
21354W        W25754  12.660   6.749  10.497 -0.0159 -0.0238  0.0004
21355W        W25755  23.563   7.042  11.124 -0.0866 -0.1233 -0.0060
21356W        W25756  14.155   6.686   6.632 -0.2466  0.0277  0.1169
21357W        W25757  14.042   3.951   8.890  0.1164  0.2027  0.2323
21358W        W25758  19.081   2.325   3.337  0.2052 -0.0698  0.0388
21359W        W25759  14.137   3.031   6.432 -0.0705  0.1408  0.3587
21360W        W25760  20.000   7.211  19.140  0.0080 -0.1571  0.0535
21361W        W25761  28.503   6.327   4.361  0.1014 -0.1535 -0.4250
21362W        W25762   9.823   0.929  23.951  0.0760  0.0476  0.0318
21363W        W25763  18.205   5.035   9.992  0.0561  0.3291  0.0413
21364W        W25764   1.280   4.384  21.964 -0.3496  0.2225 -0.2980
21365W        W25765  17.404   0.111  17.933  0.0050 -0.1935  0.0768
21366W        W25766  15.046   3.569   5.993 -0.3073 -0.0897 -0.4984
21367W        W25767   4.248   5.793   9.317 -0.2183 -0.0660  0.2920
21368W        W25768  13.721   7.168   2.429  0.0094 -0.3507  0.0613
21369W        W25769  12.472   6.708  15.831  0.2162 -0.0227 -0.0793
21370W        W25770  23.580   3.688  16.075 -0.1458 -0.0354  0.3104
21371W        W25771   4.785   1.667  18.565 -0.1542  0.0630 -0.2870
21372W        W25772  23.604   3.021   0.853 -0.1602  0.2661 -0.1795
21373W        W25773   9.435   4.140  20.675  0.0045  0.0882 -0.3304
21374W        W25774  15.056   0.366  22.915  0.0054  0.0833 -0.0472
21375W        W25775  10.099   0.997   4.846  0.1502  0.0995 -0.2554
21376W        W25776  24.609   7.008  10.571 -0.2513 -0.3144  0.0860
21377W        W25777  11.278   5.995   2.449  0.1025 -0.1718  0.0157
21378W        W25778   7.309   5.329  24.908 -0.0574 -0.0487  0.3204
21379W        W25779  10.606   6.305   3.717  0.2149  0.0296 -0.1906
21380W        W25780  30.566   4.317  19.785  0.0196  0.1305  0.0579
21381W        W25781  20.321   3.428  16.656 -0.0806 -0.1677 -0.0448
21382W        W25782  16.277   4.420   8.549  0.2692  0.1258 -0.2556
21383W        W25783  22.174   1.859   6.586  0.0318  0.1859 -0.1549
21384W        W25784  16.764   1.877  24.878  0.1796 -0.1916  0.2873
21385W        W25785  20.129   7.527  20.415 -0.1033  0.2373 -0.0584
21386W        W25786   8.162   2.184  22.994 -0.4040 -0.3152 -0.1182
21387W        W25787   7.389   3.517  25.424  0.2020 -0.3189  0.1987
21388W        W25788   6.840   2.295  25.496  0.0780  0.2133 -0.0687
21389W        W25789  12.885   4.001  10.825  0.1042 -0.1478  0.2180
21390W        W25790   8.902   5.053   3.192 -0.2079  0.0285  0.0174
21391W        W25791   0.918   4.278   5.948  0.0970  0.0861  0.2886
21392W        W25792   9.196   3.717  25.564  0.4977  0.2265  0.0314
21393W        W25793  23.411   7.396   8.204  0.0512  0.0185  0.1885
21394W        W25794  25.970   4.012   5.191  0.0167  0.0335  0.1214
21395W        W25795   4.984   5.776  25.858  0.0895  0.2244 -0.0087
21396W        W25796  20.634   6.489  23.000  0.2576 -0.1531  0.2384
21397W        W25797  28.455   5.476   9.638  0.0267 -0.0161  0.0418
21398W        W25798  11.403   3.716   1.050 -0.0529 -0.1407 -0.0079
21399W        W25799  21.262   6.222   8.851  0.0062 -0.0598  0.0766
21400W        W25800  30.069   3.616  20.986 -0.1623 -0.0839 -0.1415
21401W        W25801   4.139   1.151   9.931 -0.0973 -0.1421 -0.0561
21402W        W25802   1.488   1.364   5.046  0.3270 -0.1956  0.0857
21403W        W25803   0.749   2.243  23.225  0.3242  0.0928 -0.2284
21404W        W25804  13.332   1.081   0.630  0.2470  0.1901  0.1674
21405W        W25805  11.656   6.481  14.967 -0.0282  0.0739  0.2735
21406W        W25806  31.071   1.126  24.147  0.2381 -0.1199  0.0599
21407W        W25807   8.381   4.167  17.711 -0.1169  0.0317  0.1442
21408W        W25808  26.679   5.490   6.087  0.4306 -0.3727 -0.2025
21409W        W25809   9.209   2.575   6.455 -0.1096  0.1774  0.1155
21410W        W25810   0.885   5.378  17.700  0.1326 -0.0377  0.0582
21411W        W25811  19.560   5.561   8.575 -0.2604 -0.0398 -0.4721
21412W        W25812  29.769   6.367  19.538 -0.2421  0.1329 -0.0166
21413W        W25813  15.052   3.530   3.847  0.0453  0.2518  0.0356
21414W        W25814  13.006   0.107   2.608  0.2914 -0.1074 -0.0740
21415W        W25815   1.241   0.856  16.263  0.0772 -0.0470  0.0929
21416W        W25816  25.861   3.782  23.633  0.0384  0.0317 -0.0049
21417W        W25817  23.765   1.088  19.853  0.1782 -0.0020 -0.0052
21418W        W25818  18.905   4.394  15.119  0.2996 -0.0642  0.1532
21419W        W25819   0.983   5.741   5.017  0.0976 -0.1685  0.1145
21420W        W25820  18.694   5.350  25.669 -0.0493 -0.1495 -0.1081
21421W        W25821  29.222   3.728   9.992  0.4136 -0.2017 -0.2664
21422W        W25822  16.115   2.546  15.437  0.1091 -0.0891 -0.0015
21423W        W25823  24.705   4.820   3.011  0.0955  0.1763 -0.0339
21424W        W25824  17.681   1.553  24.068 -0.1204  0.0267 -0.1148
21425W        W25825  29.381   6.732  25.475  0.2586 -0.0802 -0.1396
21426W        W25826  21.248   2.278  10.360 -0.3026 -0.0228  0.3122
21427W        W25827   3.846   5.013   3.177  0.3862  0.0660 -0.0243
21428W        W25828  23.787   7.230  20.108  0.1307 -0.2186  0.0151
21429W        W25829  13.015   5.450   9.799 -0.1975  0.1400  0.2217
21430W        W25830   0.163   1.670  18.247 -0.1550  0.2665  0.1564
21431W        W25831  12.042   5.683   1.024 -0.0986 -0.2358 -0.0506
21432W        W25832   7.857   4.965   5.654 -0.1707 -0.0317 -0.0217
21433W        W25833  12.716   4.390   1.955  0.0018 -0.0621  0.0756
21434W        W25834  21.188   1.105   6.868 -0.0250  0.3993  0.0848
21435W        W25835   2.021   5.709   1.880 -0.3236 -0.0027 -0.0243
21436W        W25836   8.116   3.760  24.515 -0.1623  0.0588  0.1588
21437W        W25837  20.719   6.946  22.123  0.1737 -0.0369 -0.0766
21438W        W25838  15.644   1.280  19.399  0.2158  0.0856 -0.3159
21439W        W25839  30.948   0.042  19.219  0.1017 -0.0790  0.2401
21440W        W25840  24.000   3.681   2.243 -0.0003  0.2399  0.1072
21441W        W25841  19.820   1.971   8.689 -0.0806  0.3113 -0.2287
21442W        W25842   3.033   1.883  22.821 -0.1235  0.3667 -0.1425
21443W        W25843  13.250   0.295  15.099 -0.2770  0.2179  0.2095
21444W        W25844   3.875   6.098  15.945  0.0695 -0.0261  0.2029
21445W        W25845  11.333   6.787  18.621  0.2657 -0.1287  0.2297
21446W        W25846  25.083   0.660  19.941  0.1520  0.0145 -0.3416
21447W        W25847  22.292   5.290   3.285 -0.0670  0.0561 -0.1956
21448W        W25848  21.103   5.061  19.990  0.1163 -0.2056 -0.0083
21449W        W25849   6.013   4.829  22.452  0.2080 -0.1663 -0.0768
21450W        W25850  23.419   6.784   4.829  0.2504  0.0490  0.1775
21451W        W25851  25.379   1.621  17.891 -0.1610  0.2865  0.0602
21452W        W25852  25.120   6.666   2.721  0.3165  0.0758  0.0624
21453W        W25853   1.116   1.434  16.640 -0.0222 -0.1614  0.0943
21454W        W25854  13.357   4.033   8.433  0.0618 -0.0067  0.1114
21455W        W25855   2.533   4.820  17.820  0.1572 -0.3003 -0.1021
21456W        W25856  19.926   6.253   1.680 -0.2212  0.0681 -0.1210
21457W        W25857  23.902   0.301   2.724  0.1420  0.0002  0.0341
21458W        W25858  26.208   3.786  21.179  0.2503 -0.0849 -0.0000
21459W        W25859  13.513   0.002   9.202 -0.0120 -0.0176 -0.0911
21460W        W25860  17.184   3.351   8.933  0.0539 -0.0624 -0.1184
21461W        W25861   7.595   5.766  16.055 -0.1492  0.1022  0.1188
21462W        W25862  10.520   0.258   3.772 -0.0159  0.2685 -0.1785
21463W        W25863  20.570   0.779  20.329  0.0968 -0.0566 -0.1887
21464W        W25864  13.974   7.820  20.237 -0.1098  0.1622 -0.0573
21465W        W25865   0.150   1.089   3.779  0.0783 -0.1623 -0.2057
21466W        W25866  25.623   5.705   2.761 -0.1888  0.1006  0.1008
21467W        W25867   4.052   0.109  19.372  0.2467  0.1412 -0.1960
21468W        W25868  14.823   5.447  19.210 -0.0554 -0.2780  0.3316
21469W        W25869  23.320   7.014  18.025  0.1958 -0.0492 -0.2659
21470W        W25870  17.678   7.093   6.925  0.1426  0.1117  0.0372
21471W        W25871  20.394   3.870   4.706 -0.1296  0.4033 -0.0604
21472W        W25872  21.485   6.795  21.963 -0.1118  0.0089  0.0126
21473W        W25873  23.520   3.526   1.558  0.2744 -0.0149  0.0851
21474W        W25874  22.941   4.396   9.476 -0.0788 -0.1311  0.0884
21475W        W25875  24.621   4.068   4.749 -0.4090  0.1635  0.0256
21476W        W25876  20.561   6.262   6.502 -0.0876 -0.1155  0.0884
21477W        W25877   9.624   7.397   7.739  0.1038 -0.1448 -0.0723
21478W        W25878  27.779   1.188   5.111 -0.1966  0.3758  0.1820
21479W        W25879   5.685   1.176  17.827 -0.2940  0.2522 -0.0807
21480W        W25880  15.617   6.062   0.031 -0.1312  0.0459 -0.0495
21481W        W25881  30.089   4.943  17.972 -0.0559 -0.0574 -0.1822
21482W        W25882  20.100   0.704  16.678 -0.0225 -0.1358 -0.3720
21483W        W25883  12.142   3.649   9.128  0.1077  0.1907 -0.1035
21484W        W25884   7.009   5.796  25.387 -0.3278  0.0742  0.0075
21485W        W25885  29.407   2.295  23.025  0.1947 -0.0892  0.1056
21486W        W25886   2.918   4.948   5.115 -0.2256 -0.2865  0.0972
21487W        W25887  30.950   6.397  23.871  0.0637 -0.0471  0.0827
21488W        W25888   4.179   2.023   1.287  0.3804  0.1600  0.2135
21489W        W25889   3.027   1.062   3.429  0.1281  0.3390  0.0228
21490W        W25890  13.726   3.096   4.183  0.0714  0.0831 -0.1870
21491W        W25891  17.015   4.125   3.282 -0.0529  0.1640 -0.0706
21492W        W25892   0.701   2.510   2.127 -0.1172 -0.0496 -0.0539
21493W        W25893  15.168   4.125  24.311 -0.2098 -0.0761  0.0116
21494W        W25894  11.761   2.590   1.690  0.0299 -0.3193  0.0770
21495W        W25895  12.937   7.376   9.508 -0.0607 -0.1288  0.1520
21496W        W25896  10.175   5.952   6.687 -0.2511  0.0766  0.2015
21497W        W25897   6.647   7.589  26.165 -0.1631  0.4363  0.2828
21498W        W25898  10.015   0.721  16.787  0.4684  0.0171  0.0146
21499W        W25899  20.699   7.449  22.362 -0.1610 -0.1081  0.1156
21500W        W25900   4.242   0.489  19.054 -0.1378 -0.2237 -0.2180
21501W        W25901   5.082   2.313   0.803 -0.0588  0.4005  0.0007
21502W        W25902   8.401   7.394   2.783  0.1552  0.1219 -0.1114
21503W        W25903  23.123   6.826  19.018 -0.4360  0.1231 -0.1379
21504W        W25904  14.925   6.369   4.414 -0.0209  0.2077  0.3130
21505W        W25905   3.534   5.632  24.399  0.1518  0.0255 -0.0022
21506W        W25906  30.051   3.857  26.026 -0.3444 -0.0728  0.1272
21507W        W25907   4.472   0.645   7.126 -0.0301  0.1525  0.1381
21508W        W25908   0.593   1.732  24.388 -0.1052 -0.0278 -0.2059
21509W        W25909  28.137   6.560  10.530  0.1977  0.0346 -0.1648
21510W        W25910  14.917   3.791   7.596 -0.1513 -0.1647  0.1994
21511W        W25911   1.391   5.600  10.072  0.0263 -0.0888  0.1344
21512W        W25912   9.914   4.956  19.910 -0.1747  0.2214 -0.1210
21513W        W25913  21.799   6.966  23.321  0.0310 -0.2418  0.1178
21514W        W25914  24.465   3.849   2.566 -0.1351  0.0500  0.0016
21515W        W25915   3.952   3.143   8.026  0.1956  0.0054 -0.2491
21516W        W25916   3.282   7.636   5.092  0.0882 -0.3520 -0.4225
21517W        W25917  22.653   6.312   6.952  0.1025 -0.0012 -0.1394
21518W        W25918  12.258   1.597  16.336  0.0069 -0.0353  0.3164
21519W        W25919   6.375   5.719   4.972  0.0138  0.0100  0.0794
21520W        W25920  18.078   5.160  16.648 -0.0136  0.3469  0.3129
21521W        W25921   1.711   5.399   6.430 -0.4653  0.0955 -0.0140
21522W        W25922  13.256   0.849   4.677  0.2303 -0.1197  0.2919
21523W        W25923  22.384   3.199  18.691  0.0425  0.2199 -0.0046
21524W        W25924  18.204   1.136  16.222  0.2431  0.1310 -0.5779
21525W        W25925  28.198   4.655   8.105 -0.2535 -0.1100  0.0850
21526W        W25926  20.650   4.266  25.627  0.1250 -0.3319 -0.0623
21527W        W25927  12.190   4.203  24.834 -0.2387  0.0676  0.2347
21528W        W25928  24.365   5.822  25.166  0.0219  0.0090 -0.0595
21529W        W25929  31.237   0.815   8.324  0.1723 -0.2434 -0.1104
21530W        W25930  11.697   4.384   7.780  0.2020  0.1983  0.0127
21531W        W25931  25.708   6.356   8.920  0.3561 -0.1517  0.0435
21532W        W25932   2.081   4.759  25.125 -0.2718  0.1073 -0.1296
21533W        W25933   0.529   5.682   8.738 -0.0561  0.2196 -0.1698
21534W        W25934  29.673   2.328   4.412 -0.1214 -0.1056  0.4054
21535W        W25935   0.733   0.535  10.106 -0.0927  0.0500  0.1251
21536W        W25936  22.615   2.099   1.466  0.2312 -0.1609 -0.0137
21537W        W25937   5.449   5.495  25.715 -0.1364 -0.0299 -0.0034
21538W        W25938  14.655   4.273   4.552  0.0303 -0.1979 -0.1149
21539W        W25939  21.603   5.335   3.135 -0.0848 -0.1961  0.1753
21540W        W25940   5.997   3.699  15.955 -0.0436 -0.1515  0.0267
21541W        W25941  28.813   2.378  16.876 -0.2032  0.1692  0.0521
21542W        W25942  14.352   5.663   9.569  0.3136  0.0339  0.1411
21543W        W25943  30.991   3.985   7.946  0.1533 -0.2545 -0.0146
21544W        W25944  19.682   1.304  10.376 -0.2236 -0.0210  0.1665
21545W        W25945  27.875   0.127   3.989  0.0119 -0.2453  0.0037
21546W        W25946  10.784   3.730  23.409  0.3192  0.2160  0.2021
21547W        W25947  22.773   3.757  25.804  0.0632  0.3117 -0.0878
21548W        W25948  10.840   1.737  22.947 -0.1648  0.0626  0.1149
21549W        W25949  23.032   7.776   0.610  0.4441  0.2204  0.0228
21550W        W25950  15.627   3.576  20.703  0.0744 -0.1383  0.1993
21551W        W25951   5.037   0.621  16.788  0.2747  0.1658 -0.1188
21552W        W25952  29.012   3.077  16.691 -0.1537  0.2311  0.0142
21553W        W25953   7.475   3.998   8.762 -0.3486 -0.1045  0.0829
21554W        W25954   6.785   7.674   4.126 -0.2762 -0.0659  0.4545
21555W        W25955  20.487   7.062  19.343 -0.0176  0.1230  0.1027
21556W        W25956  20.712   3.835   3.343 -0.0334  0.1581 -0.0766
21557W        W25957  30.977   1.129   1.710 -0.1693  0.0816  0.1396
21558W        W25958  14.474   7.138   7.278  0.1967  0.2617 -0.3362
21559W        W25959   1.222   3.776   1.836  0.2866 -0.0340  0.1365
21560W        W25960  18.430   4.355  24.629  0.1927  0.0760 -0.2588
21561W        W25961   3.762   6.809   4.704  0.1977  0.1261 -0.1820
21562W        W25962  28.110   7.689   0.339 -0.1015 -0.1039 -0.3188
21563W        W25963   1.183   3.587   7.233  0.2052 -0.0519  0.1368
21564W        W25964  21.603   3.105  15.416  0.0756  0.0583  0.1803
21565W        W25965  24.865   1.186  16.973  0.1669 -0.0229 -0.1070
21566W        W25966   5.745   4.158   7.524  0.1039  0.0787  0.2098
21567W        W25967  30.868   5.976  10.915 -0.0398  0.0641  0.0009
21568W        W25968  10.180   2.450  23.866 -0.0489  0.0308  0.0918
21569W        W25969  30.908   3.186   7.439 -0.2260 -0.0318 -0.0474
21570W        W25970  27.814   4.142  15.168 -0.1430  0.1429 -0.1666
21571W        W25971  23.201   6.880  18.561 -0.0520 -0.2506 -0.0310
21572W        W25972   5.566   5.067  10.811  0.0660  0.1985  0.2607
21573W        W25973  28.446   3.264  26.015  0.1633 -0.1076 -0.0588
21574W        W25974  21.068   7.644  22.066 -0.1305  0.0720 -0.0551
21575W        W25975  22.349   6.403  21.763 -0.0764 -0.1359 -0.0941
21576W        W25976   8.967   3.524   1.436 -0.2130 -0.1111  0.2078
21577W        W25977  17.234   2.972   6.694  0.1417 -0.1207  0.2164
21578W        W25978  16.803   5.370  18.670  0.2187  0.3404 -0.0269
21579W        W25979   0.487   6.600   8.117  0.1715  0.1302  0.4565
21580W        W25980  13.447   5.674  16.825 -0.0460  0.1783 -0.1061
21581W        W25981  14.258   7.729  22.383 -0.0420  0.1560 -0.0674
21582W        W25982  15.646   7.235   8.979  0.0738  0.1325 -0.0284
21583W        W25983  15.859   4.938   6.048  0.1224 -0.6088  0.1240
21584W        W25984   0.372   7.225   6.143  0.0864  0.1295 -0.2490
21585W        W25985  13.787   2.085   3.107  0.1976  0.1935  0.0705
21586W        W25986  24.168   2.394  16.535 -0.3400  0.1281 -0.0192
21587W        W25987  27.180   0.285   3.103  0.1521 -0.0865 -0.0840
21588W        W25988  11.467   0.860   0.323 -0.1289 -0.0287  0.3643
21589W        W25989  31.225   1.078   0.424 -0.2653 -0.2483 -0.0549
21590W        W25990  30.300   3.100  22.656  0.1453  0.0886  0.2458
21591W        W25991  23.474   4.091  21.380  0.0039 -0.1696 -0.2490
21592W        W25992  26.565   5.070   9.606  0.0785  0.1428 -0.1759
21593W        W25993  13.415   1.461   0.137 -0.2012  0.1846  0.1186
21594W        W25994  29.274   0.483  19.649 -0.0008 -0.0671  0.0286
21595W        W25995  12.571   6.944   2.687 -0.3115 -0.2256 -0.1735
21596W        W25996   3.814   4.994  25.614  0.1154 -0.2092  0.1880
21597W        W25997   9.878   5.033   8.885  0.0910  0.0347  0.1381
21598W        W25998   6.698   3.588   5.337  0.1049 -0.5119  0.0686
21599W        W25999   4.530   6.462   6.330  0.2747 -0.1761  0.1994
21600W        W26000  18.082   1.764   6.608 -0.0341  0.3252  0.4582
21601W        W26001  22.385   5.570   4.922 -0.4450 -0.0426 -0.0785
21602W        W26002  14.192   0.892  17.783 -0.0499 -0.3839 -0.1384
21603W        W26003  18.936   5.825   3.453  0.3892  0.1700  0.0657
21604W        W26004  29.056   0.613   7.372  0.2675 -0.0404  0.1070
21605W        W26005  21.726   6.391  10.136 -0.2456  0.0824 -0.0517
21606W        W26006  27.767   5.850   4.733  0.0253 -0.0534  0.1308
21607W        W26007   6.168   3.657  24.392  0.0482 -0.0588  0.3899
21608W        W26008   4.375   5.755  24.006 -0.0667 -0.0627  0.0005
21609W        W26009  28.024   6.499   4.355 -0.3424 -0.1262 -0.0792
21610W        W26010   5.849   2.190  10.560  0.0670 -0.0747  0.6184
21611W        W26011  26.997   3.959  21.741  0.0103 -0.0190  0.0533
21612W        W26012  26.849   4.844  24.971 -0.0597 -0.1987  0.0705
21613W        W26013  29.390   7.530   7.079 -0.0280  0.0098  0.0563
21614W        W26014  26.067   3.341  15.997 -0.2928 -0.0146 -0.3215
21615W        W26015  10.019   6.264  23.876 -0.1177 -0.2408 -0.0227
21616W        W26016  20.204   4.998   8.204  0.0084  0.2246 -0.0814
21617W        W26017   2.458   2.215  11.255 -0.4162 -0.0607 -0.0618
21618W        W26018   7.696   6.338   6.621 -0.2373  0.0841  0.0546
21619W        W26019  17.798   6.739   7.315 -0.0749 -0.3333 -0.1830
21620W        W26020  13.356   2.676  23.926 -0.2546  0.2443  0.1254
21621W        W26021  26.357   6.065  21.803 -0.2393 -0.0809 -0.1901
21622W        W26022   8.862   6.392   5.376 -0.0856  0.3136  0.2052
21623W        W26023   5.905   5.966  20.569 -0.0287 -0.2210  0.2721
21624W        W26024   3.591   7.064   7.010  0.0607  0.1655 -0.4846
21625W        W26025  10.681   0.076  16.780 -0.0022  0.0635 -0.0275
21626W        W26026  29.516   2.710   7.941 -0.0795  0.2249 -0.1416
21627W        W26027  13.152   7.727  25.793  0.3678  0.0640  0.2915
21628W        W26028  27.806   6.369   0.435 -0.0232 -0.0042 -0.0123
21629W        W26029   5.828   1.754   3.326 -0.1137 -0.2779  0.0760
21630W        W26030  25.603   7.641  21.034 -0.0167  0.2105  0.0443
21631W        W26031   7.758   3.656  16.382 -0.0603  0.1232 -0.0650
21632W        W26032  26.700   3.233   7.201  0.0965  0.1286  0.0512
21633W        W26033  11.023   2.718  17.862 -0.0329  0.2485  0.2397
21634W        W26034  23.799   5.793  16.952 -0.0944  0.1382 -0.2834
21635W        W26035   2.147   3.365   7.400 -0.2737  0.0781  0.2405
21636W        W26036  21.681   2.590  15.643 -0.0802 -0.0129 -0.1846
21637W        W26037  29.685   0.848  19.095 -0.1573  0.0300 -0.0887
21638W        W26038  16.098   4.749  10.571 -0.1685  0.2326  0.0989
21639W        W26039   1.033   7.813  22.189 -0.0602 -0.0618 -0.0804
21640W        W26040  30.355   4.728   1.770  0.2885 -0.0541  0.0892
21641W        W26041  11.475   7.127  17.304  0.0440 -0.1001 -0.0650
21642W        W26042  10.920   5.738  21.103 -0.2095 -0.1927  0.1565
21643W        W26043   6.443   4.226   2.715 -0.0172  0.1549 -0.1459
21644W        W26044  27.658   5.109  17.386  0.4391 -0.1176 -0.0550
21645W        W26045  24.472   7.466  23.386 -0.1928 -0.1167  0.0324
21646W        W26046  26.071   5.446  21.148  0.0036 -0.0350  0.0979
21647W        W26047  13.399   2.122   4.679  0.1981  0.1232  0.0197
21648W        W26048  28.536   6.931  16.162  0.1888 -0.0820  0.1843
21649W        W26049  27.439   4.091  25.865 -0.2014 -0.1906  0.0020
21650W        W26050   9.213   0.173   5.423  0.0097 -0.2985 -0.2389
21651W        W26051  27.272   4.086  25.337 -0.4879  0.1790  0.2338
21652W        W26052  28.776   1.022   2.659  0.0305  0.1255  0.2321
21653W        W26053  25.082   1.457  25.811  0.1950 -0.0958  0.0324
21654W        W26054  16.306   6.742  21.134 -0.1035 -0.0870 -0.1246
21655W        W26055  15.462   3.112   5.050 -0.1320  0.0260 -0.1562
21656W        W26056  27.551   3.893  17.825 -0.1893  0.0550 -0.0665
21657W        W26057   0.291   4.944  17.730  0.1333  0.2421  0.0004
21658W        W26058  19.101   1.278   4.515 -0.2430 -0.0645 -0.0017
21659W        W26059  21.235   3.298  18.897  0.1345 -0.1112 -0.0743
21660W        W26060  11.640   7.546  10.682 -0.0159  0.2799  0.0601
21661W        W26061   2.151   6.306  20.579 -0.0913 -0.0059 -0.3782
21662W        W26062  10.312   6.270   3.348  0.0142 -0.0600  0.0738
21663W        W26063  26.858   6.730   4.336  0.1535  0.3319 -0.1886
21664W        W26064  30.929   0.203  20.735  0.3216  0.0356  0.2509
21665W        W26065   3.619   3.522   2.185 -0.2850  0.2369 -0.1259
21666W        W26066  12.183   0.898   2.015  0.1328 -0.0716 -0.1997
21667W        W26067  30.302   2.435  16.112  0.0148  0.2805  0.1414
21668W        W26068  28.500   7.652   0.039  0.4855 -0.0847  0.0492
21669W        W26069   5.168   4.569  16.863  0.0631  0.0494 -0.1101
21670W        W26070  21.166   7.209  16.677  0.1369  0.0360 -0.3449
21671W        W26071  23.223   4.345   0.505  0.2480  0.1522  0.0333
21672W        W26072  19.079   2.015   2.468 -0.2164 -0.0365  0.0741
21673W        W26073  15.416   0.999   1.345 -0.2533 -0.2653  0.2736
21674W        W26074   6.345   3.887  17.401 -0.3108  0.1303 -0.0699
21675W        W26075  16.984   3.105  20.530  0.1915  0.1727  0.1679
21676W        W26076  15.744   5.865  17.864 -0.3303 -0.1905 -0.3769
21677W        W26077  25.117   6.819   2.061 -0.3868  0.1042  0.3717
21678W        W26078   5.305   5.178   9.506 -0.2610 -0.0457  0.3315
21679W        W26079  11.671   5.207  24.376  0.1993 -0.1814  0.2533
21680W        W26080  23.848   5.450   6.675 -0.0790 -0.0134  0.2520
21681W        W26081  24.777   3.352   8.395  0.0191 -0.1085 -0.2615
21682W        W26082  18.566   2.278  22.601 -0.0018 -0.0754  0.2743
21683W        W26083   7.938   1.726   4.564 -0.1032  0.0153 -0.1507
21684W        W26084   6.214   7.409  19.430  0.0505  0.0951 -0.0067
21685W        W26085   1.250   5.832  18.223  0.0203 -0.2506 -0.1007
21686W        W26086  15.966   5.495   2.713 -0.1818  0.1017  0.1638
21687W        W26087  11.148   5.147  23.197  0.0860 -0.0772  0.0029
21688W        W26088   5.521   0.866  17.382 -0.3223  0.1050 -0.2655
21689W        W26089  13.649   0.544  21.249 -0.4593  0.1320  0.1865
21690W        W26090  23.237   1.043  24.235 -0.1335  0.0436 -0.0929
21691W        W26091   2.287   2.943  18.479 -0.1573  0.0487  0.0863
21692W        W26092  13.586   5.785  16.285  0.1351 -0.2056  0.1462
21693W        W26093  28.443   5.112   7.973 -0.1722  0.0026 -0.1891
21694W        W26094   2.354   5.989  19.745 -0.3026 -0.1206  0.1931
21695W        W26095  10.425   3.040  20.385  0.1414  0.0131 -0.2049
21696W        W26096   8.369   2.149  24.348 -0.0296  0.1424 -0.0118
21697W        W26097   3.894   5.143   8.522  0.0073 -0.0400  0.2500
21698W        W26098  20.689   5.719  19.791  0.0411  0.0893  0.2179
21699W        W26099   9.626   5.019   3.616  0.0228 -0.0673  0.0892
21700W        W26100  28.224   3.737  20.579 -0.0610 -0.0761  0.0181
21701W        W26101  27.221   3.230  16.400 -0.0362 -0.1742  0.0852
21702W        W26102   9.849   0.040  16.674 -0.0419 -0.0389 -0.1230
21703W        W26103  11.705   7.576  18.912  0.0885  0.1866  0.1286
21704W        W26104   6.650   4.504   5.934 -0.0502  0.1892  0.2190
21705W        W26105  25.400   0.483   5.449  0.0823  0.1183 -0.2803
21706W        W26106  16.845   3.560  16.374 -0.0249  0.0196  0.0006
21707W        W26107  19.380   2.276  17.370 -0.2529 -0.1468 -0.0398
21708W        W26108  20.419   3.211  23.956 -0.3668  0.0389  0.0489
21709W        W26109  26.705   3.995   6.550 -0.3307 -0.1328 -0.0858
21710W        W26110  12.221   2.066   5.402 -0.4107  0.2535  0.3037
21711W        W26111  24.551   5.222  10.404 -0.0661 -0.0169 -0.3606
21712W        W26112  30.258   3.354  21.366 -0.1957 -0.1017 -0.1842
21713W        W26113  15.479   1.082  15.261  0.1216  0.2694  0.3027
21714W        W26114  23.612   6.529   9.434  0.0749  0.1762 -0.1004
21715W        W26115   2.818   0.212  23.476  0.0592  0.4554  0.1810
21716W        W26116   6.950   7.326  23.784 -0.3547 -0.1644  0.3512
21717W        W26117   8.457   5.988   2.494  0.1592 -0.0901  0.0783
21718W        W26118  29.416   3.434  16.822  0.3813  0.2183  0.0209
21719W        W26119  28.795   6.805  18.752 -0.0123  0.0062  0.3834
21720W        W26120  20.098   2.280   0.135  0.1180 -0.0855 -0.2938
21721W        W26121   0.406   7.582   2.935  0.0027  0.1092 -0.1058
21722W        W26122   6.136   6.994  22.295 -0.2786 -0.0933 -0.0070
21723W        W26123   2.936   6.135   5.110 -0.1352 -0.1040 -0.1368
21724W        W26124  17.767   0.873  21.024  0.0518 -0.0253  0.2901
21725W        W26125  20.227   4.990   7.248  0.0580 -0.0076 -0.0441
21726W        W26126  11.637   1.396   7.665  0.0043 -0.0741 -0.0497
21727W        W26127  11.330   5.732  17.968  0.4197  0.1428 -0.0923
21728W        W26128   4.237   5.699   5.960 -0.1152 -0.1955  0.0104
21729W        W26129  16.488   5.701   5.329  0.2827 -0.0148  0.1376
21730W        W26130  23.152   3.348  21.893  0.0009 -0.0934  0.0511
21731W        W26131  28.772   0.839   9.386 -0.2541  0.1080  0.1172
21732W        W26132   3.386   6.565  24.304 -0.1032 -0.2980  0.2136
21733W        W26133  14.319   7.370   5.319  0.0280 -0.0020  0.2831
21734W        W26134  13.185   6.449   0.825 -0.0010 -0.1160 -0.1137
21735W        W26135  26.762   5.496   7.796  0.0193  0.1455 -0.0211
21736W        W26136  23.182   0.369   7.092 -0.2408  0.0319  0.1671
21737W        W26137  13.183   7.525  21.509  0.1508  0.3399 -0.3553
21738W        W26138   4.732   2.875  17.674  0.0711  0.0995 -0.0418
21739W        W26139  15.942   4.126   1.392 -0.0390 -0.1694 -0.0396
21740W        W26140  30.523   5.555  21.671  0.1019 -0.0950 -0.2842
21741W        W26141  27.197   0.344   9.712  0.0207  0.0742 -0.0983
21742W        W26142  31.223   4.857   0.784 -0.1833 -0.1678 -0.0362
21743W        W26143  18.828   2.266  23.554 -0.1196  0.1782  0.0669
21744W        W26144   9.962   0.011   3.275  0.1151  0.1664  0.1303
21745W        W26145  24.605   3.025  10.895 -0.2176 -0.2804  0.0017
21746W        W26146  25.932   4.386   2.555 -0.0605 -0.3437  0.2838
21747W        W26147   3.119   7.247   2.614  0.2625 -0.1220  0.0804
21748W        W26148   1.472   1.667  17.038 -0.0664  0.0572  0.1602
21749W        W26149   4.921   0.119   1.956  0.0665 -0.1100  0.0081
21750W        W26150  15.559   5.225  15.881  0.1927 -0.1322  0.1082
21751W        W26151   3.759   4.439  22.952  0.0650 -0.0988 -0.0742
21752W        W26152  22.395   3.723  16.363  0.3727 -0.2682  0.0225
21753W        W26153   9.437   2.908  18.794  0.0559  0.0275 -0.2620
21754W        W26154  26.643   0.633  19.350  0.0120  0.1626  0.1361
21755W        W26155  11.427   1.408   2.494  0.1794  0.1919 -0.2144
21756W        W26156  19.477   7.150   1.307 -0.0142  0.2502 -0.0287
21757W        W26157   9.310   3.740   9.615  0.3226  0.0088 -0.0056
21758W        W26158  19.840   1.680  24.494 -0.2743 -0.4109  0.0767
21759W        W26159  17.016   4.253   4.615 -0.0840  0.0179 -0.4779
21760W        W26160   5.856   5.176   0.856 -0.0112  0.1321 -0.1135
21761W        W26161   0.837   5.325   1.928  0.3836  0.0394 -0.0382
21762W        W26162  12.963   3.238   2.659 -0.0120 -0.1028 -0.4641
21763W        W26163  29.001   3.386  23.228 -0.0926 -0.0541 -0.0877
21764W        W26164  11.218   3.745  11.246 -0.2577 -0.1298  0.0254
21765W        W26165  16.039   3.591  24.437  0.2133 -0.3123  0.3628
21766W        W26166  31.055   6.845   4.998 -0.0830  0.2740 -0.2840
21767W        W26167   7.230   4.610   4.891  0.1467  0.2230 -0.1476
21768W        W26168  15.736   3.119  17.078 -0.0812  0.4583 -0.0148
21769W        W26169  18.366   5.640  18.921 -0.0747 -0.0487 -0.0772
21770W        W26170  30.038   2.531   0.013 -0.0052  0.0002  0.0560
21771W        W26171  11.957   6.044  24.416 -0.0389 -0.0715 -0.1561
21772W        W26172  18.400   5.551   4.243  0.0008  0.0690  0.0352
21773W        W26173  30.918   2.072  10.731 -0.0674 -0.0425 -0.1204
21774W        W26174  10.005   6.230   2.319  0.1031  0.0981  0.1035
21775W        W26175   2.303   1.910   4.444  0.1193  0.1520 -0.0888
21776W        W26176  29.208   2.874   2.114 -0.0736 -0.0248  0.1043
21777W        W26177   5.640   6.164  25.126 -0.2144  0.0528 -0.4411
21778W        W26178   9.252   6.338  20.750  0.0163  0.0000  0.1002
21779W        W26179  14.582   4.858  25.395  0.1917 -0.2910 -0.0582
21780W        W26180  14.432   5.270  16.403  0.2524  0.1132  0.0827
21781W        W26181  16.210   0.613  16.569 -0.2523 -0.2225  0.1010
21782W        W26182  15.821   4.438  16.564  0.0634  0.1501  0.0268
21783W        W26183   6.508   5.726   9.631 -0.1662  0.1489  0.1450
21784W        W26184  12.509   0.248   9.537 -0.0466  0.0951 -0.0417
21785W        W26185   5.864   4.146  11.243 -0.1098 -0.0323  0.1880
21786W        W26186   2.139   0.577  11.099  0.1651  0.2361 -0.3243
21787W        W26187  18.549   2.036  15.825  0.0974  0.0771  0.0007
21788W        W26188  17.420   0.378   2.821 -0.1096  0.1791 -0.0154
21789W        W26189  15.181   3.688  20.971  0.1664  0.2752  0.0186
21790W        W26190  28.888   5.722   6.209 -0.1112  0.2157  0.2100
21791W        W26191  11.839   2.577  17.771  0.0680 -0.1145 -0.0510
21792W        W26192   9.710   7.450   9.877  0.0533  0.3343  0.1201
21793W        W26193  13.898   5.604   6.528  0.2643 -0.0174 -0.1914
21794W        W26194   1.827   3.062  22.746  0.1136 -0.0296  0.0190
21795W        W26195  30.876   5.152   9.406 -0.2001  0.0354 -0.0663
21796W        W26196  30.541   1.768  19.986  0.0310  0.2503 -0.0592
21797W        W26197  12.654   0.892  18.501  0.1076  0.0760 -0.2489
21798W        W26198  26.482   0.696   8.319  0.1892  0.1115  0.2608
21799W        W26199  27.709   6.804  24.152  0.0245 -0.1123  0.1402
21800W        W26200  13.357   2.481   0.774  0.1226  0.0252  0.0609
21801W        W26201  24.660   7.219   8.746  0.0321 -0.0077  0.0761
21802W        W26202   7.126   0.301  24.455 -0.2090 -0.1475  0.1490
21803W        W26203  30.054   1.284  19.491  0.0066  0.0974 -0.1760
21804W        W26204  19.603   3.943  26.052  0.0501 -0.0856  0.0246
21805W        W26205  20.718   3.688  23.357 -0.0408  0.0801  0.1482
21806W        W26206  13.721   2.449   5.740  0.3716  0.0842  0.0903
21807W        W26207  31.165   5.512   4.545  0.1069  0.0391  0.4748
21808W        W26208  17.251   4.673  24.337 -0.0259  0.1750  0.3552
21809W        W26209   0.549   4.654  10.566  0.0414  0.1166 -0.0141
21810W        W26210  28.046   7.302  20.029  0.0925  0.0380 -0.0005
21811W        W26211  18.403   7.493  16.643 -0.1283 -0.0747  0.0955
21812W        W26212  19.786   5.574  23.348  0.0678  0.1068  0.3366
21813W        W26213   6.954   1.724   2.219 -0.0150 -0.3463  0.1212
21814W        W26214  27.038   4.674   5.158  0.2530 -0.0013 -0.0716
21815W        W26215  28.885   5.587   5.448 -0.2019 -0.1106  0.1817
21816W        W26216  23.240   6.571  16.538  0.0140 -0.2255  0.2683
21817W        W26217   0.248   3.909  20.640 -0.0593 -0.2651  0.1081
21818W        W26218   0.938   7.715  19.515  0.0652  0.1327 -0.2554
21819W        W26219   7.249   1.592   9.630  0.0019  0.0320 -0.1000
21820W        W26220  27.715   6.507   0.994 -0.1752 -0.1506 -0.1416
21821W        W26221   4.788   6.253  18.737 -0.0583 -0.0082  0.4343
21822W        W26222   2.587   6.527  10.684  0.3795 -0.5837 -0.1559
21823W        W26223  18.764   1.923  22.272 -0.0243 -0.0101  0.1337
21824W        W26224  26.879   7.434   5.567 -0.2956  0.3316 -0.2621
21825W        W26225  10.138   7.334  25.901 -0.1211  0.3046 -0.2001
21826W        W26226   9.565   3.816  18.774  0.1408  0.0030 -0.0735
21827W        W26227  13.832   4.399   7.834 -0.6088 -0.0820 -0.1189
21828W        W26228   0.086   7.077  15.679 -0.1032 -0.0230 -0.0028
21829W        W26229   6.812   5.792   3.774  0.0885  0.0395  0.1228
21830W        W26230   0.932   2.477   1.017  0.1370  0.0426  0.1289
21831W        W26231  10.138   1.887  10.395 -0.1152  0.1053  0.0053
21832W        W26232  31.127   7.148  20.968 -0.0872 -0.2641 -0.0590
21833W        W26233   4.911   3.296   1.721 -0.0530 -0.0536  0.1015
21834W        W26234   1.297   0.025   4.179 -0.0082  0.0161 -0.2025
21835W        W26235  13.732   6.090   5.561 -0.0544  0.2685  0.0231
21836W        W26236   0.082   6.081   4.580 -0.3414 -0.5662 -0.0771
21837W        W26237  11.523   0.283  20.943  0.0448  0.2226 -0.2046
21838W        W26238  19.782   3.783  17.750 -0.0847 -0.1185  0.1291
21839W        W26239  11.228   6.615  22.557 -0.0842  0.1477  0.0495
21840W        W26240  21.765   4.989   4.011  0.0982  0.1476 -0.3208
21841W        W26241   4.392   3.882   2.009  0.0783 -0.0136 -0.2919
21842W        W26242  28.064   7.181  18.995 -0.1929  0.1800 -0.2961
21843W        W26243  29.994   4.677   3.820  0.1229 -0.1072 -0.1603
21844W        W26244  17.139   4.133   0.466 -0.0526 -0.0796 -0.2831
21845W        W26245   2.013   4.436  19.899  0.0747  0.1379 -0.1146
21846W        W26246  21.517   0.881  17.241  0.0334  0.1671  0.0773
21847W        W26247  27.096   1.901   9.414 -0.1760 -0.1043 -0.0044
21848W        W26248  14.910   4.927  18.341  0.3654 -0.0194  0.0184
21849W        W26249   0.677   4.738  21.058 -0.2185  0.0496 -0.0680
21850W        W26250  28.848   4.400   8.682  0.1530  0.2820 -0.0175
21851W        W26251   1.939   4.280  25.272  0.0365 -0.1988 -0.2743
21852W        W26252   9.854   2.670   6.008 -0.1020 -0.1633 -0.1744
21853W        W26253  22.001   4.020   2.550  0.2109 -0.2258  0.1018
21854W        W26254  17.985   2.089  16.691 -0.1334 -0.0261  0.0463
21855W        W26255  11.003   4.034   8.398 -0.2621 -0.1739 -0.0899
21856W        W26256   5.144   5.280   6.323  0.2308  0.0931 -0.0714
21857W        W26257  30.920   4.267  22.725  0.1385  0.1876 -0.0905
21858W        W26258  29.233   0.135   6.500 -0.1543 -0.1242 -0.1771
21859W        W26259  13.148   0.839   6.914 -0.2396 -0.2173  0.4310
21860W        W26260  30.490   4.258  22.946  0.1119 -0.1320  0.1147
21861W        W26261  23.376   2.936  22.736  0.1586  0.1160 -0.0330
21862W        W26262   5.770   0.828  18.683 -0.0644  0.3610  0.0504
21863W        W26263  16.438   7.570   2.182 -0.3102  0.1255 -0.0947
21864W        W26264  10.716   6.150   8.893  0.0785 -0.0962  0.0859
21865W        W26265  23.963   0.454   8.942  0.1417 -0.1098  0.0510
21866W        W26266  28.124   6.782  17.006 -0.0611  0.1854  0.0114
21867W        W26267  18.299   6.890  22.254  0.1057  0.1314  0.4781
21868W        W26268   7.331   3.081  18.726  0.1623 -0.1147 -0.0095
21869W        W26269  13.211   3.697  25.420 -0.3815 -0.1227  0.0906
21870W        W26270  27.214   7.661  10.357  0.1200 -0.1257 -0.0451
21871W        W26271  24.535   3.966  22.748 -0.0817  0.1452 -0.0369
21872W        W26272   3.254   2.758  11.398  0.0143 -0.0442 -0.2436
21873W        W26273  30.505   1.271  20.212 -0.0759  0.0155  0.0014
21874W        W26274   1.556   3.031   3.447  0.1814  0.2299  0.2948
21875W        W26275  27.613   1.982   3.941 -0.0722 -0.0222 -0.0246
21876W        W26276  11.978   0.846  23.268 -0.0090 -0.0104 -0.0618
21877W        W26277  22.777   0.279   6.780 -0.1494  0.1681  0.0253
21878W        W26278   7.418   7.653   3.329 -0.1728 -0.1270 -0.0398
21879W        W26279  18.598   0.882   0.048  0.3745  0.1145 -0.0420
21880W        W26280  29.650   5.026  15.937 -0.0595 -0.2126 -0.0205
21881W        W26281  29.952   6.041  11.825  0.0528  0.0419  0.0426
21882W        W26282   2.906   5.937  18.983 -0.1382  0.1122 -0.0104
21883W        W26283  12.801   2.694   6.989 -0.1398 -0.1995 -0.1088
21884W        W26284   2.589   3.695   4.607 -0.0090  0.3513  0.4646
21885W        W26285   0.639   3.466  17.637  0.0611 -0.0032  0.0232
21886W        W26286  29.016   3.610  16.454  0.0457 -0.3593 -0.0114
21887W        W26287  29.181   5.210  26.030  0.0478  0.0938 -0.1546
21888W        W26288  18.288   3.277  25.111 -0.2419 -0.0175 -0.1056
21889W        W26289  15.745   0.006   1.833  0.0186 -0.1408  0.2728
21890W        W26290  30.288   2.168   8.151 -0.0201  0.2389  0.1415
21891W        W26291  12.533   3.744  24.550 -0.2252  0.1084  0.1905
21892W        W26292  14.736   7.408   5.994 -0.2208  0.2085 -0.2018
21893W        W26293  12.098   4.724   7.816 -0.2079  0.0389 -0.0008
21894W        W26294  15.203   6.945   8.803  0.1941 -0.1523 -0.2741
21895W        W26295  26.149   4.866  24.409 -0.3881  0.5168  0.0949
21896W        W26296  27.166   0.780  17.776  0.1520 -0.1646 -0.0971
21897W        W26297  12.721   5.001  25.329 -0.1933 -0.0079 -0.2642
21898W        W26298  16.777   1.241   2.779 -0.1471  0.0792  0.1138
21899W        W26299  29.966   0.355  16.195  0.1575  0.2327  0.2140
21900W        W26300  13.539   7.400   3.646  0.0343 -0.1619 -0.1182
21901W        W26301   9.161   3.807  21.493 -0.0588 -0.1406  0.0605
21902W        W26302   9.332   1.099  18.450 -0.0642  0.0590  0.1746
21903W        W26303   3.579   4.190   2.544  0.0834 -0.1473  0.0273
21904W        W26304  14.162   7.225  17.138  0.3232  0.1257  0.1386
21905W        W26305   4.317   1.416   2.014 -0.0775  0.0273  0.2360
21906W        W26306   6.802   7.284   7.434 -0.0160  0.2679 -0.0818
21907W        W26307  24.072   5.154  22.737  0.1708 -0.0795 -0.0657
21908W        W26308  21.442   6.318  15.378 -0.2911  0.2929 -0.1031
21909W        W26309  24.717   3.406   2.691  0.1307 -0.0709 -0.0946
21910W        W26310   3.119   4.364  15.962  0.0018 -0.3440 -0.1056
21911W        W26311  16.639   0.626   2.612  0.2486 -0.0900 -0.4009
21912W        W26312  11.807   6.504   0.794 -0.1847 -0.2060 -0.0147
21913W        W26313   2.213   5.363   4.654 -0.0089  0.0088  0.0220
21914W        W26314  17.386   7.092  20.509  0.0799 -0.0859  0.2330
21915W        W26315  22.881   0.468   8.222  0.1628 -0.0576  0.1499
21916W        W26316   0.460   3.191   0.391 -0.0608 -0.2310 -0.3091
21917W        W26317   1.639   5.336   7.814  0.1468  0.1194 -0.0957
21918W        W26318  30.902   3.408   4.448  0.4018  0.0292  0.1010
21919W        W26319  11.738   4.525   8.690  0.0106 -0.1852  0.3107
21920W        W26320  11.898   4.561   6.967  0.0788 -0.3836 -0.0187
21921W        W26321  30.194   6.202  15.876  0.5016 -0.0487 -0.1222
21922W        W26322  28.998   4.409   8.180 -0.1864  0.0343  0.0032
21923W        W26323  27.291   3.217  15.223 -0.0530 -0.0225 -0.0447
21924W        W26324  13.292   0.565   1.952 -0.1942 -0.0919  0.3537
21925W        W26325   8.591   3.842   7.041  0.2945 -0.0309  0.0166
21926W        W26326   6.886   6.642   4.869  0.1474  0.3751  0.1657
21927W        W26327  30.533   4.185  18.438 -0.0567 -0.1448 -0.1021
21928W        W26328   5.416   1.293  18.748  0.2193  0.1588 -0.0999
21929W        W26329  10.525   2.380   8.233  0.0043  0.0457 -0.1185
21930W        W26330   7.983   4.947  16.980 -0.2340  0.2317 -0.4718
21931W        W26331  14.012   6.794   6.120  0.1506  0.0617 -0.1450
21932W        W26332  19.945   4.685  15.483 -0.2143  0.1738  0.2981
21933W        W26333  30.744   0.065  17.870  0.2267 -0.1256 -0.2219
21934W        W26334   7.973   7.127  19.759  0.2845  0.1646  0.1026
21935W        W26335  30.735   5.530  24.355  0.0043  0.2850  0.1582
21936W        W26336  25.255   0.603  19.493 -0.1183 -0.1934 -0.0526
21937W        W26337   2.311   1.603   5.214 -0.2502  0.1713 -0.2890
21938W        W26338  21.250   2.780  15.417 -0.1085  0.1494 -0.0169
21939W        W26339  18.854   3.845   6.665 -0.2020 -0.2401 -0.1905
21940W        W26340   9.524   6.329  17.037 -0.2522  0.0236 -0.0529
21941W        W26341   1.375   7.236   4.946 -0.4048  0.2003 -0.0160
21942W        W26342  17.817   7.449  26.161  0.0065  0.0382 -0.3916
21943W        W26343   8.338   3.104   4.633  0.4668 -0.1673 -0.1248
21944W        W26344  15.613   2.015  18.036 -0.1685 -0.0164  0.1831
21945W        W26345  16.585   6.849  18.218 -0.0197 -0.0084  0.2285
21946W        W26346  25.221   4.007  26.068 -0.0903  0.2056  0.0804
21947W        W26347  30.611   2.086   3.110 -0.0482 -0.0697  0.0068
21948W        W26348  12.902   2.376   8.019  0.1983  0.1965 -0.0403
21949W        W26349   5.099   3.349   9.788  0.0012  0.1506  0.0198
21950W        W26350  19.773   2.608   7.020 -0.1080  0.0673  0.0616
21951W        W26351  29.086   6.902  10.421  0.1429 -0.1954 -0.3082
21952W        W26352  10.280   0.322   6.827 -0.1465  0.1453 -0.1899
21953W        W26353  19.284   7.189  23.268 -0.3543  0.1806  0.0274
21954W        W26354   5.738   5.056   2.801  0.1803 -0.1874  0.3365
21955W        W26355  13.622   7.040   8.965  0.2189 -0.1943 -0.1420
21956W        W26356  29.255   5.142   4.261  0.1778 -0.1537 -0.3186
21957W        W26357  19.102   4.236   6.271  0.0396  0.0486 -0.2103
21958W        W26358   7.742   3.985   9.686 -0.0466 -0.0505  0.2025
21959W        W26359   6.434   4.547  22.452  0.0432  0.0567  0.2216
21960W        W26360  23.768   0.959  10.600 -0.1273 -0.1896  0.1549
21961W        W26361  14.679   3.913  15.347  0.0734  0.1861  0.0470
21962W        W26362  10.536   3.293  16.235 -0.0122 -0.0971 -0.2077
21963W        W26363  17.817   2.798  18.504 -0.1142 -0.0704  0.1135
21964W        W26364  18.779   0.572  19.711 -0.0631 -0.2292  0.3752
21965W        W26365  30.682   0.243  23.936 -0.4902 -0.1974  0.0899
21966W        W26366   2.571   2.385   8.964 -0.2942  0.0760 -0.3937
21967W        W26367   3.136   2.060   3.054 -0.1811 -0.0956 -0.0735
21968W        W26368   0.721   1.381  17.372  0.4196 -0.1946  0.0560
21969W        W26369  10.616   0.257  20.736 -0.1632 -0.3168  0.1756
21970W        W26370  25.720   4.516  21.633 -0.1756  0.1740 -0.1684
21971W        W26371  23.372   2.883  24.752 -0.1020  0.2497 -0.1710
21972W        W26372  21.325   7.781  16.358  0.1701 -0.3062  0.0176
21973W        W26373  11.419   2.700   0.876 -0.0211 -0.0819  0.4413
21974W        W26374   9.474   2.633  16.870  0.1832 -0.0816 -0.3049
21975W        W26375   6.724   0.856  17.593 -0.0316 -0.1749 -0.3589
21976W        W26376  23.348   3.879   3.872  0.1597 -0.1487  0.4036
21977W        W26377  12.188   3.357  24.273 -0.1058 -0.0636  0.0516
21978W        W26378  18.734   2.685   5.594  0.0553  0.4412  0.0827
21979W        W26379  19.052   5.103   9.693 -0.2937  0.0357  0.1331
21980W        W26380  12.625   0.803  16.157 -0.3470 -0.1146 -0.0787
21981W        W26381  30.789   2.079  11.189 -0.2055  0.0234 -0.0614
21982W        W26382   8.109   1.280  15.648  0.1069 -0.1179 -0.2472
21983W        W26383   1.475   6.324   7.233  0.3394  0.1380 -0.1211
21984W        W26384  18.589   3.896  25.579  0.1939 -0.0856 -0.0978
21985W        W26385  11.557   5.335   5.168  0.1952 -0.2266  0.2485
21986W        W26386  18.571   6.932   4.961  0.2113  0.0720 -0.0690
21987W        W26387  21.053   7.158   2.286  0.3423  0.2025  0.3834
21988W        W26388   8.213   2.600  20.899 -0.0127  0.0834 -0.0451
21989W        W26389   1.260   6.292   4.347  0.0841  0.1891 -0.1767
21990W        W26390  23.817   2.303   6.155 -0.0084 -0.4103 -0.0490
21991W        W26391   9.388   5.131  21.385  0.2318 -0.0014 -0.3286
21992W        W26392  22.973   5.465  17.102 -0.4118  0.0563  0.0301
21993W        W26393  16.962   2.881   5.852  0.0158  0.0619  0.2780
21994W        W26394  14.898   5.675  24.996 -0.0450  0.1250  0.2344
21995W        W26395  12.232   0.648   5.795 -0.2118 -0.1274  0.3662
21996W        W26396   0.583   6.762   6.069 -0.0811 -0.1770  0.0162
21997W        W26397  23.443   6.818  16.106 -0.1573 -0.0148  0.1939
21998W        W26398  16.416   3.034  16.306 -0.2085 -0.0550 -0.1913
21999W        W26399  20.840   2.602  25.072 -0.1097  0.2827 -0.0445
22000W        W26400  16.805   3.005  15.135 -0.0568  0.0238 -0.0817
22001W        W26401  19.539   3.976   0.794  0.3773  0.2618 -0.0151
22002W        W26402   5.885   4.360   9.334  0.1992  0.1103 -0.0854
22003W        W26403  10.589   2.713  19.251 -0.4081  0.0954  0.2023
22004W        W26404  11.454   2.403   0.037  0.1886  0.1803  0.0971
22005W        W26405  22.939   6.815   4.659 -0.0371  0.0090  0.0266
22006W        W26406  19.855   6.674  19.196 -0.1722 -0.1202 -0.0061
22007W        W26407   4.651   3.467  16.801 -0.1161  0.1323  0.1681
22008W        W26408  28.192   1.287  16.304 -0.3916 -0.2701  0.2299
22009W        W26409   5.786   5.645   3.694  0.1303 -0.0280  0.0037
22010W        W26410   3.579   6.646   9.073  0.0333  0.0503  0.0104
22011W        W26411  26.846   3.660  25.195 -0.3872  0.4492  0.1605
22012W        W26412  14.581   1.841  24.571 -0.1233  0.0925 -0.0793
22013W        W26413   5.879   5.439   8.444  0.1395  0.0580 -0.1341
22014W        W26414   6.144   0.114  25.918  0.1507 -0.2980 -0.2743
22015W        W26415   1.614   7.235  18.625 -0.1316  0.2681 -0.0224
22016W        W26416  15.803   5.794   2.292 -0.2149 -0.2666 -0.2563
22017W        W26417  12.819   0.022  20.401 -0.0988  0.3303  0.0563
22018W        W26418   2.055   1.500   7.300  0.2497  0.2404 -0.1431
22019W        W26419  30.556   0.957   9.804  0.3616 -0.2130  0.0860
22020W        W26420   0.871   0.066  10.038  0.0473  0.0075 -0.3545
22021W        W26421   5.111   2.176  25.990  0.0085 -0.5479  0.2991
22022W        W26422  27.120   7.663  18.994 -0.0181 -0.2093 -0.0760
22023W        W26423  10.776   1.788   6.726 -0.0811  0.0410 -0.0416
22024W        W26424  23.777   3.128   7.408 -0.3975 -0.0429  0.0178
22025W        W26425   6.891   3.665  17.226 -0.0993  0.0744 -0.0361
22026W        W26426  12.202   1.530  24.775 -0.1282  0.3824 -0.0837
22027W        W26427  18.569   0.233   2.240 -0.1766 -0.1715  0.0122
22028W        W26428  30.812   4.100  20.212 -0.1547  0.0795 -0.0212
22029W        W26429  22.763   6.248  22.969 -0.1095 -0.1299 -0.1160
22030W        W26430   5.249   6.853   7.318  0.0670  0.2590  0.1593
22031W        W26431  11.926   0.180  22.652 -0.3218 -0.2277 -0.1103
22032W        W26432   9.387   7.506   6.124  0.2218  0.2036 -0.1235
22033W        W26433  22.631   2.049   0.125  0.0473  0.0828 -0.3071
22034W        W26434  29.140   1.868   1.975  0.2081 -0.0874 -0.3643
22035W        W26435   3.640   5.601   1.600  0.0526 -0.3481 -0.2678
22036W        W26436   3.083   4.861  19.479  0.3208  0.1766  0.2475
22037W        W26437  21.248   5.858   1.721 -0.0815  0.3460 -0.1691
22038W        W26438  23.206   3.939  10.815 -0.1142 -0.1150  0.1129
22039W        W26439  27.566   5.770   9.749 -0.2607  0.0184 -0.1018
22040W        W26440   6.526   1.034  22.547  0.0847 -0.0961  0.0337
22041W        W26441   5.326   1.677  23.571 -0.2419 -0.0325 -0.2382
22042W        W26442  27.159   0.736  21.901 -0.3202 -0.0422 -0.1684
22043W        W26443  20.638   2.038   0.700  0.2619  0.0229 -0.0084
22044W        W26444  16.772   5.865  16.366 -0.0168  0.2120  0.0528
22045W        W26445   3.953   1.553   1.629  0.0411 -0.0501  0.2153
22046W        W26446   5.182   3.594  20.613 -0.0639  0.2605  0.0046
22047W        W26447  10.886   4.179  18.941  0.1072  0.2708 -0.0807
22048W        W26448  20.953   3.008  18.529  0.3759 -0.0384  0.0769
22049W        W26449  27.530   4.818   7.632 -0.2917  0.1756 -0.1595
22050W        W26450  28.639   4.397   0.672 -0.0051 -0.5307 -0.1578
22051W        W26451  22.721   7.445   3.248  0.4433 -0.0242 -0.0497
22052W        W26452  16.674   2.893  25.221 -0.0994 -0.0236 -0.2141
22053W        W26453  12.595   0.917   4.288 -0.0476 -0.0512  0.1771
22054W        W26454  28.697   2.965  25.169 -0.0279 -0.1343  0.0702
22055W        W26455   3.499   2.127  23.404  0.0994  0.0696  0.1981
22056W        W26456   9.232   4.516  14.596  0.0944 -0.1714 -0.0774
22057W        W26457  18.943   4.363  16.602  0.0225  0.0282 -0.2139
22058W        W26458   9.618   4.749   6.773  0.3565  0.1915 -0.0918
22059W        W26459   5.238   7.218   6.108  0.1180  0.1819 -0.0218
22060W        W26460   4.605   1.972   0.256  0.0681  0.1775  0.0962
22061W        W26461   2.852   2.892   1.370  0.2002 -0.1946 -0.1122
22062W        W26462  28.580   5.312  18.321 -0.0102 -0.2864 -0.1974
22063W        W26463  12.015   1.731   8.547 -0.1465  0.2881  0.2612
22064W        W26464  27.430   6.660  20.175 -0.2574  0.2625 -0.1017
22065W        W26465  19.305   0.581  22.745  0.0455  0.4762 -0.0054
22066W        W26466  27.466   4.800  10.411  0.0755 -0.2178  0.1773
22067W        W26467  21.392   3.850   9.592 -0.0927 -0.3190  0.0618
22068W        W26468  28.062   4.448   0.040 -0.0682 -0.1378  0.0264
22069W        W26469  23.934   6.698  16.041  0.3403  0.4120 -0.3002
22070W        W26470   9.648   3.837   2.479  0.1138  0.1009  0.1049
22071W        W26471   0.873   4.846  16.882  0.0855 -0.0419 -0.1116
22072W        W26472   7.639   6.628   8.834  0.2562 -0.0317 -0.1880
22073W        W26473  23.483   3.025  23.234  0.0317  0.0039 -0.0186
22074W        W26474   1.929   7.057  10.392  0.1731 -0.2316 -0.0683
22075W        W26475  25.620   5.408  10.727  0.0899 -0.1315 -0.0313
22076W        W26476  31.252   6.187  19.626 -0.0319 -0.1823  0.0397
22077W        W26477  13.102   4.599  16.543  0.2767 -0.0009  0.3878
22078W        W26478  29.737   6.464  11.714 -0.2082  0.1328 -0.1754
22079W        W26479  26.321   2.491   9.107 -0.1530 -0.0015 -0.0617
22080W        W26480  18.792   4.926  18.609 -0.0134  0.0070 -0.1291
22081W        W26481  23.426   2.823  23.699 -0.1136 -0.0802 -0.1714
22082W        W26482   2.268   7.496  16.274  0.3212 -0.0462 -0.2147
22083W        W26483  21.513   1.535   5.952 -0.0509 -0.1962 -0.1987
22084W        W26484  10.698   5.049  23.453  0.2460  0.2609  0.0722
22085W        W26485   3.255   1.483   3.660  0.0044 -0.0726  0.3544
22086W        W26486  20.436   4.559  17.349 -0.0391  0.0663  0.2506
22087W        W26487  14.439   0.982   3.498  0.0020 -0.0198 -0.0009
22088W        W26488  31.040   4.156  19.754  0.1840 -0.0984  0.1449
22089W        W26489   9.955   0.875   8.213  0.2869  0.0769 -0.3381
22090W        W26490  10.249   3.281   9.788 -0.0322  0.0231  0.0776
22091W        W26491  26.451   5.135  19.762 -0.3079 -0.0051  0.0161
22092W        W26492  11.665   1.653   5.977 -0.0404  0.0223 -0.1632
22093W        W26493  15.440   5.498  23.776  0.3364 -0.0582  0.1317
22094W        W26494   1.744   3.909  23.753  0.1496  0.2103 -0.1237
22095W        W26495  10.987   0.070  19.872  0.0112 -0.1689  0.1386
22096W        W26496  21.931   5.315   2.774 -0.1708  0.1250 -0.0293
22097W        W26497   2.131   6.523   1.675 -0.0535 -0.2260  0.0678
22098W        W26498  18.204   4.619  19.906  0.1006  0.1220 -0.1424
22099W        W26499  14.025   5.418  19.519 -0.1803 -0.1780  0.0962
22100W        W26500   0.203   1.232  23.373 -0.3679 -0.0496  0.0213
22101W        W26501  16.021   1.526  25.264  0.0684  0.0073 -0.2159
22102W        W26502  18.798   4.534   0.087  0.2164  0.3228  0.2048
22103W        W26503  12.409   1.258   4.598 -0.0296  0.0237 -0.0028
22104W        W26504  22.038   3.441  16.161  0.1750  0.0537  0.2024
22105W        W26505  29.338   0.625   1.937  0.4417  0.0669  0.0290
22106W        W26506   4.916   3.207  10.518  0.0469 -0.0934  0.0561
22107W        W26507  25.264   5.112   2.262  0.3686 -0.4000 -0.2941
22108W        W26508  11.642   5.627  15.391  0.0016  0.1592  0.1594
22109W        W26509   4.450   1.802   8.135  0.0515  0.0024  0.2861
22110W        W26510   0.636   7.335  21.585 -0.0772  0.2129 -0.0155
22111W        W26511  17.739   5.176  18.474 -0.0739  0.0596  0.2130
22112W        W26512   4.343   4.052   3.022  0.0255  0.0837  0.0382
22113W        W26513  12.875   6.109  19.706  0.3398  0.3514 -0.3614
22114W        W26514   4.948   3.177   0.488 -0.2932  0.1823  0.3068
22115W        W26515  19.399   0.246   4.025  0.0097  0.0797  0.3091
22116W        W26516  24.531   4.214   2.978  0.0293 -0.1199 -0.1420
22117W        W26517   1.393   6.021  23.576 -0.0630  0.2229  0.1698
22118W        W26518  17.275   4.361  16.426  0.3240  0.0216  0.0700
22119W        W26519  26.484   1.394  10.819 -0.2262  0.0240  0.0021
22120W        W26520  20.413   4.136  19.043 -0.3252 -0.2840  0.1317
22121W        W26521  30.803   5.142  18.699 -0.0862 -0.1114 -0.0523
22122W        W26522  26.047   3.940  10.476  0.1548  0.3250  0.1126
22123W        W26523  29.040   1.956   2.947 -0.1891  0.0814 -0.2907
22124W        W26524  27.570   7.346  15.299 -0.0864 -0.1119 -0.0983
22125W        W26525   1.309   0.214  21.817 -0.0154 -0.2688  0.1141
22126W        W26526  23.390   5.641   7.981  0.1211 -0.0630 -0.1697
22127W        W26527  29.437   5.641  26.049  0.0287 -0.2716 -0.1364
22128W        W26528  27.248   0.638  18.317 -0.0021  0.1091  0.2640
22129W        W26529  21.960   6.435  22.666 -0.1667  0.1072 -0.0247
22130W        W26530   6.785   7.619   1.056  0.0057  0.3027 -0.3807
22131W        W26531   0.321   6.856  18.540 -0.0402  0.1319 -0.3169
22132W        W26532   7.988   6.577  24.802  0.1152  0.0136  0.2420
22133W        W26533  10.441   5.525  22.233  0.2756  0.0946  0.0302
22134W        W26534   0.673   4.964  16.461  0.1928 -0.1327  0.1200
22135W        W26535  20.082   1.176  17.416 -0.2056 -0.1899 -0.1361
22136W        W26536  25.278   5.873   3.183 -0.1318  0.0334 -0.0642
22137W        W26537   4.976   2.346   6.061  0.2193  0.1581 -0.0719
22138W        W26538  21.317   4.148  16.642  0.1170  0.2831  0.1810
22139W        W26539   7.665   4.498   1.859 -0.1873  0.2541 -0.1858
22140W        W26540  20.405   5.515  20.367 -0.1638  0.0109  0.0891
22141W        W26541  11.806   2.167   1.371  0.0734 -0.2607 -0.0023
22142W        W26542   0.628   1.887  18.528 -0.1597  0.0539  0.1264
22143W        W26543  15.715   3.913  17.127 -0.0896  0.1888 -0.2441
22144W        W26544  25.220   2.895   4.569  0.0574 -0.3250 -0.2629
22145W        W26545   2.106   1.375  10.858 -0.2299 -0.1860 -0.2405
22146W        W26546  18.306   1.778   7.678  0.1649  0.0299 -0.3497
22147W        W26547   4.332   4.183  22.047 -0.3434  0.0285  0.0227
22148W        W26548   6.176   2.176  23.806  0.0942  0.0668  0.0305
22149W        W26549  17.453   5.541   2.760 -0.2221 -0.1690  0.2083
22150W        W26550  18.733   2.761   8.451  0.1223 -0.1999  0.1439
22151W        W26551  27.340   7.089  18.901 -0.2933  0.0195  0.2987
22152W        W26552  17.052   3.179   0.470 -0.1504  0.1805 -0.0637
22153W        W26553   2.613   0.929   1.627  0.2216 -0.1638  0.0324
22154W        W26554   1.698   6.682   2.595 -0.1111 -0.2372 -0.0567
22155W        W26555   0.780   1.398  10.796 -0.1377  0.1649  0.1168
22156W        W26556  15.730   5.281  20.320 -0.1171 -0.0863 -0.0519
22157W        W26557  31.139   0.381   3.147 -0.1195 -0.1499 -0.3243
22158W        W26558  22.342   7.386   9.942 -0.1364  0.1471 -0.2554
22159W        W26559  17.376   2.974  15.787  0.0727  0.0174  0.1243
22160W        W26560   0.358   0.955   8.045 -0.0824  0.0278  0.2516
22161W        W26561  22.243   1.723  19.310 -0.0457 -0.2380 -0.1601
22162W        W26562  20.078   7.418   6.438  0.0106  0.2464 -0.0948
22163W        W26563   4.479   0.169   6.796 -0.1404  0.1175  0.4181
22164W        W26564  23.653   2.979  22.120 -0.0321  0.1942 -0.1573
22165W        W26565  16.559   5.870  24.958 -0.0703 -0.0374  0.1247
22166W        W26566  13.837   6.901  10.662  0.2065 -0.1558 -0.0176
22167W        W26567  13.432   1.669  16.774  0.1644 -0.0044 -0.0251
22168W        W26568  14.989   3.668  18.350  0.3538  0.1453 -0.2720
22169W        W26569  26.818   5.206   1.238  0.0990  0.0240  0.0787
22170W        W26570  12.246   1.654   4.253  0.0569  0.0242  0.0157
22171W        W26571   1.979   2.213   7.258 -0.2246  0.0833  0.4751
22172W        W26572  27.482   2.199  17.721  0.0509 -0.2640  0.1628
22173W        W26573   5.517   4.760  18.729 -0.0226 -0.2644 -0.3734
22174W        W26574  30.507   1.101  22.320  0.0373  0.2050  0.1640
22175W        W26575  21.622   2.456   4.695 -0.1299  0.4287  0.2717
22176W        W26576   3.700   3.423   4.395  0.0349  0.1089 -0.0981
22177W        W26577  20.892   4.245   8.355  0.1084  0.0779 -0.1872
22178W        W26578  15.047   6.454  21.150 -0.0193 -0.1307 -0.0602
22179W        W26579   3.544   1.598   8.367 -0.2982  0.3560  0.0005
22180W        W26580  25.548   5.340  21.175 -0.0520  0.0409 -0.1606
22181W        W26581  24.186   5.241   4.992  0.2899  0.0064  0.0467
22182W        W26582   8.438   5.747   9.301 -0.0622  0.1074 -0.0741
22183W        W26583  17.059   5.186   0.079 -0.0156 -0.0080  0.0614
22184W        W26584  15.249   1.979  18.721 -0.0901  0.0126  0.0025
22185W        W26585   3.985   3.483  24.608 -0.0825  0.0284  0.2069
22186W        W26586  25.291   0.484   6.004 -0.1223 -0.0945 -0.2898
22187W        W26587   2.571   5.682  17.364 -0.0989  0.1778 -0.2958
22188W        W26588  17.215   6.120  16.407  0.4877  0.2098 -0.1444
22189W        W26589   7.089   4.765  11.052  0.3968 -0.1650  0.2048
22190W        W26590  14.925   0.689   8.940 -0.0253  0.0511  0.0705
22191W        W26591  13.310   4.943   8.990 -0.0858 -0.0486 -0.1942
22192W        W26592  16.341   5.177  16.901 -0.0942  0.3400 -0.0900
22193W        W26593   7.473   4.187  19.690 -0.1114 -0.0156 -0.2397
22194W        W26594  29.057   5.756   3.395 -0.0242  0.0176  0.1708
22195W        W26595  12.358   0.891  25.180  0.1196  0.0892 -0.2608
22196W        W26596  13.196   2.346   1.235 -0.2166 -0.1341  0.0113
22197W        W26597   2.613   2.418  19.266  0.4052 -0.2149  0.0614
22198W        W26598  15.906   0.919  18.400  0.1229  0.0348 -0.0384
22199W        W26599  28.144   5.129   2.421 -0.2256  0.0482  0.3090
22200W        W26600  24.706   4.004  16.733 -0.0475  0.0570  0.1471
22201W        W26601  12.123   3.346   3.284  0.1037  0.0480  0.2693
22202W        W26602   1.755   7.546   1.469 -0.2288  0.0200  0.3354
22203W        W26603  10.255   4.844   0.970  0.1715  0.1259 -0.0530
22204W        W26604  17.324   1.256  20.185 -0.2110 -0.2656 -0.0487
22205W        W26605  23.316   2.993  19.867 -0.1363  0.1957 -0.4650
22206W        W26606   2.390   2.063  19.020 -0.0132 -0.4441  0.2907
22207W        W26607   0.532   1.772  21.360  0.0099  0.0193  0.3160
22208W        W26608  15.096   5.064  21.627 -0.1199 -0.1761  0.2852
22209W        W26609  11.129   6.234  18.032  0.0604  0.1157  0.0586
22210W        W26610  23.554   0.150  17.892  0.2660  0.1390  0.1540
22211W        W26611  19.756   3.606   1.074 -0.0066 -0.1482 -0.0022
22212W        W26612  20.805   1.554   9.832  0.0275  0.2741 -0.0497
22213W        W26613  18.039   2.999  22.046  0.2915  0.0650  0.1090
22214W        W26614  14.072   5.014   8.426  0.1828  0.2314 -0.1896
22215W        W26615   8.014   1.114   0.919  0.1645  0.2022  0.2434
22216W        W26616  14.106   2.865   8.740  0.1319  0.0218  0.0076
22217W        W26617  25.310   3.413  24.484  0.1311 -0.0870 -0.2854
22218W        W26618   8.140   6.005  24.722 -0.1285  0.0027 -0.0929
22219W        W26619  27.499   2.613   2.443  0.0248 -0.1079 -0.3599
22220W        W26620  16.636   7.774  17.572  0.0751 -0.0231 -0.1426
22221W        W26621  24.455   0.617  20.925 -0.0274 -0.3811 -0.5281
22222W        W26622  23.977   5.492   1.078  0.1669 -0.2234  0.2286
22223W        W26623   8.828   3.222  25.002 -0.2604  0.1078  0.1652
22224W        W26624  16.894   1.978  22.503 -0.0095  0.4129  0.1353
22225W        W26625   1.365   6.738   4.715 -0.0319  0.4096 -0.3902
22226W        W26626   9.148   2.778  15.878  0.1498 -0.2531 -0.2159
22227W        W26627  22.882   6.867  18.131 -0.0245  0.0612 -0.0379
22228W        W26628   3.723   2.152   7.572 -0.0413  0.0182  0.0094
22229W        W26629  17.985   3.631  19.943 -0.0534  0.3987 -0.1262
22230W        W26630  15.892   5.998   0.684 -0.0179  0.0795  0.0250
22231W        W26631   3.972   5.228  10.401 -0.1102 -0.0563  0.0680
22232W        W26632  25.355   4.281   4.503  0.1712  0.3008 -0.3091
22233W        W26633   6.476   2.844  24.305 -0.1609 -0.2696  0.2897
22234W        W26634   0.893   7.420  16.314 -0.1953 -0.1684 -0.4021
22235W        W26635  16.930   2.143  15.224 -0.1516  0.0625  0.0062
22236W        W26636  30.950   6.377  20.490  0.3826  0.0224  0.1819
22237W        W26637  27.410   4.956  19.499 -0.0543 -0.3543  0.0190
22238W        W26638  27.433   0.435  18.964  0.0744  0.1184  0.0708
22239W        W26639  11.302   5.383   6.718 -0.0225 -0.1938  0.1032
22240W        W26640  29.395   2.770   5.118  0.2703 -0.0742  0.1568
22241W        W26641  14.012   1.472   6.385 -0.2116 -0.0354  0.1266
22242W        W26642  30.120   4.658   3.317 -0.0655  0.0699  0.0976
22243W        W26643  27.291   5.782  21.918 -0.0249 -0.1565 -0.0816
22244W        W26644   8.392   3.651  19.272 -0.0034  0.1714  0.0648
22245W        W26645  25.080   1.713  15.484  0.2408 -0.1825 -0.3444
22246W        W26646  20.016   3.880   0.633  0.0974 -0.2814  0.0666
22247W        W26647  15.443   6.085   1.439 -0.4299 -0.1493  0.2350
22248W        W26648  12.298   7.787   0.177 -0.0401 -0.0740 -0.2652
22249W        W26649  19.084   2.429   2.791 -0.1718  0.0498  0.2378
22250W        W26650   1.126   7.207  25.880  0.1089  0.2549  0.1132
22251W        W26651  28.134   6.483   3.789 -0.0480  0.1569 -0.0213
22252W        W26652  12.763   4.796   6.247  0.1818 -0.2778 -0.2176
22253W        W26653  20.059   5.569  16.064  0.1757  0.1097 -0.2335
22254W        W26654  28.497   2.085  23.187  0.2111 -0.0021 -0.1353
22255W        W26655   0.798   2.861   2.932  0.0761 -0.2143  0.0142
22256W        W26656  19.313   0.290  20.948  0.2056  0.0615  0.1271
22257W        W26657   0.866   4.441  10.099  0.0321 -0.0395  0.1041
22258W        W26658  10.103   4.175   7.160 -0.1592  0.1319 -0.2439
22259W        W26659  11.293   2.543   9.382  0.0063  0.2249 -0.0152
22260W        W26660  27.924   3.702  19.639  0.0093  0.3026  0.0692
22261W        W26661  19.088   1.634   6.930  0.1211  0.2445  0.0050
22262W        W26662  27.794   1.310   3.741 -0.2616  0.1017  0.0589
22263W        W26663  18.940   1.893  20.542  0.1048 -0.0860 -0.2688
22264W        W26664  18.099   0.812   9.667  0.0673  0.0918  0.1245
22265W        W26665  14.652   0.900  19.445 -0.2375 -0.0676 -0.0141
22266W        W26666  11.779   6.808   8.146  0.2123  0.5107 -0.1899
22267W        W26667   1.699   7.044   9.834  0.2066  0.3273 -0.3111
22268W        W26668  10.101   1.637  16.313 -0.0950 -0.0194  0.0850
22269W        W26669   9.955   0.410   7.789 -0.0655 -0.0363  0.3124
22270W        W26670  23.174   5.213  20.445  0.0403 -0.1260  0.0408
22271W        W26671  12.869   1.242   5.662 -0.0731 -0.0528 -0.1544
22272W        W26672  28.660   5.550   3.730 -0.1403  0.4608  0.1740
22273W        W26673  22.581   2.194   2.069  0.1935  0.0863 -0.3414
22274W        W26674  12.021   3.512   5.201  0.0832 -0.0247  0.1251
22275W        W26675   7.061   2.713   1.118  0.3229 -0.0049 -0.0081
22276W        W26676   9.832   5.173   0.437 -0.0607  0.0469 -0.0652
22277W        W26677  11.738   5.277   2.757  0.1567  0.0155  0.1806
22278W        W26678  30.463   0.139   0.271  0.1564 -0.2166  0.1902
22279W        W26679   7.347   5.490  16.402  0.1193 -0.0434  0.1037
22280W        W26680  22.284   1.765   6.118  0.1141 -0.0419  0.2073
22281W        W26681  30.863   2.145   2.339 -0.2319  0.0246  0.2159
22282W        W26682  20.899   4.022   4.061  0.0923  0.1604  0.0050
22283W        W26683  31.039   0.052  21.603  0.0248 -0.1767  0.0369
22284W        W26684   6.441   0.885   0.472 -0.3048 -0.1717 -0.0574
22285W        W26685  18.542   3.261  21.023 -0.0842 -0.3138  0.0263
22286W        W26686  30.584   2.149  16.512  0.1987 -0.2945 -0.2176
22287W        W26687  18.222   6.275  20.562  0.0255  0.1364  0.0470
22288W        W26688  27.101   1.480   3.689  0.0607 -0.1258 -0.1173
22289W        W26689   5.893   3.334   2.781  0.0364  0.0900 -0.1050
22290W        W26690  13.908   4.105   0.152  0.0835 -0.1127 -0.3882
22291W        W26691  21.344   2.366   5.219  0.3240  0.0374 -0.0584
22292W        W26692  30.706   5.837   0.387  0.0187  0.0712  0.1112
22293W        W26693   0.366   2.253  24.418 -0.1705 -0.0375  0.2087
22294W        W26694  15.978   5.989   8.451  0.3458 -0.1332 -0.2076
22295W        W26695  21.790   2.276   5.537  0.4839  0.0483 -0.1451
22296W        W26696  24.453   1.465  16.857  0.0727  0.1299 -0.0144
22297W        W26697  15.427   1.295   2.154 -0.0569  0.0147 -0.1030
22298W        W26698  24.078   7.289   5.210  0.0408 -0.0730  0.1021
22299W        W26699   1.253   0.990   4.773 -0.0866 -0.0528  0.0573
22300W        W26700  28.089   5.188   2.934 -0.0013  0.2152  0.1247
22301W        W26701  11.486   6.602  17.344 -0.1562 -0.0653  0.2361
22302W        W26702  16.889   4.912  14.455  0.0543 -0.0081 -0.0364
22303W        W26703  24.792   0.898  18.517  0.1308 -0.1528  0.0474
22304W        W26704   8.480   1.458   2.555  0.0413  0.0639 -0.0731
22305W        W26705  26.815   5.078  17.837  0.3204  0.1127  0.2726
22306W        W26706  28.249   0.599  11.227 -0.1431 -0.3190  0.0454
22307W        W26707   6.809   7.117  21.919 -0.1865  0.1600 -0.1198
22308W        W26708  15.979   4.447  24.301  0.2801 -0.0271  0.3612
22309W        W26709   5.950   2.417  25.528  0.0451  0.1352  0.2316
22310W        W26710   5.390   6.100   3.078 -0.1527  0.0048 -0.2541
22311W        W26711  19.699   4.486  25.354  0.0264  0.1057  0.2527
22312W        W26712  12.211   4.074  22.900 -0.1468 -0.0606  0.0449
22313W        W26713   2.477   6.176  21.040  0.1082  0.0825 -0.2883
22314W        W26714   7.828   3.063  19.232 -0.1364 -0.0732 -0.1277
22315W        W26715  26.153   4.907  15.309 -0.0938 -0.1586  0.1571
22316W        W26716   8.754   2.498   3.118 -0.3113  0.2194  0.1280
22317W        W26717  31.114   3.553  19.838 -0.1233 -0.1333 -0.1484
22318W        W26718  19.692   5.878   2.430 -0.0348  0.0846  0.1357
22319W        W26719  20.650   2.212  24.168 -0.1630  0.0777 -0.1129
22320W        W26720  18.221   1.929   0.650 -0.0012 -0.0095 -0.1944
22321W        W26721   3.223   6.015  24.329  0.2532  0.2061  0.0810
22322W        W26722  30.154   7.022   9.631 -0.0095  0.0877  0.1025
22323W        W26723   8.086   0.788  16.391 -0.1519  0.1339 -0.1941
22324W        W26724  20.547   6.255   9.179 -0.4639 -0.1593 -0.0725
22325W        W26725  21.007   1.177   3.125  0.2014  0.0810 -0.0278
22326W        W26726  15.328   2.919  25.078 -0.0324  0.0658  0.3098
22327W        W26727  26.960   7.133  21.642 -0.2328 -0.2425 -0.3031
22328W        W26728  13.251   3.766  20.837  0.2064  0.0481  0.0370
22329W        W26729   2.711   4.623   7.362 -0.0608 -0.0539 -0.1972
22330W        W26730  13.382   1.039  25.003  0.3362 -0.0283 -0.0560
22331W        W26731  15.930   0.598   3.536 -0.0050 -0.0284  0.3740
22332W        W26732   8.895   7.255   6.128 -0.0862  0.1204  0.2651
22333W        W26733  23.294   2.908  26.133  0.0988  0.1946  0.0426
22334W        W26734  30.220   0.058   6.619  0.1877 -0.2014 -0.2636
22335W        W26735  23.355   1.788   0.904 -0.0391 -0.0574  0.1351
22336W        W26736  29.580   3.666  24.396  0.2872  0.1802  0.0303
22337W        W26737  28.260   5.959  24.636 -0.1918  0.1202  0.2957
22338W        W26738  10.199   7.134   8.615 -0.0474 -0.1558 -0.0280
22339W        W26739  16.275   6.539   8.815  0.0013 -0.0208  0.0692
22340W        W26740  15.525   1.640   0.813 -0.2020  0.0927 -0.1097
22341W        W26741  30.533   5.076  21.684  0.0930  0.0518 -0.3463
22342W        W26742  27.874   0.888   3.535  0.2805 -0.1111 -0.0528
22343W        W26743   0.273   5.503  23.160 -0.1280 -0.4077 -0.2510
22344W        W26744  21.255   5.556   7.224 -0.1613  0.3051  0.2864
22345W        W26745  21.262   5.929   5.910 -0.0723 -0.0730 -0.0192
22346W        W26746   0.574   7.686  18.181  0.1361  0.1960 -0.1154
22347W        W26747   7.537   2.977   9.930 -0.4509 -0.2111  0.4209
22348W        W26748   6.979   5.783  18.333 -0.1234  0.0949  0.1796
22349W        W26749  12.570   4.950  17.171  0.0516  0.0754  0.2469
22350W        W26750  17.115   7.593   0.072 -0.0285  0.0064 -0.1603
22351W        W26751  29.064   3.163  17.208 -0.0182 -0.0082  0.1220
22352W        W26752  22.711   3.422  22.196 -0.2429  0.0722 -0.0888
22353W        W26753   6.106   3.855   9.706  0.0063 -0.0644 -0.1516
22354W        W26754  21.827   6.461   6.751 -0.0704  0.2290  0.0588
22355W        W26755  11.045   0.575  18.247 -0.0567  0.2704  0.0382
22356W        W26756   1.636   4.570   1.094  0.2511  0.2888 -0.2070
22357W        W26757  10.358   4.536  22.923  0.1032  0.0937 -0.2426
22358W        W26758  25.984   5.050   7.248 -0.1747  0.0212 -0.2671
22359W        W26759  12.243   6.995   8.550 -0.0266 -0.1483  0.1707
22360W        W26760  14.229   2.967   3.937  0.1555  0.0586  0.0573
22361W        W26761   1.033   3.748   2.304  0.2586  0.0556 -0.0331
22362W        W26762   0.858   6.039  23.452 -0.1785  0.0380 -0.1246
22363W        W26763  14.987   1.989  15.178 -0.0312  0.0684 -0.2172
22364W        W26764  28.196   0.098  16.580 -0.0314 -0.1121 -0.3154
22365W        W26765   1.482   4.585   1.589 -0.1726  0.1745  0.2955
22366W        W26766  14.903   6.747  18.609  0.1300  0.0404  0.2188
22367W        W26767  10.159   7.660  14.808 -0.1934 -0.1846  0.0827
22368W        W26768  20.273   3.426  10.369  0.0927 -0.0276 -0.0490
22369W        W26769  26.619   5.065   0.771 -0.2889  0.1156  0.0188
22370W        W26770  29.986   3.468   4.454  0.1571  0.1251 -0.0122
22371W        W26771  25.841   2.170  17.155 -0.0133  0.0501 -0.0592
22372W        W26772   1.332   5.441  17.906 -0.1938  0.3205 -0.0921
22373W        W26773  19.514   7.233  21.817  0.1984  0.2050 -0.1673
22374W        W26774  11.253   5.191   1.109  0.2330 -0.0726  0.0729
22375W        W26775  19.404   6.806   9.684  0.0904 -0.3465  0.3560
22376W        W26776  18.146   6.185  23.688 -0.3534  0.0816 -0.0887
22377W        W26777   1.984   4.950  26.004 -0.0941 -0.0058 -0.0880
22378W        W26778  15.741   2.644  22.316  0.1299 -0.2393 -0.1073
22379W        W26779  27.562   3.127  25.617 -0.0969 -0.0023 -0.0127
22380W        W26780  10.605   7.706  22.559  0.0583 -0.0525 -0.0210
22381W        W26781  16.977   7.377  22.267 -0.0125 -0.3077 -0.0423
22382W        W26782   9.240   2.250  26.127  0.0920  0.2924 -0.3805
22383W        W26783  10.938   4.617  24.232  0.2448  0.0615  0.1603
22384W        W26784  30.799   3.770  22.352 -0.2752 -0.1289 -0.0010
22385W        W26785  10.855   2.102  22.518  0.0405 -0.0083  0.0683
22386W        W26786   6.797   0.256  25.627 -0.0394  0.0755  0.1233
22387W        W26787   8.303   4.674   2.697  0.1056  0.0363  0.1128
22388W        W26788   1.624   0.748   9.837  0.1887  0.2148 -0.2684
22389W        W26789  22.236   0.219  15.853 -0.4277 -0.3431 -0.2194
22390W        W26790  21.744   0.888   2.839  0.0898  0.0973  0.2053
22391W        W26791  16.813   0.090   7.992 -0.3585 -0.0134 -0.0361
22392W        W26792  15.322   2.964   5.479 -0.0698  0.0372 -0.3559
22393W        W26793   5.954   6.240  25.564 -0.1213 -0.3766 -0.0544
22394W        W26794  24.116   1.913   0.191  0.1201  0.1179  0.1652
22395W        W26795  16.438   3.150   3.650 -0.0550 -0.1070  0.1527
22396W        W26796  20.499   7.187  25.526 -0.5636 -0.4377  0.0627
22397W        W26797  18.633   1.889  19.586  0.1169  0.4812 -0.0089
22398W        W26798  16.172   5.921   7.559  0.4380  0.1791  0.0590
22399W        W26799  22.376   6.835  20.468 -0.3722 -0.0682  0.0763
22400W        W26800  16.463   7.748   0.774  0.0635 -0.0614 -0.2477
22401W        W26801  25.693   7.256   0.341 -0.0161  0.1739 -0.2436
22402W        W26802  29.809   4.203  20.031  0.2499  0.3117 -0.0795
22403W        W26803  19.449   7.396  15.308  0.1108  0.1611  0.2132
22404W        W26804   0.707   1.531   1.518 -0.1442  0.0267 -0.1368
22405W        W26805  25.020   4.757   8.282 -0.1194  0.0397 -0.2051
22406W        W26806   1.980   0.908   6.792  0.0165 -0.1913 -0.3095
22407W        W26807   1.412   6.419   5.259  0.0605 -0.2105 -0.3160
22408W        W26808   4.214   4.791   8.434  0.2146 -0.0368  0.0453
22409W        W26809  30.658   1.988  25.169  0.1806 -0.1674  0.1892
22410W        W26810  21.182   3.922  24.805 -0.1139 -0.0775  0.0909
22411W        W26811  19.637   3.560  25.723  0.0474 -0.0407  0.1589
22412W        W26812  13.558   6.345   1.349  0.4198 -0.0132 -0.0737
22413W        W26813  23.547   4.335   7.144  0.2226 -0.0752  0.1813
22414W        W26814  17.350   1.505   4.563  0.0398  0.0176 -0.0653
22415W        W26815  17.270   6.514  23.772 -0.3172  0.1090 -0.0657
22416W        W26816  20.891   7.538   6.543 -0.2604  0.0564 -0.0341
22417W        W26817   1.407   7.399   4.474  0.0974 -0.3509 -0.0780
22418W        W26818   8.870   3.038  20.603 -0.2791 -0.1743 -0.0999
22419W        W26819   3.125   4.053   1.006  0.3000 -0.2618  0.0709
22420W        W26820  11.904   2.932  25.270 -0.1538  0.1615 -0.0904
22421W        W26821   5.181   6.571  17.125  0.1186  0.1007 -0.0647
22422W        W26822  19.101   4.181   8.754 -0.4035 -0.0598 -0.2116
22423W        W26823  27.908   2.562   3.751 -0.1724  0.1874 -0.2796
22424W        W26824  14.243   0.169   3.298 -0.2092 -0.0009  0.3290
22425W        W26825   3.877   2.373   5.197  0.0563  0.0211  0.0944
22426W        W26826  24.411   5.316   1.983  0.1800  0.1749  0.0222
22427W        W26827   3.103   5.591   8.851 -0.0848  0.2702  0.1318
22428W        W26828  19.968   0.154  22.001  0.1933  0.1338 -0.2028
22429W        W26829   1.852   6.632   6.566  0.0084 -0.0324  0.2048
22430W        W26830  21.167   6.690   1.064  0.0134 -0.1990  0.3012
22431W        W26831  11.729   4.600  26.016  0.1519 -0.1147  0.0550
22432W        W26832  17.624   5.584  10.679  0.3107 -0.1552  0.0491
22433W        W26833  20.745   5.922   4.801 -0.1845 -0.2996  0.0218
22434W        W26834  11.556   4.093   2.540 -0.0514 -0.1701 -0.0941
22435W        W26835   5.571   5.370   6.050 -0.1064  0.1163 -0.3384
22436W        W26836  15.524   1.298  22.519 -0.1557  0.0881 -0.0676
22437W        W26837  28.224   6.177   6.371  0.1040  0.1731  0.0621
22438W        W26838  23.832   4.858  23.211 -0.1427 -0.0502  0.0579
22439W        W26839  24.363   2.845  20.628  0.1319 -0.4447 -0.0112
22440W        W26840   8.598   3.018   0.402 -0.0280 -0.3080  0.1007
22441W        W26841   6.818   3.693  16.498  0.1696  0.3178  0.0407
22442W        W26842  26.074   2.629  16.553  0.1499 -0.3476  0.0893
22443W        W26843  24.776   2.827   6.431 -0.1256 -0.0229  0.1016
22444W        W26844  29.815   3.869  19.270 -0.1185 -0.1928  0.1027
22445W        W26845  19.383   3.261   6.512  0.0203 -0.2404 -0.0700
22446W        W26846  17.450   4.872   7.540 -0.2654  0.0069 -0.0312
22447W        W26847  26.999   2.610   5.475 -0.2256  0.0303 -0.2259
22448W        W26848  12.551   7.779  18.459 -0.2714 -0.1770  0.1924
22449W        W26849  10.436   0.997  15.551 -0.2776  0.1484 -0.0742
22450W        W26850   3.153   5.831   2.471  0.0759 -0.0725  0.0620
22451W        W26851   1.013   7.513   1.720  0.2250  0.1498 -0.1224
22452W        W26852  14.181   6.436   7.468 -0.0290  0.1649  0.1578
22453W        W26853  14.243   5.553   3.093 -0.0127  0.1710 -0.0928
22454W        W26854   9.590   0.981  15.662 -0.0125  0.1507  0.3509
22455W        W26855  22.048   7.412  19.825  0.0063  0.0832 -0.0118
22456W        W26856   3.391   4.350  17.790  0.0972  0.2108 -0.0403
22457W        W26857  11.658   6.378  15.517 -0.0292  0.0306  0.0538
22458W        W26858  19.566   1.765  22.723 -0.1260  0.0701 -0.0596
22459W        W26859  23.953   6.471  25.347  0.2538  0.2155 -0.0590
22460W        W26860  25.743   1.979   1.739 -0.1913  0.2036  0.2145
22461W        W26861   9.152   4.808  21.065  0.0176 -0.0713 -0.1491
22462W        W26862   9.979   6.089   2.808 -0.2902 -0.1123 -0.3078
22463W        W26863  17.776   3.801  15.567 -0.1784  0.1670 -0.2891
22464W        W26864   5.924   6.420  18.514 -0.0779 -0.1537  0.1358
22465W        W26865  12.959   2.856   7.925 -0.0419 -0.3007 -0.1052
22466W        W26866  28.742   7.537  21.232  0.1821  0.1356  0.5000
22467W        W26867  26.556   5.440  23.033 -0.0490 -0.1662  0.0535
22468W        W26868   6.299   1.673   3.476 -0.3437  0.4971  0.4013
22469W        W26869  24.852   0.721  10.657 -0.0458  0.1153  0.1444
22470W        W26870  19.551   6.423   2.531  0.0772 -0.1156 -0.2681
22471W        W26871   2.914   5.250   9.686 -0.1940 -0.2546  0.0324
22472W        W26872   5.783   6.434  20.595 -0.0938  0.2945 -0.2578
22473W        W26873  15.167   2.270  15.886 -0.1413 -0.1296  0.0286
22474W        W26874  22.611   2.360   0.990 -0.0226  0.0480 -0.3334
22475W        W26875  31.034   3.764  24.579 -0.1223  0.1822  0.0702
22476W        W26876  20.061   4.521   1.372  0.0415  0.3542 -0.2022
22477W        W26877   5.318   7.807   7.303 -0.2865  0.2075  0.2242
22478W        W26878  25.937   6.341  19.338 -0.1381 -0.0676  0.2460
22479W        W26879   0.139   1.771  18.762 -0.0621  0.3419 -0.1370
22480W        W26880  22.580   2.940  17.748  0.3385  0.2646 -0.0817
22481W        W26881  16.480   3.077   4.178 -0.0910 -0.0919 -0.1594
22482W        W26882   3.158   3.546   0.050 -0.3122  0.0465 -0.0308
22483W        W26883  28.210   4.069   0.405 -0.1553  0.2347  0.0645
22484W        W26884  22.507   7.174  22.110  0.1203  0.2075 -0.1410
22485W        W26885  27.893   5.409  20.972 -0.1939 -0.2242  0.0828
22486W        W26886  26.468   3.112  15.751  0.0753  0.1247  0.0841
22487W        W26887  30.675   3.667  17.329 -0.0172 -0.2447  0.2468
22488W        W26888   6.943   7.314  25.876  0.1227 -0.2136  0.0154
22489W        W26889  27.926   4.896  16.547 -0.0296 -0.0899  0.1559
22490W        W26890  29.180   5.313   6.273 -0.0087  0.2030  0.0280
22491W        W26891  18.393   3.335   0.178 -0.0359 -0.0460 -0.2684
22492W        W26892  13.215   6.781   8.240  0.1730  0.0359  0.0214
22493W        W26893  23.292   3.814  17.000 -0.1399 -0.2341 -0.1390
22494W        W26894  29.973   2.219  25.182  0.1272 -0.1811  0.0674
22495W        W26895  20.520   2.182  15.212 -0.3290 -0.2162 -0.0582
22496W        W26896  10.446   4.467  20.692  0.0002  0.0670 -0.0472
22497W        W26897  20.651   5.073  22.954  0.1087  0.3170  0.1938
22498W        W26898   1.691   3.927  19.585 -0.0683  0.0308 -0.2463
22499W        W26899   7.938   2.444   6.260  0.0072  0.3725  0.3169
22500W        W26900  15.826   0.173  22.749 -0.0589  0.1830 -0.1877
22501W        W26901   8.220   0.305  16.064  0.0762  0.1241  0.3140
22502W        W26902   7.436   5.883  19.661  0.3643 -0.0669  0.0413
22503W        W26903   8.889   1.307   2.001 -0.1941 -0.0993  0.2153
22504W        W26904   9.578   1.279   8.074  0.0948 -0.0824 -0.1046
22505W        W26905   2.763   2.489   2.220 -0.0938 -0.1958 -0.0834
22506W        W26906  14.908   4.665  19.286  0.2461 -0.1508  0.3502
22507W        W26907  29.554   1.741  22.095 -0.0170  0.4488  0.1771
22508W        W26908  19.887   0.841  15.625 -0.1820 -0.2047 -0.0903
22509W        W26909  22.686   2.462  23.209  0.0455  0.0931  0.2044
22510W        W26910  26.584   3.915   7.035  0.0778 -0.0922  0.1280
22511W        W26911  27.569   3.862  21.411  0.1435  0.0280  0.0356
22512W        W26912  16.091   3.389  19.544  0.3328  0.0646 -0.0153
22513W        W26913  25.950   2.779  18.142 -0.0850 -0.3964  0.0746
22514W        W26914  21.721   7.780  15.736  0.3070 -0.1202 -0.0127
22515W        W26915  29.826   7.521   4.397 -0.0432 -0.0025 -0.3192
22516W        W26916   5.979   2.375   1.257 -0.1884  0.1766 -0.1260
22517W        W26917   1.097   6.645   7.419  0.0032  0.1062  0.0388
22518W        W26918  16.562   6.914   0.369 -0.1542 -0.2198  0.3199
22519W        W26919  30.652   7.077  10.910  0.3323 -0.1048 -0.0552
22520W        W26920  13.461   5.778   8.654  0.2128  0.1282 -0.2225
22521W        W26921  10.408   6.498   1.393  0.2091  0.0221 -0.0494
22522W        W26922  17.234   3.226  20.960 -0.1734 -0.1812  0.1935
22523W        W26923  30.636   4.292   4.277  0.3716 -0.0018 -0.1749
22524W        W26924  24.950   2.957  24.283 -0.2080  0.1891  0.1322
22525W        W26925  21.760   6.799  24.583 -0.0583  0.0094  0.0895
22526W        W26926  15.030   1.955   5.373  0.3318 -0.0818  0.1130
22527W        W26927  19.167   1.551  23.140  0.2112  0.2681  0.1045
22528W        W26928   4.734   1.088  21.861  0.0306  0.2644 -0.2271
22529W        W26929  26.654   5.619   9.518 -0.1306  0.0022 -0.1041
22530W        W26930  18.997   1.879  24.021  0.1848 -0.0593 -0.4704
22531W        W26931  24.728   4.189   3.439  0.2982  0.2891  0.1590
22532W        W26932  13.625   3.015   7.347 -0.1081 -0.0725 -0.3145
22533W        W26933  28.833   6.253  24.879  0.2871  0.0733  0.1889
22534W        W26934  24.227   0.951  23.571 -0.0784  0.2412 -0.1179
22535W        W26935  25.437   1.966  22.399  0.1040 -0.1404  0.0029
22536W        W26936  17.050   1.151  23.312  0.0240 -0.0032  0.0239
22537W        W26937  25.462   6.529   3.737  0.0771  0.3785 -0.1400
22538W        W26938   8.068   4.091   7.951  0.1743 -0.1771 -0.0786
22539W        W26939   3.728   7.204   3.847  0.2980 -0.0435  0.1816
22540W        W26940  10.393   0.047  25.246 -0.0004 -0.1899  0.2458
22541W        W26941  18.276   3.062  15.860 -0.1856  0.0562 -0.0996
22542W        W26942   4.179   7.108  23.218 -0.0626  0.1618  0.0579
22543W        W26943  17.811   3.658   9.366 -0.0455 -0.2969 -0.1002
22544W        W26944   2.820   1.800   4.482  0.0009  0.1133 -0.1704
22545W        W26945  13.078   4.670  15.370  0.2067 -0.1119 -0.3282
22546W        W26946  30.088   2.859  21.721  0.1579 -0.0003  0.2078
22547W        W26947  20.703   4.562  22.652  0.0676 -0.6205  0.2557
22548W        W26948  13.777   4.837  18.616 -0.1788 -0.1658  0.2584
22549W        W26949   2.017   6.433   7.840  0.2140 -0.0746  0.0707
22550W        W26950  28.453   2.862   9.700  0.1859 -0.0056  0.1463
22551W        W26951  12.718   3.229   0.138  0.0479 -0.2137 -0.3296
22552W        W26952  17.882   6.696   8.354  0.0440  0.0259  0.0038
22553W        W26953  18.352   1.547   5.348 -0.0354  0.2379 -0.0150
22554W        W26954  16.581   7.375  18.286  0.1299  0.0377  0.1114
22555W        W26955  17.951   7.482  20.718  0.2149  0.0365  0.0469
22556W        W26956  15.964   6.230   3.529  0.2800  0.1800  0.1018
22557W        W26957  27.282   4.100  23.875 -0.0678 -0.3408  0.2325
22558W        W26958   1.135   0.963  24.644 -0.0579 -0.2554 -0.0719
22559W        W26959  26.741   6.977  23.086 -0.0449  0.0263 -0.0117
22560W        W26960   5.883   3.339  15.266  0.3709 -0.0540  0.1317
22561W        W26961  29.383   2.619  20.966 -0.0153  0.1816  0.0339
22562W        W26962  25.156   2.742  22.695  0.2961  0.3572  0.2217
22563W        W26963  24.582   2.915   2.939  0.1563  0.1297  0.3296
22564W        W26964  21.542   7.568   0.667 -0.2711  0.0511 -0.1761
22565W        W26965   2.497   5.987   8.513 -0.0126  0.2708 -0.1922
22566W        W26966   0.717   3.507  25.533 -0.2960 -0.0432 -0.0731
22567W        W26967  28.061   1.005  21.479 -0.3453 -0.2179  0.0003
22568W        W26968  11.575   3.937  20.241  0.0559  0.4603 -0.1010
22569W        W26969  15.054   2.459  21.448  0.1138 -0.2571 -0.0610
22570W        W26970  26.254   5.255   7.706 -0.2227  0.0787  0.0194
22571W        W26971  12.881   7.513   2.974 -0.1997  0.0963 -0.0073
22572W        W26972  29.534   0.391   1.444 -0.0576 -0.0363 -0.2428
22573W        W26973  23.215   6.547   5.347  0.1768 -0.0544  0.3240
22574W        W26974  20.375   5.578   4.944 -0.1258 -0.1750  0.1073
22575W        W26975  17.202   0.579  14.875  0.1074  0.3387  0.0015
22576W        W26976  30.958   1.875  17.157 -0.1509 -0.1445  0.0039
22577W        W26977  12.162   0.391  17.476 -0.1128  0.1074  0.0746
22578W        W26978  22.995   7.795   7.333 -0.1738  0.1175 -0.0977
22579W        W26979  25.368   2.669   0.438  0.0971 -0.0182 -0.3208
22580W        W26980  12.664   3.656  16.658  0.0683  0.3018  0.1323
22581W        W26981   1.125   2.512   9.089  0.0415 -0.2757 -0.3017
22582W        W26982  31.248   4.984  10.815 -0.3145  0.0218 -0.2431
22583W        W26983  12.641   5.524   5.806  0.0881 -0.2383 -0.2752
22584W        W26984  21.370   5.202   8.477  0.1860 -0.0892 -0.0311
22585W        W26985   3.286   5.231  24.159  0.0685  0.0168  0.0463
22586W        W26986  17.435   1.660   1.515 -0.2505  0.0136 -0.0262
22587W        W26987   4.654   0.972  17.512 -0.1169  0.0689 -0.2832
22588W        W26988  24.274   6.342  16.632 -0.1141  0.1868  0.2386
22589W        W26989  27.570   2.070  25.859 -0.1155 -0.2897 -0.0072
22590W        W26990  26.123   5.837  26.049  0.0321  0.2109 -0.1907
22591W        W26991  10.919   1.195   5.426  0.1809 -0.2799 -0.0490
22592W        W26992   3.387   1.606  24.577  0.1055  0.1686 -0.1858
22593W        W26993  27.109   5.080   0.824 -0.1082  0.2195 -0.1734
22594W        W26994  28.136   4.711  10.657  0.2937  0.1960 -0.2105
22595W        W26995   7.276   7.022  26.002 -0.2049  0.0977 -0.1602
22596W        W26996   2.288   1.915   5.682  0.5450 -0.0682 -0.0119
22597W        W26997  28.480   2.051  15.862  0.1736  0.0352 -0.2759
22598W        W26998   6.591   1.347   4.959 -0.2195  0.1460  0.1675
22599W        W26999   7.110   7.157   3.177 -0.1087  0.2030 -0.1822
22600W        W27000  14.619   7.092  10.407  0.0498  0.1783  0.3285
22601W        W27001   1.288   7.013  21.804 -0.3708  0.0233  0.3067
22602W        W27002   8.060   7.037  22.765 -0.0497  0.0632  0.1920
22603W        W27003  26.005   5.142  22.495 -0.4224  0.1538  0.0532
22604W        W27004  26.126   1.361  22.071  0.0352 -0.1069 -0.1588
22605W        W27005  15.366   1.743  25.703 -0.0683 -0.1577 -0.1658
22606W        W27006  20.814   1.656   4.011 -0.0433 -0.0555  0.0140
22607W        W27007  17.721   7.069  24.313  0.1417 -0.0283  0.3139
22608W        W27008   0.839   6.775  12.325  0.0076  0.1560 -0.0510
22609W        W27009  30.651   4.442  21.424  0.0631  0.2194  0.0296
22610W        W27010   3.734   1.562  17.139 -0.2344  0.2363 -0.3176
22611W        W27011  19.063   7.635  17.309  0.1619  0.0129  0.2915
22612W        W27012  22.728   3.369   7.901  0.0462  0.1653  0.1053
22613W        W27013  15.614   6.833  15.252  0.0818 -0.1092 -0.0832
22614W        W27014  10.253   2.470  17.861 -0.3941 -0.1693 -0.0137
22615W        W27015   9.325   6.544  23.792 -0.0109  0.0165 -0.0063
22616W        W27016  12.179   2.915  18.054  0.0707  0.0885 -0.1504
22617W        W27017  21.952   2.314   6.552  0.0713 -0.0888 -0.0719
22618W        W27018   2.627   4.451  15.678  0.1971  0.0921 -0.1582
22619W        W27019  15.666   4.472  19.904  0.1131 -0.1096  0.2185
22620W        W27020   1.503   0.842   2.849  0.0075  0.0533  0.0793
22621W        W27021  15.201   6.734  16.871 -0.0582  0.0462 -0.1161
22622W        W27022  18.878   4.905   7.730  0.0528 -0.1953  0.4123
22623W        W27023  18.060   1.908  24.062  0.0216  0.1174  0.1436
22624W        W27024  11.538   5.119  18.920  0.0429 -0.2195  0.2309
22625W        W27025  17.634   0.985   6.431 -0.0095 -0.3251 -0.1801
22626W        W27026  28.386   4.823  11.481  0.1421 -0.0942 -0.2122
22627W        W27027  18.539   1.556   3.880 -0.1783 -0.1297 -0.1904
22628W        W27028   2.111   5.193  16.656  0.1025 -0.0565  0.1186
22629W        W27029  26.288   7.312   1.612  0.2631 -0.0501  0.0436
22630W        W27030   6.643   7.438   5.065 -0.3332  0.0949  0.0182
22631W        W27031  24.460   2.295  22.561 -0.0617 -0.2697  0.3048
22632W        W27032  16.551   4.690  10.265 -0.4117 -0.1720  0.0969
22633W        W27033  11.633   3.635  21.469  0.1112 -0.1072  0.1296
22634W        W27034   8.208   2.824  18.050  0.0183  0.0165  0.2359
22635W        W27035   9.265   0.237  21.774 -0.1365  0.2122  0.0382
22636W        W27036   2.005   2.975   2.446  0.0144  0.0053  0.1418
22637W        W27037   5.125   0.668  26.036 -0.1748 -0.1460 -0.2343
22638W        W27038  22.121   7.783   3.851  0.0639  0.2051 -0.3660
22639W        W27039  18.340   5.634   5.075 -0.1454 -0.4286  0.0919
22640W        W27040  19.552   4.383  23.038 -0.1624 -0.1627  0.0638
22641W        W27041   6.389   5.428  25.704 -0.0988 -0.0459 -0.2087
22642W        W27042  29.265   2.562   4.575  0.2201  0.0273  0.1862
22643W        W27043  17.895   4.333  20.767 -0.1512  0.2290 -0.1732
22644W        W27044  27.104   2.943  18.172 -0.0088 -0.0872  0.0340
22645W        W27045  21.848   3.265  23.369  0.1118  0.2802 -0.1530
22646W        W27046  17.484   4.265  10.849  0.0140 -0.0244  0.1385
22647W        W27047   2.906   6.403  16.739 -0.0946  0.2839  0.1801
22648W        W27048  24.093   4.351   7.917 -0.1569  0.2538  0.1551
22649W        W27049  27.359   0.568  16.592 -0.0185  0.0585  0.0509
22650W        W27050  11.253   2.614  24.534 -0.0945  0.0058  0.2278
22651W        W27051  24.901   5.121  10.052  0.0570 -0.0501 -0.1021
22652W        W27052   8.293   0.025  10.485 -0.3502  0.3341 -0.0554
22653W        W27053  24.980   0.819   1.934  0.1243  0.1935  0.0768
22654W        W27054   6.586   5.558   0.389  0.1005 -0.0740  0.0328
22655W        W27055  23.880   7.490  17.295  0.1285  0.3291  0.2172
22656W        W27056  13.959   5.403   9.873  0.0101 -0.0070 -0.3249
22657W        W27057  26.872   2.079  23.249  0.2792  0.1474 -0.4103
22658W        W27058  25.683   1.824   6.791  0.0946 -0.1922 -0.0258
22659W        W27059   1.032   3.329  25.891  0.0140 -0.1578 -0.0461
22660W        W27060  25.894   6.216   6.747  0.1636  0.3301 -0.5251
22661W        W27061  16.688   2.346   8.375 -0.1028 -0.0096  0.1424
22662W        W27062  29.759   5.309  15.442 -0.0440 -0.1946  0.0424
22663W        W27063   1.775   5.565  18.061  0.1363 -0.0425  0.2282
22664W        W27064  12.175   1.968   2.858  0.2570 -0.1044  0.0345
22665W        W27065   2.590   3.990  22.883 -0.0911 -0.1108  0.1350
22666W        W27066   6.824   5.731   7.366 -0.0933  0.0481 -0.0996
22667W        W27067  21.724   6.625  15.099  0.0941 -0.4193  0.0978
22668W        W27068  14.943   4.200  18.300  0.0774 -0.1222 -0.2101
22669W        W27069   7.142   6.967  20.367  0.1056  0.0144 -0.2854
22670W        W27070  22.825   7.266  19.307  0.0805 -0.0385 -0.0610
22671W        W27071  18.819   7.768  16.761  0.2014 -0.3007  0.1689
22672W        W27072  23.885   2.111   9.479 -0.4018 -0.0247  0.3777
22673W        W27073   6.390   4.239  19.196 -0.1464  0.0812 -0.1312
22674W        W27074  20.831   3.326  10.478 -0.1498 -0.0125  0.1477
22675W        W27075   7.881   0.388  23.513 -0.0691 -0.1201 -0.0464
22676W        W27076   6.258   2.311   6.310 -0.0476  0.1527  0.0317
22677W        W27077  23.021   3.159  23.073 -0.2767 -0.2647  0.1156
22678W        W27078   4.677   2.263   7.097 -0.0358  0.0739 -0.0730
22679W        W27079   2.613   6.634  22.063 -0.1625  0.1076  0.0276
22680W        W27080  25.870   1.972  11.070  0.1900  0.0779  0.3674
22681W        W27081  20.070   0.953  19.105 -0.0452 -0.1213  0.0138
22682W        W27082  20.385   6.889  22.528  0.1310 -0.3093  0.1552
22683W        W27083  15.166   6.239  10.401 -0.2211 -0.1604 -0.0596
22684W        W27084  27.688   0.799  19.166  0.3467 -0.1815 -0.0773
22685W        W27085  31.184   5.703   8.225 -0.2227 -0.0101  0.0174
22686W        W27086  20.728   3.058  22.149 -0.2409  0.0351 -0.0405
22687W        W27087   2.524   0.778   0.764  0.0580  0.0306  0.0576
22688W        W27088  26.344   4.945   8.822 -0.1661 -0.0493 -0.0333
22689W        W27089  26.053   1.538  16.023  0.2964 -0.0762  0.2268
22690W        W27090  28.598   0.867   3.805 -0.1204  0.4452 -0.0590
22691W        W27091   4.001   5.061  18.870  0.1873 -0.0379  0.0511
22692W        W27092  21.145   7.188  22.185  0.3082  0.1285  0.4344
22693W        W27093   2.381   1.854  25.168 -0.2058 -0.0657  0.1877
22694W        W27094  27.566   0.819  17.440  0.3014  0.1919  0.0473
22695W        W27095   7.677   5.470  25.260  0.3496 -0.1795  0.1222
22696W        W27096  28.742   5.405  16.801  0.1956  0.0080  0.0855
22697W        W27097   3.218   1.124  24.754 -0.2359  0.0890 -0.2643
22698W        W27098  28.467   7.230   1.617  0.2080  0.0240  0.2052
22699W        W27099   2.396   2.492   4.317 -0.2314 -0.1532 -0.0559
22700W        W27100   9.580   1.791   4.028 -0.0062 -0.0465 -0.1419
22701W        W27101  22.579   0.212   1.263 -0.0104  0.1324  0.2200
22702W        W27102  17.336   5.769  25.336  0.2139  0.0260  0.0895
22703W        W27103  27.642   2.134  10.908 -0.0306  0.0623  0.0046
22704W        W27104   0.375   6.609  26.018  0.0841  0.0544  0.0086
22705W        W27105  15.156   2.222   1.327 -0.0675 -0.2395  0.0049
22706W        W27106   4.594   5.022  21.085 -0.1697  0.0183 -0.0058
22707W        W27107  13.921   7.091   4.454 -0.2142  0.2888 -0.0225
22708W        W27108   4.115   3.401  20.547  0.1020  0.1510  0.2313
22709W        W27109  19.012   0.192  24.145 -0.0251 -0.3496 -0.2396
22710W        W27110  23.665   3.997  25.482 -0.0184  0.0736  0.2644
22711W        W27111  28.349   5.298   0.427 -0.1060 -0.1964 -0.2481
22712W        W27112  22.349   1.578  23.026  0.2981 -0.0019  0.1614
22713W        W27113  20.083   7.501  21.806  0.1441 -0.0011 -0.0146
22714W        W27114   6.060   6.522   4.869  0.1201  0.0620 -0.1986
22715W        W27115   0.032   1.443   6.684  0.0527  0.2000 -0.0007
22716W        W27116  23.063   6.078  21.563  0.1865  0.0182  0.0831
22717W        W27117   8.149   2.726  10.798 -0.0984 -0.3233 -0.0167
22718W        W27118  10.952   2.876  15.830  0.1096 -0.1403  0.0398
22719W        W27119  23.127   6.972  24.539 -0.1852  0.0454  0.2640
22720W        W27120   6.939   7.115  18.819 -0.1728 -0.1005  0.0837
22721W        W27121  24.772   0.773  14.898  0.2165  0.0648 -0.2151
22722W        W27122  26.378   4.343   6.797 -0.1305  0.0234  0.1113
22723W        W27123   0.067   5.088  22.935 -0.0069 -0.1992 -0.0913
22724W        W27124  16.569   5.874  18.829  0.1248  0.1595 -0.2354
22725W        W27125  30.121   7.157  25.364 -0.0787 -0.2180  0.1457
22726W        W27126  14.073   0.244   7.731 -0.3349 -0.0259  0.0516
22727W        W27127   9.227   1.735  16.987  0.1039  0.0190 -0.2484
22728W        W27128  12.734   0.204  25.773 -0.3455 -0.1157 -0.0011
22729W        W27129  15.847   4.008   5.969 -0.2268  0.1487 -0.1499
22730W        W27130  13.732   3.029  23.110  0.0232 -0.0552 -0.0584
22731W        W27131   9.861   2.769   0.045 -0.0369 -0.1500  0.0129
22732W        W27132  18.199   7.785  17.478  0.0557 -0.0340 -0.3418
22733W        W27133  27.989   3.793  21.048 -0.1277  0.4969 -0.1543
22734W        W27134  22.299   2.599  24.792  0.2166  0.0695  0.1518
22735W        W27135  28.208   7.245  22.328  0.2393  0.1254  0.2104
22736W        W27136  14.696   4.174  19.184  0.1724 -0.2136 -0.2345
22737W        W27137  11.888   4.071   5.178 -0.2707  0.0614  0.1559
22738W        W27138  12.438   1.429   7.228 -0.0442 -0.0236 -0.1576
22739W        W27139   2.033   0.046  23.963 -0.0811  0.1499 -0.1313
22740W        W27140   1.885   6.702   8.982 -0.1446 -0.0900 -0.1206
22741W        W27141   4.503   1.847   7.419  0.0861  0.1389 -0.1664
22742W        W27142   4.092   4.696  21.010  0.2538 -0.0215 -0.0932
22743W        W27143  11.066   6.787  15.867  0.0335  0.1935  0.0639
22744W        W27144  15.477   3.072  20.705  0.1007 -0.1680 -0.0246
22745W        W27145  14.591   0.443  25.295 -0.1175 -0.0507 -0.0853
22746W        W27146  30.508   2.853  18.049  0.1539  0.2553 -0.1162
22747W        W27147   5.791   6.701   1.905  0.2411  0.0977 -0.0532
22748W        W27148   5.560   3.488   9.620 -0.1160  0.1507  0.0040
22749W        W27149   5.956   0.340   3.907  0.0542 -0.1603  0.0079
22750W        W27150   3.700   4.191  10.478 -0.5597  0.0221  0.0073
22751W        W27151  20.282   1.115   8.594  0.1693 -0.0972  0.1465
22752W        W27152  16.365   3.716   7.008  0.1299 -0.1126 -0.0630
22753W        W27153  23.834   7.102   2.365  0.0647 -0.1918  0.0042
22754W        W27154  30.233   0.120  22.122  0.1250 -0.1315  0.0322
22755W        W27155  28.584   4.204   1.692  0.1180 -0.0866  0.1001
22756W        W27156  30.421   4.814   7.376 -0.0807  0.2577  0.1348
22757W        W27157  28.442   1.042  17.564 -0.0421 -0.0958  0.0666
22758W        W27158   5.932   4.506  26.008  0.0362 -0.2202 -0.1587
22759W        W27159  15.492   0.621  22.823 -0.1917  0.3588 -0.1427
22760W        W27160  16.256   0.120   8.070  0.0211 -0.0155  0.0539
22761W        W27161  14.279   2.443  22.115  0.1826  0.1576  0.1087
22762W        W27162  18.288   4.728   7.940 -0.3400 -0.0875 -0.1746
22763W        W27163  15.691   2.830  23.229 -0.1591  0.3360 -0.0956
22764W        W27164  24.192   5.556   0.386  0.0468  0.2588  0.2661
22765W        W27165   2.247   3.958  10.292 -0.2468 -0.1362  0.1924
22766W        W27166  30.664   2.606   3.204 -0.0113  0.1682  0.1395
22767W        W27167   4.479   4.621   6.811 -0.4751 -0.3481  0.1034
22768W        W27168   1.638   6.738  16.341  0.2625 -0.3209 -0.0011
22769W        W27169  25.548   6.455  24.631  0.0490 -0.1877 -0.3682
22770W        W27170   8.499   2.480   4.071  0.2060 -0.1190 -0.1206
22771W        W27171  18.546   0.185   7.261  0.1987  0.0244  0.1285
22772W        W27172  30.236   5.423   2.871  0.3955 -0.0391 -0.1774
22773W        W27173  11.868   4.060  21.479  0.0048 -0.1145  0.0969
22774W        W27174  27.130   1.566   9.772 -0.0053  0.0981  0.1820
22775W        W27175  24.602   5.997  16.400  0.0959 -0.2938  0.1391
22776W        W27176  26.401   4.244   4.084  0.0817 -0.0694 -0.0490
22777W        W27177  30.627   3.731   7.552 -0.0995 -0.0870  0.1420
22778W        W27178  30.146   3.540  24.288 -0.0296 -0.1627 -0.0363
22779W        W27179  22.276   6.706   6.801  0.2182  0.0543  0.1973
22780W        W27180  15.729   4.156  18.022 -0.1382  0.2037  0.3077
22781W        W27181   1.778   7.110  19.100 -0.4995 -0.1116 -0.2289
22782W        W27182   9.314   2.550  24.040  0.0400  0.3897 -0.0311
22783W        W27183  28.108   2.806  22.433 -0.1875 -0.0036  0.0061
22784W        W27184  17.279   1.862   1.036  0.0090 -0.1569 -0.0109
22785W        W27185  24.018   2.489  15.201 -0.1831  0.2499 -0.0879
22786W        W27186   2.188   6.190  10.854  0.2650  0.0587  0.1806
22787W        W27187  23.486   7.369   0.285  0.0624 -0.1922  0.1033
22788W        W27188  12.729   6.368  16.111 -0.0909  0.3256 -0.1173
22789W        W27189   9.397   7.611   0.534 -0.0465  0.0475  0.1028
22790W        W27190  23.619   6.555   1.822  0.2180  0.1694  0.1606
22791W        W27191   6.174   0.554  22.499 -0.0708  0.2305  0.1396
22792W        W27192   0.356   2.140   3.846  0.4543  0.2307  0.1407
22793W        W27193   7.960   1.671  21.517  0.1276  0.3142  0.3055
22794W        W27194   5.856   3.324  25.907  0.2539  0.0226 -0.1753
22795W        W27195  17.601   2.525   4.655 -0.1274 -0.1053  0.3416
22796W        W27196  29.925   2.733   9.848 -0.2714 -0.1415  0.0523
22797W        W27197  28.544   5.330   4.965 -0.2768  0.1103 -0.0283
22798W        W27198  26.137   5.308  10.689 -0.1736 -0.1035 -0.1297
22799W        W27199   2.745   5.589  17.864 -0.1162 -0.2213  0.0508
22800W        W27200   2.811   6.713  21.307  0.0305  0.0908  0.1769
22801W        W27201  24.011   3.483  16.908 -0.1189 -0.2033 -0.2858
22802W        W27202  18.342   2.743  25.103  0.0041  0.2287  0.1685
22803W        W27203  10.653   0.497  21.215 -0.2756 -0.0791 -0.0907
22804W        W27204  13.005   3.938   8.837  0.0021 -0.1643  0.0655
22805W        W27205   2.748   3.753   5.484  0.4219 -0.0558  0.0816
22806W        W27206  25.108   3.679   2.454 -0.0785 -0.0019  0.0092
22807W        W27207   2.967   6.875  10.471 -0.1525 -0.2378  0.1221
22808W        W27208  11.963   6.143  10.380  0.4114 -0.0667  0.0786
22809W        W27209  18.793   0.541  23.815  0.2323 -0.1210  0.0573
22810W        W27210  18.700   2.931   9.581 -0.2334 -0.1855  0.1938
22811W        W27211  16.686   5.147  19.595 -0.1157  0.0456 -0.2308
22812W        W27212  25.697   6.800  19.221 -0.0403  0.1201  0.1077
22813W        W27213  11.566   3.595  18.859 -0.1619  0.0177  0.1216
22814W        W27214  12.883   0.623  24.458  0.0839 -0.1908 -0.2300
22815W        W27215  21.270   0.515  24.298 -0.0284 -0.1430 -0.1007
22816W        W27216   1.632   5.373   1.936  0.1294 -0.0995  0.1243
22817W        W27217  14.352   4.596  17.518 -0.0625  0.0253 -0.0071
22818W        W27218   9.655   5.487   3.326 -0.3490  0.5835  0.0171
22819W        W27219  14.159   7.622  21.441  0.1144 -0.2204 -0.1590
22820W        W27220  26.850   5.015   8.822  0.2385 -0.2805  0.0690
22821W        W27221  19.825   6.368   6.650 -0.0028 -0.3012  0.1711
22822W        W27222  28.594   4.391  21.641  0.0584 -0.1518  0.1082
22823W        W27223  26.102   4.265  17.029 -0.2826 -0.2000  0.2253
22824W        W27224  11.856   5.994   0.392 -0.1071  0.0532 -0.0530
22825W        W27225   5.937   5.234  19.733  0.4979  0.1225 -0.0754
22826W        W27226  28.609   7.753   3.904  0.1120  0.2679  0.2753
22827W        W27227  17.335   7.056   7.306 -0.1455 -0.2462 -0.1808
22828W        W27228  20.497   3.491  26.059  0.0478  0.1289  0.0928
22829W        W27229  16.896   0.520  15.955  0.1183  0.2176  0.1046
22830W        W27230  27.164   1.229  19.935 -0.0433 -0.1710  0.1052
22831W        W27231   4.301   3.764   0.959  0.1897 -0.1700 -0.1270
22832W        W27232  14.981   4.543  21.618 -0.0219 -0.3486  0.1334
22833W        W27233   3.958   6.789   0.897  0.4638  0.2864 -0.0844
22834W        W27234  10.079   2.956  17.524 -0.1696 -0.3740 -0.1678
22835W        W27235  30.411   0.762   0.473  0.0723 -0.3994 -0.2525
22836W        W27236  12.148   3.137   4.641 -0.0511  0.1248  0.2065
22837W        W27237  17.807   7.817  23.964 -0.1866  0.0338 -0.0603
22838W        W27238  14.605   6.717   5.348 -0.0387 -0.0902 -0.0175
22839W        W27239   0.998   0.819  21.014 -0.1322 -0.1468  0.0646
22840W        W27240  11.050   3.009   9.205  0.0040  0.1840 -0.1682
22841W        W27241  25.238   1.628   0.444  0.0737 -0.0529  0.0956
22842W        W27242   7.757   7.585  16.756 -0.1808  0.3841  0.0072
22843W        W27243   6.390   0.203  23.508  0.2221 -0.0605 -0.0491
22844W        W27244  25.213   1.894  16.470 -0.1790 -0.2637  0.2980
22845W        W27245  26.209   2.614  21.629  0.0706  0.3038  0.2010
22846W        W27246  12.656   6.453   2.709  0.1256  0.0027 -0.1021
22847W        W27247  25.481   3.730   0.224 -0.1338 -0.0353  0.0763
22848W        W27248  19.014   4.897  15.401 -0.1316  0.2356  0.0694
22849W        W27249   9.702   3.936   1.327  0.4506  0.1229  0.2021
22850W        W27250   5.648   2.127   3.057 -0.1732  0.0845  0.1488
22851W        W27251  21.835   0.012   9.826 -0.0157 -0.3607 -0.3056
22852W        W27252  13.862   7.231   7.343  0.1093 -0.2527 -0.1935
22853W        W27253  18.207   3.080  14.652 -0.2665 -0.1160  0.0862
22854W        W27254  28.559   0.584  20.449 -0.0220 -0.2116 -0.2503
22855W        W27255  11.919   0.990   6.637  0.3688 -0.0469 -0.1721
22856W        W27256  17.626   5.326  23.908  0.1225  0.0833  0.0743
22857W        W27257  18.958   0.536  15.298 -0.2127  0.1697  0.1446
22858W        W27258  14.301   1.719  19.389  0.1323  0.0482 -0.2059
22859W        W27259  19.434   7.621  24.189  0.2009 -0.3175  0.2042
22860W        W27260   6.156   4.768  23.776 -0.1544  0.1061 -0.0932
22861W        W27261  20.573   7.354  21.817  0.1248  0.2765  0.0651
22862W        W27262   2.802   5.187  24.683  0.0578  0.4781  0.0941
22863W        W27263  28.992   0.982  21.088  0.0583  0.0607 -0.1421
22864W        W27264   6.476   1.388   3.846  0.0280 -0.3582  0.2006
22865W        W27265   6.261   0.757  19.018 -0.0301  0.0209  0.1694
22866W        W27266   3.260   3.199   4.042 -0.1199  0.1989 -0.1492
22867W        W27267  23.692   7.215   1.307 -0.0276  0.0110 -0.1602
22868W        W27268   2.427   3.119  19.755 -0.0196 -0.1468 -0.0669
22869W        W27269   4.620   2.494  16.293 -0.0184 -0.1414 -0.0617
22870W        W27270  21.869   6.182  20.011 -0.4142 -0.3346  0.3199
22871W        W27271   2.139   3.095  17.267 -0.0929 -0.0814 -0.0078
22872W        W27272   5.665   6.573   7.029  0.1020  0.1957 -0.0132
22873W        W27273  20.138   6.802  15.239 -0.1875  0.0884  0.0804
22874W        W27274  22.969   0.956  20.238  0.1201 -0.0630  0.0871
22875W        W27275  29.722   5.697   5.989 -0.2775 -0.1725 -0.2143
22876W        W27276   4.850   7.279  25.991  0.3156  0.0635 -0.1473
22877W        W27277  10.135   0.846   1.366 -0.2188 -0.0562 -0.1259
22878W        W27278  23.723   2.106   5.124  0.1602 -0.0428 -0.1054
22879W        W27279  13.389   1.578   0.984  0.2012 -0.1424 -0.0086
22880W        W27280  25.494   0.322  15.223 -0.1538  0.1186  0.2115
22881W        W27281  13.117   3.267   9.817 -0.2779 -0.1733 -0.0503
22882W        W27282  28.744   2.749   8.120  0.0062  0.0766 -0.1390
22883W        W27283  17.495   0.690  16.743  0.1834  0.0276  0.0045
22884W        W27284   1.497   7.260  17.830 -0.3362 -0.1795  0.3190
22885W        W27285  30.515   0.048   9.012  0.4478 -0.1394  0.0125
22886W        W27286   6.116   6.199  24.482  0.3055  0.1095  0.0932
22887W        W27287  28.842   2.208   1.812 -0.1631  0.2326 -0.0296
22888W        W27288   6.108   4.110  18.689  0.0433 -0.0519 -0.0007
22889W        W27289  19.114   3.426  18.488  0.0166  0.0041 -0.2841
22890W        W27290  28.388   0.935   7.042  0.0303  0.0511 -0.4518
22891W        W27291   5.565   2.330  23.341 -0.3596  0.2742 -0.0907
22892W        W27292   8.574   3.875   3.831  0.0635 -0.1083 -0.0633
22893W        W27293  29.998   5.765   9.032 -0.1029  0.1914 -0.1408
22894W        W27294  10.858   1.945  23.508 -0.2413  0.1730  0.2426
22895W        W27295  25.409   5.659  21.593  0.3533 -0.2201  0.1973
22896W        W27296  25.656   7.624   4.741 -0.1020 -0.1607  0.0223
22897W        W27297   9.807   4.581  20.340  0.3171  0.1834  0.2155
22898W        W27298  16.795   3.151  10.706 -0.2103  0.1354  0.0506
22899W        W27299  10.989   3.528   5.179  0.1853 -0.2514  0.2758
22900W        W27300   4.350   2.188   4.998  0.2069  0.2993  0.1768
22901W        W27301   6.619   2.682   3.634  0.1107  0.0681 -0.3657
22902W        W27302  28.017   2.232  16.156  0.1223 -0.0990  0.1924
22903W        W27303  28.336   1.469   1.051  0.1636  0.1347 -0.1816
22904W        W27304  18.508   6.677   9.314 -0.1512  0.2365  0.2121
22905W        W27305  11.644   4.914   3.916  0.0123  0.4226 -0.0207
22906W        W27306   1.704   6.476   1.310  0.1368 -0.1680  0.0936
22907W        W27307  10.714   1.314  17.719 -0.3446  0.4376  0.0013
22908W        W27308  10.358   6.935   7.996 -0.4596 -0.1401 -0.2780
22909W        W27309   9.042   6.679  19.362  0.1524  0.2171 -0.0778
22910W        W27310   0.443   7.558  24.910  0.1295  0.0057 -0.3173
22911W        W27311   0.664   7.200   4.055  0.1880 -0.0899 -0.0833
22912W        W27312  30.874   4.770  24.055  0.0304 -0.0715 -0.2425
22913W        W27313   1.339   2.890   5.911  0.0564  0.0720 -0.0384
22914W        W27314  11.648   5.705  17.305 -0.1950 -0.3862  0.2520
22915W        W27315  23.012   6.018  23.723 -0.0038  0.2108 -0.1654
22916W        W27316  30.019   4.552   1.362 -0.2444 -0.2049  0.1787
22917W        W27317  27.281   3.472   4.892  0.1462  0.1307  0.2332
22918W        W27318  24.862   2.322   6.910  0.3869 -0.0046  0.1049
22919W        W27319  31.283   7.228  11.522  0.0418  0.0201  0.0147
22920W        W27320  15.253   6.507  26.087  0.0837  0.0077  0.0564
22921W        W27321  28.860   3.959  16.140 -0.0451 -0.1645  0.3133
22922W        W27322   1.916   6.571  23.457  0.4646 -0.0081  0.1057
22923W        W27323  26.147   6.527   3.259  0.0036 -0.0464 -0.0325
22924W        W27324  10.527   3.351  17.438 -0.1689 -0.5787  0.1104
22925W        W27325  16.210   2.853  25.099  0.1254 -0.2369  0.3558
22926W        W27326   6.446   4.632   2.461 -0.0273  0.0328 -0.0637
22927W        W27327  15.833   3.340  18.526  0.2473  0.0158  0.2013
22928W        W27328  27.670   1.985   1.108 -0.0503 -0.0663  0.1321
22929W        W27329  28.688   0.556   1.128  0.1251  0.2711 -0.0331
22930W        W27330  21.968   3.820  21.138 -0.2328  0.3122  0.1977
22931W        W27331  19.395   4.160  17.953 -0.1530  0.2058  0.2331
22932W        W27332  23.555   0.466   9.382 -0.1904  0.2187  0.1719
22933W        W27333   9.732   2.673  23.830 -0.1895 -0.3624  0.2047
22934W        W27334   4.530   4.866   6.015  0.1463 -0.2707  0.2834
22935W        W27335   2.751   5.116  17.499  0.0937 -0.2343  0.0700
22936W        W27336  30.262   3.916  15.910 -0.4607 -0.3146  0.2228
22937W        W27337  27.765   0.645   1.486  0.1949  0.2519  0.2279
22938W        W27338   4.883   1.351  17.339  0.2659  0.1563  0.3254
22939W        W27339  19.272   3.741  10.125  0.0208 -0.0250 -0.0966
22940W        W27340  29.777   6.444  23.064 -0.1155 -0.1397 -0.1362
22941W        W27341  16.752   6.197  23.181 -0.1206  0.0565 -0.0537
22942W        W27342  19.586   0.950  19.283 -0.1157 -0.2433  0.1295
22943W        W27343  24.122   3.213  23.267 -0.1597 -0.0537  0.0124
22944W        W27344  22.676   4.881   9.496  0.1876 -0.4081 -0.1978
22945W        W27345  27.995   3.668  17.865 -0.1182  0.0363 -0.2692
22946W        W27346  26.344   1.017   9.469 -0.0656  0.0240  0.3605
22947W        W27347  27.705   3.466  23.115  0.2736 -0.2329 -0.2113
22948W        W27348  14.849   7.391   7.667  0.2697  0.1101 -0.2832
22949W        W27349   0.456   4.753   5.692  0.0232 -0.1083 -0.0711
22950W        W27350  28.369   2.757   4.171 -0.0142  0.1114  0.2270
22951W        W27351   8.051   4.428  19.571  0.1152 -0.3849  0.1515
22952W        W27352  25.407   6.984   9.999  0.4115  0.0596  0.1960
22953W        W27353  24.614   0.619  18.962  0.1973 -0.0760  0.0322
22954W        W27354  17.947   4.160   2.307 -0.0061  0.0020  0.0476
22955W        W27355  25.498   0.039  24.347  0.0016  0.1169  0.0501
22956W        W27356  18.027   3.208   2.631 -0.2743  0.1512  0.0444
22957W        W27357  22.745   6.460  21.501  0.1451 -0.2906 -0.2678
22958W        W27358   6.392   7.293  17.015 -0.2171  0.1474 -0.2060
22959W        W27359   6.119   1.497  21.643 -0.1134 -0.1404 -0.1613
22960W        W27360  23.777   0.680  23.526 -0.2892  0.0479  0.0689
22961W        W27361   0.219   2.105  21.806 -0.2724 -0.0921 -0.0948
22962W        W27362  26.715   1.346   8.588 -0.2284 -0.1145 -0.1179
22963W        W27363   9.481   3.479   1.242 -0.0443  0.0406  0.2141
22964W        W27364  25.914   1.241  17.025 -0.1473  0.2307  0.0274
22965W        W27365   2.119   5.985   0.207 -0.1240 -0.3449 -0.2113
22966W        W27366  29.263   5.305  15.357 -0.0070 -0.0938  0.0751
22967W        W27367  30.101   1.031   1.923 -0.2067 -0.1082 -0.1834
22968W        W27368   9.060   3.174   9.649  0.2452  0.1823 -0.2693
22969W        W27369  17.314   3.729   1.344 -0.2058 -0.0938  0.3099
22970W        W27370  14.800   4.725  17.384 -0.1092 -0.1992  0.1138
22971W        W27371   8.239   4.585   0.116 -0.1624  0.1942  0.1723
22972W        W27372  23.725   3.080  17.812  0.0216  0.1643 -0.1931
22973W        W27373   3.759   6.472  11.589 -0.0690  0.0451  0.1794
22974W        W27374  13.259   2.942   5.486 -0.1719 -0.0823 -0.0541
22975W        W27375   4.966   6.033   2.728  0.3584 -0.4555  0.1774
22976W        W27376  20.886   1.483  21.506  0.0880  0.0231 -0.1815
22977W        W27377   7.859   4.728  24.859 -0.0568 -0.0009 -0.0825
22978W        W27378  17.244   1.462  21.142 -0.2175 -0.0387  0.0360
22979W        W27379   6.684   1.434  18.383  0.2012  0.0565  0.1190
22980W        W27380   8.301   4.008  19.615 -0.1414  0.0660 -0.3739
22981W        W27381  16.986   3.078   9.664  0.1442 -0.0291  0.3013
22982W        W27382   2.123   6.732  20.862  0.1259 -0.2895  0.0242
22983W        W27383  21.063   4.327  14.918  0.1547  0.3210 -0.0100
22984W        W27384   9.808   4.432  16.463 -0.1327  0.0778 -0.0588
22985W        W27385  16.490   0.440   8.476  0.0461 -0.3416 -0.1605
22986W        W27386  15.321   4.299   9.507  0.1026 -0.0745  0.0228
22987W        W27387  17.647   4.528  23.483  0.3070  0.0839  0.2572
22988W        W27388  16.756   2.223   2.886  0.3328 -0.0855 -0.3066
22989W        W27389  16.418   1.552  15.359 -0.1898 -0.2389  0.0527
22990W        W27390   9.967   1.150  16.535  0.0903 -0.0545  0.1607
22991W        W27391  20.922   4.991   9.022 -0.0149 -0.2372  0.0551
22992W        W27392  30.950   5.489   5.829 -0.1227 -0.0736 -0.1750
22993W        W27393  22.952   6.278   5.671 -0.2379  0.2870 -0.1972
22994W        W27394  29.701   6.092  24.666 -0.2551 -0.0923 -0.3922
22995W        W27395   5.064   3.947   8.842 -0.1493  0.0157  0.5583
22996W        W27396  17.443   7.779  17.486 -0.1234 -0.1951 -0.2494
22997W        W27397  13.900   1.735  25.481 -0.2905 -0.0323  0.0685
22998W        W27398  27.705   0.243   6.267  0.2411  0.0106 -0.0972
22999W        W27399  28.172   4.935   5.168  0.1024 -0.2601  0.1327
23000W        W27400  19.296   0.079   5.735 -0.1093 -0.0706 -0.0371
23001W        W27401   8.120   1.943  17.390  0.1205 -0.1006 -0.4355
23002W        W27402  22.686   6.848  15.457  0.1317 -0.2095  0.0043
23003W        W27403  19.109   7.503   2.502  0.0475 -0.1083  0.1236
23004W        W27404  16.506   3.913  22.850 -0.1772 -0.2410 -0.0643
23005W        W27405   3.168   6.379   9.835 -0.1584 -0.0873 -0.2723
23006W        W27406  12.585   7.769   4.013 -0.0638  0.2849  0.2984
23007W        W27407  19.014   1.402  15.313 -0.0466  0.1950 -0.1456
23008W        W27408  19.632   5.061   8.868 -0.2235 -0.1185 -0.0978
23009W        W27409   7.147   0.830   3.418 -0.0827 -0.1845 -0.0886
23010W        W27410  21.670   7.290  14.586  0.0443  0.1364 -0.0535
23011W        W27411   8.758   2.647  18.174 -0.1588 -0.3514 -0.0240
23012W        W27412  19.648   4.790  14.312  0.1898 -0.0259 -0.0068
23013W        W27413   4.904   0.163   1.070  0.1731  0.0146 -0.1718
23014W        W27414   1.748   7.769  10.419  0.1089 -0.0769 -0.0213
23015W        W27415  23.670   2.895   7.817 -0.0779  0.1394  0.2709
23016W        W27416  20.431   2.706  24.565 -0.0612  0.0974  0.2067
23017W        W27417   0.213   7.347   2.169  0.0389 -0.0661 -0.0176
23018W        W27418  28.634   5.313   2.072  0.1029  0.3492  0.1942
23019W        W27419  13.390   1.578   7.270  0.0987  0.2097  0.2019
23020W        W27420  10.753   2.394   2.421  0.3733  0.1690 -0.0679
23021W        W27421  12.583   7.150   3.191 -0.2591 -0.1415  0.1213
23022W        W27422   0.262   0.980   6.726  0.1048  0.0634  0.2527
23023W        W27423  17.229   1.671  25.015 -0.2593 -0.2015 -0.0555
23024W        W27424  28.621   3.903  10.775  0.0094  0.1027  0.1284
23025W        W27425   1.568   2.537   3.646 -0.0372  0.0919 -0.1703
23026W        W27426  20.240   3.714  19.693 -0.0148 -0.0816 -0.2067
23027W        W27427   2.608   6.615  20.759  0.2056 -0.0216  0.1032
23028W        W27428  25.403   7.741   7.045 -0.2577  0.1848  0.0038
23029W        W27429   6.560   7.506   8.267 -0.0047 -0.1793 -0.0609
23030W        W27430  14.873   0.496  14.711  0.0489 -0.2517  0.0269
23031W        W27431  30.482   5.818   8.761  0.1979 -0.3377 -0.1546
23032W        W27432  22.733   6.368  19.622 -0.2424 -0.0445  0.0448
23033W        W27433  27.520   7.668  17.214  0.1982 -0.3081 -0.1960
23034W        W27434  21.097   7.321   0.057  0.0241  0.0443 -0.0779
23035W        W27435  31.300   7.144   9.288  0.2114 -0.0872 -0.1682
23036W        W27436  28.449   5.126  23.372 -0.1346  0.2123 -0.0416
23037W        W27437  30.271   1.698  23.423 -0.1600 -0.0040  0.0925
23038W        W27438  15.920   4.771   5.450 -0.1931 -0.0905  0.2024
23039W        W27439  23.520   4.102  24.986 -0.3921 -0.1412 -0.0700
23040W        W27440   1.145   0.040   1.392  0.0620 -0.2031  0.3071
23041W        W27441  23.078   1.299   7.641 -0.2242 -0.1057 -0.0208
23042W        W27442   7.349   2.399  21.144  0.1587  0.0228  0.0397
23043W        W27443  10.732   2.312  23.829 -0.0458  0.0910 -0.0234
23044W        W27444   6.348   6.815  10.807 -0.0992 -0.1864  0.1138
23045W        W27445  18.760   6.806   4.362 -0.0173  0.1614 -0.0870
23046W        W27446  10.350   5.720  25.028  0.1156  0.0101  0.1841
23047W        W27447  17.894   7.029  22.915  0.0732  0.1002  0.2930
23048W        W27448   3.705   4.732  19.164 -0.0018 -0.3100  0.2679
23049W        W27449   5.579   4.327  19.987  0.0932 -0.0341  0.1754
23050W        W27450  11.188   3.148   4.763 -0.3154  0.1111  0.1133
23051W        W27451  22.640   1.298  25.798 -0.1293 -0.1055  0.0996
23052W        W27452  25.381   5.711  16.698  0.2105 -0.1895 -0.3960
23053W        W27453   5.591   6.694  21.083  0.1199  0.0388  0.1689
23054W        W27454   5.372   4.036  25.388  0.2066 -0.1725  0.1760
23055W        W27455  24.657   3.314  24.096  0.1278  0.1888  0.1865
23056W        W27456  20.357   2.405  23.822 -0.1254  0.2113  0.3846
23057W        W27457  21.008   6.208  22.829  0.0116 -0.0285 -0.2840
23058W        W27458  17.091   3.713  10.107 -0.3021 -0.0503 -0.2150
23059W        W27459  24.782   5.194  18.437 -0.1581  0.0204  0.0027
23060W        W27460  23.331   7.716  20.986  0.2522  0.1620 -0.2257
23061W        W27461  29.336   5.504  23.920  0.1882  0.0196 -0.0113
23062W        W27462  17.869   3.825  21.737 -0.0636  0.0937  0.2279
23063W        W27463  16.098   4.101  17.476 -0.2492 -0.5128 -0.0618
23064W        W27464   9.594   1.461  26.042 -0.3917 -0.1823 -0.0083
23065W        W27465  18.176   6.870  17.253 -0.1303 -0.2090 -0.0061
23066W        W27466  21.603   7.483  17.502  0.3334  0.1636 -0.3067
23067W        W27467  13.351   3.116   2.209  0.2578 -0.2420 -0.0537
23068W        W27468   0.884   3.328  21.130  0.1001 -0.2291  0.3384
23069W        W27469  24.671   5.045   7.852  0.1776 -0.2327 -0.1361
23070W        W27470  26.363   1.400  17.283  0.3248 -0.0244  0.1030
23071W        W27471   5.125   3.539  16.920  0.1004 -0.0449 -0.0818
23072W        W27472   2.437   0.050  22.486  0.1596 -0.1742  0.0844
23073W        W27473  25.238   0.643  22.693 -0.1355 -0.0075  0.0270
23074W        W27474  29.323   2.499  19.363 -0.0317  0.2457  0.2342
23075W        W27475   5.452   3.808  20.203 -0.2457  0.2786  0.3933
23076W        W27476   2.427   0.014   4.398  0.0220 -0.2704 -0.2039
23077W        W27477  20.431   7.299  19.845  0.1247  0.0213  0.0265
23078W        W27478  22.029   0.836   3.321 -0.2387  0.1622  0.0942
23079W        W27479  15.516   5.424  18.109  0.1103 -0.3395  0.0842
23080W        W27480   9.861   7.186  18.675  0.0489 -0.0543  0.3018
23081W        W27481   2.103   6.111   8.243 -0.0931 -0.0237  0.1223
23082W        W27482  18.924   4.400  17.947 -0.0318 -0.0456 -0.3292
23083W        W27483  30.733   7.302   6.933  0.0684  0.3736  0.0896
23084W        W27484  14.462   2.357  23.261  0.1418 -0.1756  0.1802
23085W        W27485  18.019   7.214   3.125 -0.0632 -0.0421 -0.0370
23086W        W27486  29.963   3.321   0.785  0.1211  0.2152 -0.4209
23087W        W27487  27.274   3.894  15.302  0.0556  0.1488 -0.0232
23088W        W27488  18.548   1.084  24.413  0.2325 -0.1177  0.1849
23089W        W27489  11.648   0.569   6.494 -0.0722  0.0314 -0.0339
23090W        W27490  11.849   7.463  14.408  0.2189  0.1289  0.0024
23091W        W27491   5.615   2.317   8.772  0.4413 -0.2169 -0.0459
23092W        W27492  27.968   5.951  23.643  0.1237  0.0248 -0.3239
23093W        W27493  30.452   6.140   5.622 -0.0951 -0.0627 -0.2093
23094W        W27494  29.182   2.390  24.330 -0.0392 -0.0259 -0.0830
23095W        W27495  23.137   5.541   1.118 -0.3237  0.3691  0.1840
23096W        W27496  10.550   4.872  16.604  0.2200  0.1264 -0.0427
23097W        W27497  18.649   3.282   5.302  0.0519  0.0418  0.0349
23098W        W27498   4.208   2.453  18.498 -0.0389  0.1827  0.0830
23099W        W27499   3.937   3.930   2.254  0.1067 -0.1652  0.1482
23100W        W27500   3.305   4.461   2.148 -0.1909 -0.1108 -0.1985
23101W        W27501   5.762   6.284   2.865 -0.0745  0.0307 -0.1633
23102W        W27502  11.993   4.075  17.245 -0.0964 -0.3512 -0.1012
23103W        W27503  29.165   4.464  25.406 -0.0614  0.0293  0.1945
23104W        W27504  16.474   3.837  18.188 -0.0467  0.1734 -0.0928
23105W        W27505   4.270   0.441   8.108  0.0035 -0.5059 -0.0077
23106W        W27506  11.492   3.579   2.456 -0.0574  0.0010 -0.1238
23107W        W27507   4.777   3.940  20.509 -0.1692  0.4946 -0.0105
23108W        W27508  15.494   6.487  24.503 -0.2448 -0.3727  0.2669
23109W        W27509  28.862   0.587  15.578  0.1354  0.3433  0.1273
23110W        W27510  16.110   6.052   5.485 -0.0181 -0.2364 -0.2895
23111W        W27511  31.173   3.395  23.136  0.0246 -0.0513  0.1798
23112W        W27512  22.068   0.166   9.407  0.1476  0.2118 -0.0314
23113W        W27513   5.113   2.024   3.700 -0.2259 -0.1796 -0.0160
23114W        W27514  14.022   2.651  17.060  0.3449  0.5308 -0.1394
23115W        W27515   1.303   6.447  10.005  0.0192  0.0618  0.0662
23116W        W27516  30.163   1.807   7.857 -0.1445  0.2134  0.0667
23117W        W27517   4.527   5.277   8.497 -0.0691  0.0328  0.0563
23118W        W27518   0.132   0.926   6.052  0.2268  0.0102 -0.0393
23119W        W27519  23.743   7.116  22.232 -0.1251  0.3256  0.1176
23120W        W27520  21.099   4.842  15.147  0.2646  0.0493 -0.1457
23121W        W27521   8.265   5.088   8.250  0.1327 -0.0603 -0.0031
23122W        W27522  15.713   7.633  23.589  0.2519  0.1145  0.1550
23123W        W27523   2.330   5.922  20.247  0.0492  0.0586  0.4489
23124W        W27524   1.021   5.074  25.979 -0.1484 -0.1813 -0.3037
23125W        W27525  17.365   3.120   5.140  0.1071  0.1623  0.2605
23126W        W27526  21.573   5.777  25.940 -0.1486  0.0310  0.0533
23127W        W27527   1.797   4.404  23.821  0.0972 -0.2569  0.4139
23128W        W27528  13.252   2.444  24.355 -0.2727 -0.0039 -0.3459
23129W        W27529  12.189   5.975   8.103  0.2245  0.1485 -0.1755
23130W        W27530  27.563   2.457  10.514 -0.1077 -0.3760 -0.0799
23131W        W27531  23.919   3.595  24.402 -0.0839 -0.2379 -0.1092
23132W        W27532  25.473   5.297   1.858 -0.5049 -0.1527  0.0336
23133W        W27533   4.258   4.724  22.890  0.0141 -0.2489  0.0699
23134W        W27534  30.023   2.935  20.378 -0.0510 -0.1803 -0.0503
23135W        W27535  27.661   0.003   0.622  0.2265 -0.2875 -0.0199
23136W        W27536  20.024   6.650   0.500  0.3831  0.1054 -0.0381
23137W        W27537  15.259   3.240  25.641 -0.0424  0.1182  0.1499
23138W        W27538  24.796   4.583  20.195 -0.0591 -0.0111  0.1914
23139W        W27539  27.113   2.924   6.967  0.2094  0.1481 -0.2561
23140W        W27540   2.122   7.543   1.102 -0.1343  0.0813  0.1315
23141W        W27541  21.575   2.437   0.996  0.0513 -0.0500 -0.0824
23142W        W27542  23.296   6.361   9.773 -0.0580  0.1212 -0.1319
23143W        W27543  16.216   6.500   0.425 -0.1467  0.0410  0.2556
23144W        W27544   9.275   6.167  19.499 -0.1136 -0.3455  0.1656
23145W        W27545  14.408   0.778   9.013  0.2891 -0.0512 -0.3137
23146W        W27546   8.531   5.990   0.769 -0.0346  0.0971 -0.0153
23147W        W27547   0.081   6.867  21.271  0.0099  0.1071 -0.2073
23148W        W27548  30.543   7.621  24.167  0.0634  0.1306 -0.2361
23149W        W27549   5.318   6.078  22.407  0.0295  0.0806  0.1494
23150W        W27550  29.683   1.485   7.851  0.0763  0.2073  0.1174
23151W        W27551  11.029   2.703  22.698  0.0481  0.2041 -0.0121
23152W        W27552  20.856   0.543  18.988  0.2233 -0.3270  0.2356
23153W        W27553  17.359   6.339   8.027  0.1935 -0.0200 -0.2894
23154W        W27554   6.099   3.120   4.209  0.0184  0.1841 -0.1325
23155W        W27555   9.155   7.222  15.396  0.1618 -0.3483  0.1065
23156W        W27556   5.443   0.696   4.912  0.0237 -0.0811  0.3638
23157W        W27557   2.597   5.089  18.733 -0.3220  0.3419  0.0122
23158W        W27558  10.114   4.678  17.863 -0.0053 -0.0394 -0.2947
23159W        W27559  31.013   0.512   5.565  0.1494  0.4427 -0.1583
23160W        W27560  26.661   0.555  15.097  0.0712  0.1376 -0.0323
23161W        W27561   0.064   6.141   8.252 -0.3027 -0.0831  0.0739
23162W        W27562   1.252   5.628   8.669 -0.3355 -0.0983 -0.1700
23163W        W27563  25.140   3.968  22.493 -0.2374  0.2651 -0.0583
23164W        W27564   5.037   5.482   4.434 -0.1737  0.2151  0.0009
23165W        W27565  26.625   7.179   2.037 -0.1630 -0.1136 -0.0394
23166W        W27566   2.018   6.148  16.847  0.1894 -0.1973  0.0275
23167W        W27567  19.935   0.906   6.832 -0.0525 -0.2175 -0.2200
23168W        W27568  16.282   6.182   1.128 -0.1157 -0.0849  0.1133
23169W        W27569   9.713   4.204   5.899  0.2841  0.1795 -0.0425
23170W        W27570  23.613   1.828  16.463  0.3357  0.2143 -0.0664
23171W        W27571  18.359   7.548  26.078  0.0534  0.0316 -0.0568
23172W        W27572  21.743   4.304  19.925 -0.2546 -0.3600 -0.0383
23173W        W27573   8.107   2.933  17.478 -0.0555  0.2813  0.1763
23174W        W27574   3.644   0.587  21.224 -0.2347 -0.0627  0.1184
23175W        W27575   3.940   2.292   3.167 -0.3162 -0.1872  0.0847
23176W        W27576  30.269   3.152  11.037  0.0990  0.2195  0.0929
23177W        W27577  18.719   0.932   1.564  0.1448 -0.3067  0.1807
23178W        W27578  19.730   6.293  21.286  0.1822 -0.1315  0.0268
23179W        W27579   8.189   7.476  22.996  0.0729 -0.0283  0.0540
23180W        W27580  28.614   3.292  16.451 -0.2626 -0.4120  0.2129
23181W        W27581   5.068   2.133   0.293 -0.3616  0.4563  0.2302
23182W        W27582  25.676   4.518   7.620  0.0461 -0.1330 -0.1486
23183W        W27583   1.044   4.494  19.842  0.3430  0.0804  0.0118
23184W        W27584  17.188   4.720  15.705  0.1120 -0.5543  0.0135
23185W        W27585  24.831   5.010   2.052 -0.0626  0.0938 -0.1840
23186W        W27586  24.105   6.437   3.618  0.1918  0.2380 -0.0661
23187W        W27587   3.164   2.997  24.054  0.0757  0.0900  0.2205
23188W        W27588   4.393   7.304   4.058  0.2035  0.0782  0.1726
23189W        W27589   5.751   0.406   3.133  0.0450  0.0010 -0.0173
23190W        W27590   5.807   1.442  16.252 -0.2388 -0.3203 -0.1186
23191W        W27591  13.686   2.177  22.620 -0.0406 -0.0238  0.1832
23192W        W27592  16.009   7.555   0.902  0.1788 -0.0071 -0.3394
23193W        W27593  10.785   1.718   8.868 -0.1010 -0.0839 -0.0750
23194W        W27594   2.536   3.849   9.817  0.2340 -0.0499 -0.0417
23195W        W27595   2.419   2.738  15.653  0.0762 -0.0569  0.1812
23196W        W27596  30.242   6.159   9.252  0.0383  0.1460  0.0966
23197W        W27597  23.660   6.478  10.271 -0.0814  0.0683 -0.1757
23198W        W27598  11.888   4.485   9.535 -0.1795 -0.3517  0.0111
23199W        W27599  16.867   5.976  21.856 -0.2554 -0.2040  0.1944
23200W        W27600   3.518   3.426  20.418  0.0809 -0.1576  0.2698
23201W        W27601  28.709   1.098  16.142 -0.4251  0.0969 -0.0774
23202W        W27602  29.002   3.098  17.685  0.0145 -0.1871 -0.0532
23203W        W27603  26.650   4.734   5.595 -0.1277  0.1625  0.1603
23204W        W27604   2.657   5.564  10.789 -0.1449 -0.0130 -0.0240
23205W        W27605  31.169   7.013   0.300 -0.0565 -0.1718  0.2563
23206W        W27606  13.441   0.112   3.482 -0.2922 -0.2250  0.1596
23207W        W27607  10.598   7.794  19.516  0.0628  0.1513 -0.1240
23208W        W27608   1.977   3.065   0.523 -0.1472  0.1177 -0.0611
23209W        W27609  14.492   2.491  16.918 -0.1712  0.1212 -0.1572
23210W        W27610  18.564   5.259  17.975  0.2845 -0.1227 -0.1448
23211W        W27611   6.272   1.197  10.333 -0.1346 -0.3339  0.0737
23212W        W27612   3.046   7.547  10.386 -0.0229  0.0291  0.1502
23213W        W27613   0.020   0.258  25.920  0.1383  0.0753  0.3859
23214W        W27614   7.235   3.152  22.838 -0.0997 -0.1535  0.0475
23215W        W27615  10.030   5.978   0.865 -0.0079  0.0265 -0.1136
23216W        W27616  22.765   4.649   1.891 -0.4041  0.3291  0.3159
23217W        W27617  11.461   3.494   3.904 -0.0434  0.4081 -0.1126
23218W        W27618  13.259   4.870   6.379  0.2190 -0.1696 -0.1826
23219W        W27619  15.054   7.050  25.391  0.0765  0.0566  0.2095
23220W        W27620  30.189   6.737  18.495 -0.1157  0.4149  0.1023
23221W        W27621  10.469   1.902  22.148 -0.1098  0.2170  0.0933
23222W        W27622  15.517   6.248  22.670  0.1320 -0.2036  0.0896
23223W        W27623  22.972   0.222  19.479  0.1090  0.2259  0.2509
23224W        W27624  19.404   6.652  23.117 -0.3559 -0.0733 -0.0819
23225W        W27625  14.685   7.267   0.257  0.1109 -0.1605 -0.0629
23226W        W27626  26.246   1.240  18.278 -0.2872 -0.1439 -0.2835
23227W        W27627  18.522   0.265  15.949 -0.2256  0.3083  0.0775
23228W        W27628   5.386   2.636   4.368 -0.1330  0.1556  0.0703
23229W        W27629   7.751   5.491  19.903 -0.0253 -0.0736 -0.1623
23230W        W27630  17.235   6.052   1.299  0.0328 -0.1284 -0.1593
23231W        W27631  15.868   2.165   8.792  0.0511 -0.0241 -0.1825
23232W        W27632  18.668   6.426  16.341  0.0261 -0.1335 -0.1622
23233W        W27633   2.749   2.664  16.067  0.1197  0.0862  0.1228
23234W        W27634  25.475   1.848  25.746  0.1751  0.2280  0.2273
23235W        W27635   6.900   5.557  16.594  0.5064 -0.0346  0.1902
23236W        W27636  28.936   2.421   2.953 -0.2133 -0.1240  0.2168
23237W        W27637  26.594   7.257   6.968  0.2268 -0.0962 -0.1409
23238W        W27638   3.546   1.793  22.682 -0.5762 -0.1555 -0.1137
23239W        W27639   8.800   1.187   1.211  0.0350  0.0639 -0.2600
23240W        W27640   1.395   0.635  16.674  0.0608 -0.0251 -0.1076
23241W        W27641  24.642   7.410  14.557  0.2114 -0.0379  0.0125
23242W        W27642  25.253   1.594  19.789 -0.0070  0.2232  0.2706
23243W        W27643   4.156   5.661   4.850  0.2002 -0.0562  0.2659
23244W        W27644   6.550   2.097   1.218  0.2817  0.1782  0.2832
23245W        W27645  21.797   4.040  22.935 -0.0863 -0.1446 -0.0809
23246W        W27646  26.317   0.006  24.967 -0.1415 -0.1241 -0.0484
23247W        W27647  15.151   6.284  23.506 -0.4141  0.0406  0.0353
23248W        W27648  17.288   0.238  21.977 -0.3962 -0.1236  0.0135
23249W        W27649   0.678   3.138  16.279  0.1306 -0.1092  0.3695
23250W        W27650   4.564   1.159   3.760  0.0073  0.0419 -0.1019
23251W        W27651  26.340   6.069  17.595 -0.6797  0.0388  0.1694
23252W        W27652  12.031   0.990   9.891 -0.0473  0.1910 -0.4054
23253W        W27653   1.942   3.327   7.902  0.2499 -0.2848  0.0112
23254W        W27654  10.553   1.970  10.180 -0.1179  0.0938  0.1595
23255W        W27655  18.207   5.898   1.719  0.0160 -0.0409  0.1532
23256W        W27656  28.526   1.337  19.485  0.0320  0.1273  0.1896
23257W        W27657  23.158   5.546  15.386  0.0030 -0.1179 -0.0446
23258W        W27658  12.938   5.266  25.880 -0.2868 -0.0050 -0.0705
23259W        W27659  18.708   1.750  25.818 -0.3194 -0.0154 -0.0573
23260W        W27660   7.256   6.268   3.994 -0.1173  0.0211  0.1645
23261W        W27661   0.464   1.179   9.406 -0.2854 -0.3513  0.3193
23262W        W27662  23.605   0.564  25.801  0.0987  0.1551  0.0441
23263W        W27663  20.564   1.043  24.427 -0.1990  0.0295 -0.0269
23264W        W27664  25.168   2.888   4.050 -0.2122  0.1070 -0.0838
23265W        W27665  13.509   3.124   3.715 -0.0663 -0.0540 -0.3260
23266W        W27666   4.436   6.318  15.077 -0.0772  0.1709  0.1781
23267W        W27667  21.501   0.792   8.990  0.1762  0.1174  0.0369
23268W        W27668  26.345   5.363  23.809 -0.1513  0.0514  0.4318
23269W        W27669   9.204   2.502  18.514 -0.1824 -0.1840 -0.1898
23270W        W27670   9.023   4.927   1.654  0.1101  0.0794 -0.0284
23271W        W27671  30.088   5.301  21.251 -0.2964  0.2454  0.0010
23272W        W27672   5.295   3.591   7.035 -0.0369 -0.2378  0.0487
23273W        W27673  25.131   2.164   0.507  0.3007 -0.0256 -0.0873
23274W        W27674  23.678   0.425   8.393  0.1688  0.3146  0.2248
23275W        W27675  25.096   6.921  17.076  0.0967  0.3366  0.3244
23276W        W27676   7.129   3.452  17.635  0.0507 -0.0014 -0.0030
23277W        W27677  27.686   5.355   3.602  0.0723  0.3958 -0.1805
23278W        W27678  11.769   3.770  21.941  0.0073 -0.2171  0.1495
23279W        W27679  22.517   1.168  17.565  0.0066  0.0818  0.2579
23280W        W27680   2.047   6.107  16.342  0.1388  0.2675 -0.1681
23281W        W27681  20.630   1.386  17.987  0.0083 -0.1355 -0.0109
23282W        W27682  27.017   4.685  18.018 -0.2958  0.1755 -0.2382
23283W        W27683  29.297   1.036   7.175  0.2871  0.2637  0.0666
23284W        W27684  12.674   1.527  21.825  0.0224 -0.4246  0.0948
23285W        W27685  22.789   2.471   3.077  0.0077 -0.0744  0.2004
23286W        W27686  30.440   3.572  19.164 -0.1518  0.0969  0.1228
23287W        W27687  19.923   6.435  26.072  0.0002 -0.2198  0.2088
23288W        W27688  25.843   4.887  15.685 -0.4169 -0.1513 -0.1275
23289W        W27689  27.251   1.254  23.515  0.0045 -0.2744  0.0628
23290W        W27690   0.426   0.488  26.080  0.2059 -0.0247 -0.2267
23291W        W27691   3.445   0.403  10.977  0.4555  0.0557  0.3128
23292W        W27692  13.724   0.444  19.538 -0.0359  0.0589  0.1788
23293W        W27693  29.587   6.312  24.157  0.0755  0.1521  0.0147
23294W        W27694   4.707   4.236  23.190  0.2155 -0.1498  0.2073
23295W        W27695  17.855   3.386   5.189  0.2511 -0.1478 -0.0801
23296W        W27696  26.299   6.510  16.438  0.0051 -0.0931 -0.2364
23297W        W27697  29.297   0.897  10.033  0.2992 -0.0527  0.1851
23298W        W27698  25.094   6.050  21.540 -0.0590 -0.1057 -0.1143
23299W        W27699  17.084   5.263   7.346 -0.0998  0.1289  0.0215
23300W        W27700  13.385   0.407   6.754  0.0005  0.0827 -0.1568
23301W        W27701  11.000   6.605   2.279 -0.2342  0.1592 -0.0773
23302W        W27702   4.886   4.175  22.062  0.4302 -0.0804  0.4745
23303W        W27703  16.146   0.885  20.335  0.1080 -0.1555 -0.1242
23304W        W27704  16.533   0.558  11.143 -0.5165  0.0490  0.1918
23305W        W27705  18.062   7.513  24.317 -0.0895  0.2556  0.1703
23306W        W27706   1.216   6.622   2.760  0.3125 -0.2786 -0.3423
23307W        W27707  25.599   0.622  20.704 -0.1334  0.1415 -0.0168
23308W        W27708   8.585   4.473  19.381 -0.3088  0.0318 -0.1583
23309W        W27709   6.578   7.569  11.183  0.2018  0.2825 -0.0626
23310W        W27710  18.403   6.791   8.322  0.0199  0.2868  0.0581
23311W        W27711   6.390   2.299   4.105  0.1675  0.0791 -0.0036
23312W        W27712  29.901   3.760  25.011 -0.1263 -0.2283  0.2397
23313W        W27713  28.248   2.430   0.679  0.0975  0.0560 -0.1695
23314W        W27714  10.575   3.020  21.963  0.0574 -0.1783 -0.1765
23315W        W27715   1.360   3.432  22.925 -0.0190  0.2507  0.1890
23316W        W27716  11.894   4.345  15.575  0.0535  0.0424  0.0121
23317W        W27717  10.293   6.179   4.827  0.3076 -0.0308  0.0417
23318W        W27718  10.433   3.160   4.528  0.0786 -0.1249 -0.0172
23319W        W27719   7.088   4.351  17.985  0.1044 -0.0739  0.0259
23320W        W27720  13.601   5.325  16.527 -0.0751 -0.0390 -0.1587
23321W        W27721  16.894   4.013   5.169  0.0509 -0.0273  0.0496
23322W        W27722   1.851   3.956   0.304 -0.0437 -0.0119  0.0647
23323W        W27723  22.146   5.881  17.734  0.1658 -0.2900 -0.0096
23324W        W27724   0.704   2.224  22.712 -0.1168  0.0785  0.4163
23325W        W27725  20.262   2.882  22.340  0.0076 -0.0242  0.1775
23326W        W27726  16.306   3.280  22.000  0.0350 -0.0903  0.0246
23327W        W27727   2.981   2.433  21.099  0.2925 -0.1973  0.0804
23328W        W27728   1.839   6.491   6.020  0.3139  0.0517 -0.0959
23329W        W27729   4.944   1.577   8.401  0.2990  0.0722  0.3425
23330W        W27730   5.613   6.287  15.971 -0.0350  0.1590  0.2160
23331W        W27731  20.057   4.181  20.648 -0.0295  0.1389  0.0218
23332W        W27732   3.364   5.124  19.154 -0.1298  0.0481  0.2178
23333W        W27733   5.408   1.194  23.420 -0.1777  0.1091  0.0776
23334W        W27734  13.433   2.268   0.289  0.3470  0.4341 -0.0028
23335W        W27735  11.720   3.556  19.878 -0.0888  0.0945 -0.2568
23336W        W27736  22.263   1.543   7.753  0.0430  0.1350  0.1034
23337W        W27737  16.753   6.754   9.912  0.1800 -0.0226 -0.0302
23338W        W27738  26.675   5.047   0.202 -0.1232  0.0129  0.0868
23339W        W27739   4.198   2.436  21.376 -0.0885  0.0468  0.0763
23340W        W27740  25.334   4.734  25.568 -0.5232  0.0475  0.3191
23341W        W27741   2.767   6.934   4.629  0.0504 -0.0604 -0.1470
23342W        W27742  23.877   6.438   7.274 -0.1036  0.2219  0.0485
23343W        W27743   9.751   5.036   1.196 -0.0392 -0.1221 -0.1813
23344W        W27744   9.845   3.052  24.731  0.0401  0.4508  0.2068
23345W        W27745  22.053   0.772  18.811 -0.1875  0.1928 -0.0222
23346W        W27746  29.920   0.487  23.520 -0.5186  0.0150  0.2818
23347W        W27747  12.995   2.090  17.491  0.0885  0.2559  0.0880
23348W        W27748  29.359   1.693   4.160  0.0042  0.3477 -0.0878
23349W        W27749  13.241   2.470  14.906 -0.1246 -0.0400  0.1087
23350W        W27750  21.058   3.207   4.762 -0.0479 -0.1841 -0.2172
23351W        W27751   5.798   4.320  15.573 -0.1154 -0.0719 -0.0897
23352W        W27752   4.626   5.471  11.990  0.0104  0.1931  0.1861
23353W        W27753   2.161   0.997  19.186  0.0372 -0.2102  0.4096
23354W        W27754  26.943   3.333   2.445  0.2002 -0.1087  0.0442
23355W        W27755  28.413   5.240  20.296 -0.0125  0.0210 -0.0304
23356W        W27756   3.267   3.220  16.790 -0.2789 -0.0426  0.3329
23357W        W27757  28.486   7.061  24.495 -0.0416 -0.0795 -0.0778
23358W        W27758  13.636   2.558   4.833 -0.2823  0.0939 -0.2464
23359W        W27759   3.489   4.683  17.002 -0.1818 -0.1634  0.2638
23360W        W27760   4.788   1.774   9.877 -0.1101  0.0166  0.0604
23361W        W27761   4.388   2.209  18.985 -0.3416 -0.0381 -0.1282
23362W        W27762  26.720   3.058   1.232 -0.1650  0.1362  0.0078
23363W        W27763  16.423   3.298   2.769  0.1128 -0.1584  0.0989
23364W        W27764  12.410   1.278  25.638 -0.0096  0.0165  0.0204
23365W        W27765  27.229   1.931  20.278  0.0448  0.0250  0.3021
23366W        W27766  16.106   6.986  22.118  0.0011 -0.3869 -0.0597
23367W        W27767  24.383   2.143   5.236 -0.1350  0.2301  0.1955
23368W        W27768   1.281   3.039  17.498 -0.1668 -0.2320  0.3012
23369W        W27769   6.232   1.840  25.021 -0.2441  0.0627  0.6051
23370W        W27770  10.105   3.166   4.997  0.3195 -0.0626 -0.1879
23371W        W27771  20.046   0.227  24.243 -0.2000  0.4298  0.0854
23372W        W27772   3.131   1.946  20.973 -0.1195  0.0747  0.0671
23373W        W27773   4.827   3.438  18.858  0.2808 -0.0765  0.2970
23374W        W27774  19.135   2.958  23.049  0.0587 -0.2866  0.1559
23375W        W27775  25.542   3.620   8.729  0.0772 -0.0514 -0.0496
23376W        W27776   3.204   2.416   5.937  0.2866 -0.2966 -0.1533
23377W        W27777  17.294   7.444   6.113 -0.1210 -0.1304 -0.2953
23378W        W27778  11.548   0.134   6.764 -0.0964 -0.1305 -0.0520
23379W        W27779  15.571   3.580   8.486  0.0767  0.0774 -0.2571
23380W        W27780   9.732   7.008   7.352  0.1641  0.0570 -0.2138
23381W        W27781   4.115   0.425  22.265  0.0018 -0.0063  0.1465
23382W        W27782  27.475   3.952  14.864 -0.0688 -0.0143  0.1703
23383W        W27783   4.386   1.044  21.499  0.0408 -0.0117 -0.1622
23384W        W27784  14.508   0.129   2.115 -0.2152  0.0581 -0.2454
23385W        W27785  26.099   4.240   1.819 -0.1483  0.2166 -0.0886
23386W        W27786  21.541   5.478  18.551  0.0682 -0.1188 -0.2427
23387W        W27787  22.523   6.359  20.781 -0.0859 -0.0547 -0.0626
23388W        W27788  23.431   2.143  21.666  0.3294  0.2096 -0.0999
23389W        W27789  25.870   3.710   9.066  0.1711  0.1687 -0.1218
23390W        W27790  27.656   2.518   0.082  0.0470 -0.0179 -0.2421
23391W        W27791  18.417   4.078  16.050 -0.3467  0.1406 -0.0051
23392W        W27792  24.314   5.022   3.344  0.1869  0.0355  0.1657
23393W        W27793  16.286   6.924  15.808 -0.1264  0.1636 -0.2988
23394W        W27794   2.486   1.225  22.059 -0.1766 -0.2057 -0.0754
23395W        W27795  25.136   6.117  10.461  0.2168 -0.1499  0.0376
23396W        W27796  18.032   5.209  24.383 -0.2703 -0.0651  0.1248
23397W        W27797   1.625   3.691  22.545 -0.2778 -0.0524 -0.0394
23398W        W27798  15.678   3.224  22.671  0.2328  0.3310  0.0963
23399W        W27799  12.603   3.827  20.371 -0.4105 -0.0376  0.2356
23400W        W27800  27.456   6.470  11.453  0.0477  0.0966 -0.1214
23401W        W27801  29.869   6.704   5.007  0.2226 -0.1442  0.0531
23402W        W27802   5.738   2.699  20.978  0.1041  0.0906 -0.3481
23403W        W27803  15.864   6.828  16.128 -0.1312  0.2095 -0.2029
23404W        W27804  23.910   7.475   7.021  0.1232  0.0547  0.1664
23405W        W27805  20.509   6.518  20.434  0.0267  0.3041 -0.1327
23406W        W27806  24.722   4.632  16.904  0.3002  0.0355 -0.0238
23407W        W27807  20.632   4.126   6.380  0.0117  0.0825  0.1613
23408W        W27808  12.138   5.562  16.165  0.0868  0.0784  0.2990
23409W        W27809   6.990   6.294   5.421  0.2384 -0.1061 -0.3146
23410W        W27810   4.085   7.018   5.083  0.4813  0.0191  0.1036
23411W        W27811   7.947   1.607   5.719  0.0038 -0.1336  0.2053
23412W        W27812   0.605   1.368   8.132 -0.1867  0.0653  0.2822
23413W        W27813  12.845   3.285   5.600 -0.2651  0.0781 -0.1218
23414W        W27814   9.034   2.880   5.472  0.0014 -0.0662  0.3001
23415W        W27815  14.377   4.348  24.675  0.0749 -0.4887 -0.0144
23416W        W27816  25.672   5.936   4.491 -0.0266 -0.1826  0.1587
23417W        W27817  21.709   6.611  19.264 -0.0638 -0.1171  0.2101
23418W        W27818  18.946   1.553  19.229 -0.0073 -0.1118  0.1973
23419W        W27819  25.888   5.863  21.609 -0.1524 -0.3917  0.1133
23420W        W27820   6.483   7.593   6.761  0.1892 -0.2649 -0.3229
23421W        W27821  23.980   0.519   4.526 -0.1822 -0.0372 -0.0752
23422W        W27822  10.875   1.682  26.058  0.0378  0.0008 -0.0798
23423W        W27823  12.989   5.858  18.350 -0.0627 -0.1206  0.2202
23424W        W27824  16.441   4.325  17.149  0.0294 -0.2447  0.0899
23425W        W27825  24.084   0.316   1.811 -0.0424 -0.0112  0.1296
23426W        W27826  23.414   3.269   6.366  0.1962 -0.0268  0.2233
23427W        W27827  28.171   5.534   7.980 -0.2897  0.0505  0.1592
23428W        W27828   1.557   6.688  18.515  0.0485 -0.2586 -0.0011
23429W        W27829  15.130   7.418   9.097  0.0080  0.1345  0.0938
23430W        W27830  10.087   0.352  20.615 -0.0729 -0.0187  0.2199
23431W        W27831  20.416   5.522   8.412  0.1452  0.0098 -0.0576
23432W        W27832  21.366   5.074  24.501  0.2080  0.1137  0.0875
23433W        W27833  22.394   4.278   9.539  0.0144  0.0011  0.0340
23434W        W27834   5.528   2.238  20.215  0.0046 -0.0081 -0.1808
23435W        W27835  11.841   2.845  15.779  0.3598  0.2403  0.2485
23436W        W27836  24.688   1.888  17.520  0.2173 -0.2909  0.1895
23437W        W27837  30.902   0.224  10.597  0.2002  0.4160 -0.0408
23438W        W27838  21.235   6.087  21.742  0.0312 -0.0342  0.1059
23439W        W27839  26.883   5.280  23.852 -0.2416  0.1132  0.0071
23440W        W27840   5.632   4.015  16.327 -0.1529 -0.0338 -0.0339
23441W        W27841   7.305   4.507   3.639  0.1679 -0.0828  0.2578
23442W        W27842  10.142   0.171  24.421 -0.1000  0.1021 -0.1356
23443W        W27843  23.301   6.879   8.511  0.0379  0.0747  0.0773
23444W        W27844  15.174   0.161  16.111  0.2041  0.0230  0.1384
23445W        W27845   4.481   6.954   5.453 -0.2107 -0.2508  0.2911
23446W        W27846  12.287   6.149  20.124  0.0355  0.0783  0.0116
23447W        W27847  14.420   3.174   9.805  0.0039  0.0446  0.3628
23448W        W27848  23.775   7.601  18.734 -0.0441  0.0061  0.2251
23449W        W27849   6.783   1.189  22.119  0.2599  0.3028  0.0072
23450W        W27850   6.812   0.427  17.422 -0.0298 -0.1206  0.1033
23451W        W27851  16.913   0.814   7.748 -0.1614  0.0849 -0.2317
23452W        W27852   6.315   0.872   3.627  0.2807  0.2317 -0.0156
23453W        W27853   6.835   6.314  17.278  0.1782  0.0254 -0.1447
23454W        W27854   8.895   6.954  10.017 -0.1242  0.0734  0.0825
23455W        W27855  27.613   3.361  19.806  0.0296 -0.2884  0.0900
23456W        W27856  21.713   1.377   7.667 -0.4966  0.1270  0.1186
23457W        W27857  17.617   7.252   3.468 -0.0259  0.1924  0.3101
23458W        W27858   7.321   7.148   8.595  0.1573 -0.2077  0.0109
23459W        W27859  18.144   1.269   2.093 -0.1512 -0.1168 -0.1311
23460W        W27860  12.138   4.999   1.297  0.1203  0.1898 -0.0157
23461W        W27861  27.252   2.510   3.620  0.2729  0.0815 -0.3801
23462W        W27862  30.314   5.202  23.956 -0.0360  0.0012  0.3021
23463W        W27863   6.204   6.355  18.131 -0.2793 -0.0302 -0.1372
23464W        W27864   6.579   5.668  20.132  0.2033 -0.0298 -0.2711
23465W        W27865  25.097   4.665  19.524  0.1860 -0.0085 -0.1334
23466W        W27866  16.899   0.812   6.778  0.1305  0.3073  0.1654
23467W        W27867  27.235   6.182  21.638  0.1014  0.1938 -0.0916
23468W        W27868   7.779   4.412   3.679 -0.4517 -0.0826  0.1768
23469W        W27869   7.564   7.166  20.094  0.1945 -0.1358 -0.3885
23470W        W27870   7.161   4.754  19.210  0.0831  0.1663  0.1819
23471W        W27871  28.259   0.805  22.890 -0.5245  0.0452  0.1217
23472W        W27872  29.818   6.316   2.946  0.1699 -0.0265  0.0993
23473W        W27873  23.111   6.531   2.108 -0.1935 -0.0930  0.3016
23474W        W27874   9.027   2.623  19.019 -0.0661 -0.0858  0.2180
23475W        W27875  14.636   7.797  25.023 -0.0510 -0.1526 -0.2330
23476W        W27876  12.050   4.255  24.339 -0.0897 -0.0407  0.2096
23477W        W27877   6.792   1.311   7.095  0.0753 -0.0875 -0.2046
23478W        W27878  26.596   1.038  25.685 -0.1196 -0.2830  0.3816
23479W        W27879  24.962   2.228  16.088  0.1736 -0.0494  0.2676
23480W        W27880  14.720   0.875  20.349  0.0162 -0.2209  0.2098
23481W        W27881  25.910   6.421   8.049  0.2250 -0.3543 -0.3145
23482W        W27882  16.149   2.846   0.999  0.2343 -0.1307 -0.0546
23483W        W27883  14.494   6.621  16.519 -0.2690 -0.0780  0.0685
23484W        W27884  29.369   4.095  19.197  0.0788 -0.0599 -0.0488
23485W        W27885  10.791   0.329  22.912 -0.1926  0.1339 -0.0455
23486W        W27886  15.263   5.355   0.207  0.2267 -0.2482  0.0054
23487W        W27887  21.357   0.157  17.845 -0.1468 -0.1547 -0.1486
23488W        W27888  28.881   4.367  24.180 -0.2783 -0.1548 -0.0464
23489W        W27889  19.748   3.641  19.779  0.1805 -0.1081  0.0427
23490W        W27890  22.842   6.073  22.014  0.2684  0.1011  0.0924
23491W        W27891   7.602   2.063   4.431  0.1383  0.0010 -0.1277
23492W        W27892  10.027   4.697  25.917  0.1224 -0.0167  0.2347
23493W        W27893  13.064   0.802  20.751 -0.2110  0.0524 -0.1950
23494W        W27894  15.586   5.915   9.184  0.0963  0.1356 -0.1418
23495W        W27895  14.044   0.289   4.168 -0.0725 -0.0623  0.2661
23496W        W27896  22.521   2.400  21.400 -0.2256 -0.1508 -0.0974
23497W        W27897   0.088   4.660  23.249 -0.2254  0.1379  0.0787
23498W        W27898  10.719   2.182   9.288  0.0844 -0.0297  0.0925
23499W        W27899  24.228   2.208  25.628 -0.0460 -0.0741  0.0471
23500W        W27900  23.342   1.298  23.725 -0.1061 -0.0098 -0.0035
23501W        W27901  30.779   0.870  21.377  0.2439 -0.1936  0.4080
23502W        W27902  29.073   5.834  22.842  0.0157  0.1058 -0.0500
23503W        W27903  30.739   2.230  18.777  0.0344 -0.0788 -0.1213
23504W        W27904  13.588   3.991   2.441  0.1400  0.1575  0.0092
23505W        W27905  26.833   5.525  19.672  0.2273 -0.4464  0.1132
23506W        W27906  28.511   6.662   7.275 -0.1855 -0.1224 -0.0926
23507W        W27907   9.412   4.785   6.275  0.0202  0.0090 -0.0896
23508W        W27908   3.369   0.095   9.939  0.1068 -0.3884  0.1251
23509W        W27909  12.485   3.990   4.475  0.0739  0.2151  0.1539
23510W        W27910   4.793   5.195  22.228  0.1916  0.0713 -0.1909
23511W        W27911   5.138   3.831  25.844  0.1121 -0.0831  0.1369
23512W        W27912  25.114   1.598  14.842 -0.0651 -0.0778  0.1097
23513W        W27913  29.045   7.199   7.009 -0.0426 -0.1295 -0.1982
23514W        W27914   6.543   3.340   4.239  0.1267 -0.1065  0.0312
23515W        W27915  30.954   0.153  11.932  0.3041  0.0685  0.0099
23516W        W27916   4.956   7.211  22.664  0.1677  0.3238 -0.0779
23517W        W27917   2.512   1.608   7.185 -0.2506  0.0140 -0.0388
23518W        W27918   3.174   4.162   4.144 -0.2930  0.2585  0.1599
23519W        W27919  26.302   4.735   4.173 -0.0037  0.0837  0.2152
23520W        W27920  20.436   2.483  18.970  0.1505 -0.1896 -0.0000
23521W        W27921   1.520   5.413  11.651 -0.0566 -0.0917 -0.0523
23522W        W27922  25.002   5.022  16.157 -0.1039  0.1161  0.0100
23523W        W27923  21.654   3.604   5.432 -0.0176 -0.2436 -0.0793
23524W        W27924  20.592   0.684  19.415 -0.1146 -0.1049 -0.2500
23525W        W27925  12.737   7.314   6.564 -0.1700 -0.0051 -0.0683
23526W        W27926   5.393   4.591  24.266  0.1826  0.0164  0.2931
23527W        W27927  11.848   1.700   4.635  0.4656 -0.0408  0.2713
23528W        W27928   2.642   1.360  19.372  0.0608  0.0925  0.1639
23529W        W27929   3.040   2.374   9.374  0.0082  0.0922 -0.1732
23530W        W27930  16.053   3.568  24.986  0.0634 -0.0182 -0.2220
23531W        W27931  15.599   1.202  11.002  0.2881  0.0687 -0.0338
23532W        W27932  22.075   4.137  16.188  0.2415 -0.0870  0.2758
23533W        W27933  30.306   2.352   0.854  0.4331 -0.2014 -0.3669
23534W        W27934  18.515   5.267  24.045  0.0459  0.3319  0.2910
23535W        W27935  11.792   1.036   8.268 -0.0926  0.2337 -0.1519
23536W        W27936  11.188   4.079   6.046 -0.0201 -0.2678 -0.0149
23537W        W27937  23.851   5.491   8.865 -0.2143  0.2993 -0.0503
23538W        W27938  11.028   7.210  10.125 -0.2141 -0.1503 -0.1991
23539W        W27939  29.650   1.407  24.434 -0.2519 -0.3214  0.2591
23540W        W27940   6.022   0.955   0.834 -0.0743  0.2066  0.1429
23541W        W27941  21.473   5.406   3.868 -0.1520 -0.1725  0.0604
23542W        W27942  19.720   7.662   6.741 -0.1246  0.0891 -0.2817
23543W        W27943  27.525   4.088  17.342  0.1927 -0.1627 -0.1248
23544W        W27944  10.349   3.145   1.774 -0.0921  0.0313 -0.0249
23545W        W27945  27.775   5.577  21.904  0.0825 -0.3391 -0.1525
23546W        W27946  24.132   6.147  25.707 -0.1949 -0.1007  0.2951
23547W        W27947   7.537   5.459   9.469 -0.0542  0.0925  0.2620
23548W        W27948   7.398   6.235  20.521 -0.0504  0.2207  0.2328
23549W        W27949  11.269   5.025  19.311 -0.0754 -0.2153  0.0734
23550W        W27950  28.293   1.748   1.883  0.0525  0.1702 -0.0357
23551W        W27951  16.977   5.162  25.624 -0.1179  0.0424  0.0334
23552W        W27952  21.609   4.311  24.254  0.0329 -0.1574  0.2759
23553W        W27953   6.434   1.213   0.035  0.0471  0.0591  0.0419
23554W        W27954  25.670   2.946  25.761 -0.0491 -0.0250  0.0905
23555W        W27955  18.361   2.190  25.573 -0.3617  0.4938  0.0563
23556W        W27956  30.956   6.247  10.437  0.1956  0.0350 -0.1099
23557W        W27957  26.980   3.772  23.650 -0.0173 -0.1478  0.3805
23558W        W27958  14.870   1.039  22.547  0.0613 -0.0434 -0.2587
23559W        W27959   2.663   3.176   8.996 -0.0611  0.0363 -0.0726
23560W        W27960  10.987   4.647  19.667 -0.1043  0.0441  0.2400
23561W        W27961  20.874   7.736   6.088  0.1085 -0.0144  0.2624
23562W        W27962  22.884   5.900   3.966  0.3114 -0.2766 -0.0456
23563W        W27963  16.685   2.639   4.920 -0.0671 -0.1662 -0.3853
23564W        W27964   5.148   1.066  11.173  0.0998 -0.5131  0.3012
23565W        W27965  28.928   1.951   8.522  0.0179  0.0503  0.0370
23566W        W27966  24.821   0.682   9.364  0.1353 -0.0144 -0.0379
23567W        W27967  12.752   2.400   7.452 -0.2942 -0.3421 -0.0010
23568W        W27968  30.220   7.355   2.288  0.0328 -0.0052  0.1942
23569W        W27969  30.429   5.590   7.255  0.4893 -0.1394 -0.3123
23570W        W27970  15.749   7.278   5.596  0.1284 -0.0363 -0.1501
23571W        W27971  20.226   4.734   5.165  0.3817 -0.4075 -0.3495
23572W        W27972   6.413   7.676  10.620 -0.2288 -0.0963 -0.2083
23573W        W27973   1.576   4.015  21.182  0.0393  0.0293 -0.1660
23574W        W27974  16.136   3.279   9.214 -0.1507 -0.0989  0.1066
23575W        W27975  30.807   4.819  20.803 -0.1228  0.1332  0.0730
23576W        W27976  19.919   7.311  15.276  0.2766  0.2255  0.1961
23577W        W27977   5.104   3.737  18.163 -0.0709  0.0713  0.2383
23578W        W27978   8.238   7.365   1.940 -0.3956  0.0374  0.0568
23579W        W27979   1.546   6.201  24.836  0.0578  0.0613 -0.0329
23580W        W27980  10.144   0.362   0.402  0.1032 -0.0441 -0.2516
23581W        W27981  17.622   4.151   8.278  0.2119 -0.1844 -0.0099
23582W        W27982  23.998   6.392  15.515 -0.0887 -0.0486  0.1551
23583W        W27983  14.664   0.926   0.467  0.1411 -0.0705  0.2474
23584W        W27984  26.712   6.059  19.686 -0.1723 -0.0391 -0.0283
23585W        W27985   0.156   2.882  25.719  0.0144 -0.1316  0.1732
23586W        W27986   7.489   5.842  20.197 -0.0994  0.2196  0.0887
23587W        W27987  26.789   6.897  17.095 -0.0838 -0.1404  0.3365
23588W        W27988  20.848   2.415  23.616  0.2325 -0.2104 -0.3372
23589W        W27989  19.578   6.754  17.500  0.1965 -0.2843  0.1232
23590W        W27990  18.707   6.123  19.627 -0.0826 -0.1180 -0.1234
23591W        W27991  28.927   6.043   4.341 -0.0746 -0.1453  0.1021
23592W        W27992  25.781   4.990   9.028 -0.0491 -0.0036 -0.0856
23593W        W27993  19.623   3.152  19.536  0.1134 -0.0825  0.1361
23594W        W27994   4.850   7.775  19.726  0.1899 -0.2378 -0.0804
23595W        W27995  21.016   7.370  23.042 -0.0839 -0.0865 -0.1824
23596W        W27996  29.824   3.703  23.893  0.2256 -0.0688 -0.2999
23597W        W27997  19.099   0.109   3.604 -0.0295  0.0696 -0.1465
23598W        W27998  29.254   4.773  25.855 -0.0233  0.0214  0.0343
23599W        W27999  17.413   7.203  16.603 -0.0555  0.0927  0.1043
23600W        W28000  26.393   5.910  20.670 -0.1378  0.0041  0.0601
23601W        W28001   1.627   0.791  18.344 -0.1434 -0.1333 -0.1185
23602W        W28002  26.972   1.717   1.674 -0.0625  0.1199 -0.0557
23603W        W28003  15.699   5.461  24.779  0.1907  0.0774  0.1567
23604W        W28004   5.934   5.139   5.092 -0.0225 -0.1463  0.1403
23605W        W28005  27.254   1.997   7.051 -0.1868  0.2784 -0.3650
23606W        W28006  17.616   6.690   4.067  0.1495 -0.1412  0.1069
23607W        W28007  12.827   1.693  22.578 -0.1717 -0.1589  0.5454
23608W        W28008   0.016   1.379  22.413  0.0032 -0.2047  0.0595
23609W        W28009  23.058   3.920  21.604 -0.2469  0.1494 -0.1060
23610W        W28010   6.949   5.266  18.299 -0.0549 -0.1857  0.4925
23611W        W28011  22.695   2.903   4.368  0.1221 -0.0747 -0.0172
23612W        W28012   6.322   4.576  24.269 -0.1619 -0.0626 -0.0464
23613W        W28013  23.686   4.403   9.865 -0.0222 -0.0508 -0.1467
23614W        W28014  26.133   6.243  17.081 -0.2857 -0.0566 -0.0465
23615W        W28015   2.716   1.302   7.940  0.0393  0.0563 -0.0317
23616W        W28016  25.569   1.746  25.059 -0.2505  0.0752 -0.0257
23617W        W28017  29.431   4.622  16.855 -0.4208 -0.0772 -0.0235
23618W        W28018   6.432   4.460  16.243  0.1543 -0.0161  0.1053
23619W        W28019  28.306   1.561  15.001  0.3009  0.3918 -0.0350
23620W        W28020  16.558   4.059   8.765 -0.0925 -0.0346 -0.1603
23621W        W28021  26.435   6.238  20.057  0.0344  0.0955 -0.1625
23622W        W28022  19.793   4.882   9.533  0.0715 -0.2798 -0.0100
23623W        W28023  25.808   6.543  17.978 -0.2396  0.0324 -0.1002
23624W        W28024   7.524   2.584   8.499 -0.1495 -0.0054 -0.0771
23625W        W28025  27.464   6.910  15.824 -0.0071 -0.3070 -0.0168
23626W        W28026  24.939   6.948   4.804  0.0340  0.2597  0.0203
23627W        W28027  20.253   1.418  24.217  0.1190 -0.0544 -0.0035
23628W        W28028  11.625   1.645  17.462 -0.3573 -0.1321  0.0307
23629W        W28029  20.396   7.693  17.001 -0.0769 -0.1026  0.0517
23630W        W28030  19.530   3.965  19.516 -0.1300 -0.1288  0.0389
23631W        W28031  24.186   4.111   2.031 -0.2610  0.0355 -0.1123
23632W        W28032   5.020   6.941  20.566 -0.3071  0.1197 -0.1055
23633W        W28033  23.912   3.346   1.893  0.0814  0.3041 -0.0313
23634W        W28034  18.958   3.574   9.668  0.0360  0.0654 -0.0663
23635ION     NA28035  28.435   0.018   5.900 -0.1443  0.1787 -0.4493
23636ION     NA28036   4.590   0.378   8.398 -0.2269 -0.3494 -0.1972
23637ION     NA28037   0.863   1.550   5.312 -0.4109  0.1162  0.0421
23638ION     NA28038  13.360   6.836  25.984  0.1978  0.4527  0.0689
23639ION     NA28039   8.882   0.516   3.399  0.0053  0.0179  0.1685
23640ION     NA28040   0.972   2.194  18.739 -0.0528 -0.3035 -0.2314
23641ION     NA28041  24.236   2.475  16.117 -0.0322 -0.3748  0.1517
23642ION     NA28042   5.295   7.227   0.838  0.4517  0.0491 -0.2741
23643ION     NA28043  30.702   3.027  10.645  0.1575  0.0625 -0.0179
23644ION     NA28044  19.942   2.793  15.185  0.1624 -0.0773  0.3479
23645ION     NA28045   5.399   2.458   2.934  0.1858 -0.1405  0.0387
23646ION     NA28046  22.411   3.955   1.102  0.3058  0.2746 -0.2689
23647ION     NA28047  14.234   1.406  19.100  0.0060 -0.2158  0.4372
23648ION     NA28048  16.458   6.901  10.727  0.2466  0.0186 -0.0934
23649ION     NA28049  23.825   0.771  10.214 -0.0295 -0.2863  0.3271
23650ION     NA28050  30.025   4.093  17.786 -0.3019 -0.1278  0.4792
23651ION     NA28051   6.262   4.593  17.497  0.3833 -0.1840 -0.4742
23652ION     NA28052  10.087   4.676  10.152 -0.1378 -0.2670 -0.0967
23653ION     NA28053  23.886   5.311  17.942  0.3189  0.1194  0.0265
23654ION     NA28054   5.757   1.173  24.784  0.3273  0.0593  0.1411
23655ION     NA28055   0.738   2.247  15.984  0.0632  0.2422  0.1126
23656ION     NA28056   7.113   2.694  21.352 -0.2259  0.0709 -0.1869
23657ION     NA28057  26.463   6.155   5.235 -0.2342 -0.2707  0.5613
23658ION     NA28058   5.468   6.295  19.998 -0.2727 -0.0459  0.3485
23659ION     NA28059  13.223   0.465   9.662 -0.2645  0.2292 -0.1247
23660ION     NA28060  25.055   2.736   9.669 -0.3555 -0.5549  0.0949
23661ION     NA28061  19.666   5.647  25.016  0.4027  0.0742  0.1968
23662ION     NA28062  17.548   6.781  16.092  0.2200  0.2751 -0.2187
23663ION     NA28063   1.073   4.197  22.269 -0.2534 -0.1522  0.0091
23664ION     NA28064  21.209   6.422  18.688  0.1112  0.5623  0.0838
23665ION     NA28065  23.490   2.351  18.328 -0.3426 -1.0564  0.0588
23666ION     NA28066  23.901   5.393  15.628  0.4782  0.2288 -0.0031
23667ION     NA28067   5.071   5.977   0.192  0.3904  0.0674 -0.0752
23668ION     NA28068   4.570   4.439  21.768  0.0467 -0.0871  0.1236
23669ION     NA28069  16.893   4.815  19.473 -0.1229  0.6103 -0.0167
23670ION     NA28070  13.096   5.284  18.042 -0.3315 -0.1328  0.2881
23671ION     NA28071  18.037   7.149  20.054  0.3642  0.2418  0.0933
23672ION     NA28072   8.421   7.569   1.122 -0.0259  0.2041  0.2173
23673ION     NA28073   7.538   3.171   9.543  0.0670 -0.5815 -0.1902
23674ION     NA28074  30.712   5.755  17.134 -0.1023  0.0632  0.2850
23675ION     NA28075  28.508   4.154  10.261  0.1895 -0.2063 -0.1988
23676ION     NA28076   6.224   3.675   1.551 -0.0044  0.3876  0.0644
23677ION     NA28077  17.116   6.624   2.507  0.1456 -0.4455  0.0654
23678ION     NA28078  11.782   0.542  21.586 -0.1864 -0.1492  0.0876
23679ION     NA28079   2.539   1.983  21.838 -0.0721  0.0346  0.1108
23680ION     NA28080  12.861   1.632   4.815 -0.0868  0.5423  0.6257
23681ION     NA28081  24.929   1.880   4.375  0.0304 -0.1594  0.2984
23682ION     NA28082  16.431   6.974   1.640  0.1180 -0.1645  0.0625
23683ION     NA28083  26.988   5.271  10.782  0.2557 -0.0003  0.2902
23684ION     NA28084   1.781   1.091   6.058  0.0693 -0.2100  0.7014
23685ION     NA28085  27.517   4.217  23.037 -0.1630  0.0517  0.0695
23686ION     NA28086  14.593   1.113   8.497 -0.1805  0.0443 -0.1323
23687ION     NA28087   7.785   4.503  21.348  0.2763  0.4339  0.4309
23688ION     NA28088   0.460   2.099   7.193 -0.2075 -0.3914  0.0222
23689ION     NA28089   2.843   6.221  16.178 -0.3073  0.2483  0.1113
23690ION     NA28090  23.008   5.079   4.877  0.1731  0.1986  0.2846
23691ION     NA28091  15.026   6.511   3.130  0.2696  0.3946  0.1523
23692ION     NA28092  17.309   1.737  19.117 -0.0914 -0.0967 -0.0772
23693ION     NA28093   1.217   5.270   9.745  0.3486 -0.0977 -0.1639
23694ION     NA28094  24.157   5.711   1.404 -0.0889  0.1499 -0.4569
23695ION     NA28095  16.771   5.155  25.174 -0.2534 -0.3102 -0.3105
23696ION     NA28096  29.644   0.580   3.044  0.6007  0.3678 -0.1523
23697ION     NA28097  25.449   5.628   8.456 -0.1971 -0.0051 -0.1951
23698ION     NA28098  14.661   1.038  20.729  0.1828  0.2114  0.1477
23699ION     NA28099   9.607   3.060  25.964 -0.3624  0.0811  0.3976
23700ION     NA28100  12.571   0.296   7.897 -0.2808  0.0043 -0.4545
23701ION     NA28101  15.097   0.860   4.615  0.0078 -0.0902 -0.2371
23702ION     NA28102   2.277   0.624   0.466 -0.3363 -0.1251  0.0262
23703ION     NA28103  23.237   4.332  18.268  0.3502  0.0745  0.2042
23704ION     NA28104  16.217   4.337   1.815  0.2002  0.2130  0.0155
23705ION     NA28105  10.389   4.462  16.487 -0.3721 -0.2918 -0.0935
23706ION     NA28106  12.988   2.720  21.476  0.2257  0.2283  0.2208
23707ION     NA28107  12.453   4.860  10.590 -0.0770 -0.0882 -0.1397
23708ION     NA28108  20.139   3.248   7.531 -0.1466 -0.6365 -0.0170
23709ION     NA28109  30.180   3.268   3.067 -0.1757  0.1479  0.0372
23710ION     NA28110   7.559   4.893   4.095 -0.0646  0.0727  0.1186
23711ION     NA28111  20.178   3.115  18.620 -0.2625  0.2109 -0.0897
23712ION     NA28112   0.097   0.704  21.833 -0.1570 -0.0597 -0.1700
23713ION     NA28113  25.702   2.326  15.435 -0.0988 -0.3350 -0.0207
23714ION     NA28114  15.923   6.928  19.140 -0.4265  0.2089  0.4417
23715ION     NA28115  14.037   5.899   3.289 -0.1846 -0.5201 -0.5121
23716ION     NA28116   8.105   0.992  20.732 -0.3208  0.0810 -0.1840
23717ION     NA28117  12.393   3.760   7.222  0.0250 -0.3608  0.3260
23718ION     NA28118   5.244   7.501  25.394 -0.6084  0.1240 -0.4010
23719ION     NA28119   5.188   6.233   1.314 -0.1923 -0.0068  0.1844
23720ION     NA28120  15.437   4.985   0.287  0.3076  0.1260 -0.0418
23721ION     NA28121  29.838   4.202   4.438  0.0831  0.2693 -0.1202
23722ION     NA28122  20.929   7.020   7.299  0.4750 -0.4720 -0.3383
23723ION     NA28123  26.186   5.407  22.803  0.2671 -0.0020  0.4045
23724ION     NA28124  22.635   5.554   4.090 -0.3501  0.0358  0.2302
23725ION     NA28125  25.264   3.958  17.136  0.1124  0.0115  0.1481
23726ION     NA28126  27.952   2.134   3.790  0.5439  0.0993  0.4173
23727ION     NA28127  22.343   6.027   3.249  0.4398 -0.6388 -0.4522
23728ION     NA28128  28.154   6.939   1.010 -0.2259  0.1039  0.3452
23729ION     NA28129  21.066   7.423  21.729 -0.1516  0.2024  0.4899
23730ION     NA28130  12.472   6.752  24.970  0.1201 -0.2733 -0.1053
23731ION     NA28131  19.790   1.485   6.212  0.0205  0.0994  0.2124
23732ION     NA28132  14.940   4.232  20.333 -0.1855  0.1209  0.2721
23733ION     NA28133  29.277   7.520  20.075 -0.1139  0.3703  0.1881
23734ION     NA28134  18.947   2.616   1.814  0.0310 -0.0978  0.0741
23735ION     NA28135  20.322   0.098  25.330 -0.2760  0.1558 -0.1892
23736ION     NA28136   0.059   4.989  18.099  0.4563  0.2055  0.1527
23737ION     NA28137  22.880   3.034  23.439  0.2825  0.1205  0.1978
23738ION     NA28138   1.841   4.262  11.397  0.3079  0.5776  0.0116
23739ION     NA28139   3.190   7.346  24.048  0.6099 -0.6506  0.3665
23740ION     NA28140  24.174   6.775   0.566 -0.2323  0.3302 -0.0604
23741ION     NA28141  24.514   3.513  15.759 -0.0713 -0.4536 -0.1529
23742ION     NA28142   4.665   6.420  24.801 -0.1121 -0.0475  0.2811
23743ION     NA28143  30.991   1.800  23.699  0.1147 -0.2755  0.3952
23744ION     NA28144   4.364   5.007   0.866 -0.0867 -0.4160 -0.0587
23745ION     NA28145  21.041   3.277  21.967  0.0532  0.0206  0.1259
23746ION     NA28146   7.896   3.633   2.070 -0.3545  0.1681 -0.2886
23747ION     NA28147   1.151   3.159  23.263  0.0052  0.2391  0.4630
23748ION     NA28148   9.670   4.943  15.650  0.0738 -0.2958  0.0566
23749ION     NA28149  20.013   5.370  17.860  0.5535  0.2583 -0.1596
23750ION     NA28150  10.281   0.214   4.106  0.2648 -0.2947  0.2912
23751ION     NA28151  19.912   0.089   0.174  0.3887 -0.0880  0.0584
23752ION     NA28152  15.652   2.092  18.461 -0.3417  0.2566  0.0065
23753ION     NA28153   5.195   5.973   1.885  0.1122  0.1410 -0.1697
23754ION     NA28154  26.816   4.788   6.175  0.0615  0.0853 -0.0161
23755ION     NA28155  25.327   3.190  18.470 -0.2247  0.0589 -0.2142
23756ION     NA28156  26.579   7.055  24.486 -0.1644  0.1094 -0.0426
23757ION     NA28157  23.205   6.343  21.997  0.4428 -0.0393  0.3195
23758ION     NA28158  13.925   7.015   4.886 -0.0982 -0.2602 -0.1648
23759ION     NA28159  22.855   3.960  20.307 -0.1523  0.2246  0.5698
23760ION     NA28160  20.807   4.131   0.125 -0.1893  0.1578 -0.1187
23761ION     NA28161  12.679   6.964  20.578 -0.4950  0.3253  0.4195
23762ION     NA28162  25.557   5.714  15.697 -0.4431 -0.0016 -0.0571
23763ION     NA28163  21.286   5.929  17.862  0.1616 -0.0885 -0.1924
23764ION     NA28164   0.246   0.428   7.582  0.0318 -0.1054  0.0954
23765ION     NA28165  13.691   1.062  17.074  0.1816  0.2944  0.1642
23766ION     NA28166   4.046   7.176  24.414 -0.1723  0.3659  0.0983
23767ION     NA28167  25.110   1.400   6.455  0.3685  0.1886 -0.0340
23768ION     NA28168   1.352   4.921  22.086 -0.1768 -0.0027  0.0344
23769ION     NA28169  11.823   2.520   6.115  0.0704 -0.0205 -0.3398
23770ION     NA28170  15.050   5.469   4.123 -0.0724 -0.1807 -0.0697
23771ION     NA28171  28.492   2.412  22.394 -0.2541 -0.1992  0.0192
23772ION     NA28172  14.544   5.285   4.980  0.1591  0.6633  0.0017
23773ION     NA28173   5.733   1.069   9.413  0.0903  0.5532  0.0858
23774ION     NA28174   6.901   5.300   9.376 -0.3589  0.0660 -0.0642
23775ION     NA28175  23.469   7.410  22.574 -0.1506  0.0246  0.2312
23776ION     NA28176  23.033   7.421   7.479  0.0617  0.4443  0.3273
23777ION     NA28177  28.335   1.303   8.786 -0.2318 -0.2174  0.1601
23778ION     NA28178  26.034   0.560  19.939  0.0345  0.1577 -0.1684
23779ION     NA28179   1.080   3.248  24.837 -0.2957  0.6849 -0.0255
23780ION     NA28180  11.064   3.938  23.638 -0.0680  0.4478 -0.2008
23781ION     NA28181  29.146   6.005  18.294 -0.1120 -0.5249 -0.2196
23782ION     NA28182  21.114   3.343  16.527  0.0217  0.1518  0.2518
23783ION     NA28183   2.008   5.908   3.325 -0.5121 -0.0805 -0.1103
23784ION     NA28184   3.407   2.365  21.095  0.1294  0.0684  0.4936
23785ION     NA28185  23.307   5.174  19.282  0.3807 -0.2487  0.4455
23786ION     NA28186   3.292   6.813  24.662  0.3208  0.2794 -0.1950
23787ION     NA28187   3.117   5.961  26.163  0.0425 -0.1072  0.1425
23788ION     NA28188  15.802   3.157  23.492 -0.0609 -0.2391  0.0477
23789ION     NA28189  24.097   2.990   0.245 -0.1686 -0.2856  0.2005
23790ION     NA28190  23.753   7.052  19.406 -0.3548 -0.0411  0.1319
23791ION     NA28191  10.113   1.498   9.338  0.1411 -0.3577  0.0961
23792ION     NA28192  26.020   4.408  25.049  0.1730 -0.2237 -0.0366
23793ION     NA28193  20.883   1.688  15.459 -0.4286 -0.3742 -0.1814
23794ION     NA28194   6.138   6.136  21.304  0.1393  0.2744 -0.4937
23795ION     NA28195  18.798   5.685  24.826 -0.3532 -0.4876  0.1506
23796ION     NA28196  16.330   0.327   5.661  0.2151 -0.1935 -0.3026
23797ION     NA28197  27.094   3.430   2.826 -0.0174  0.3671 -0.3210
23798ION     NA28198  28.983   0.542   6.594  0.0532 -0.6153 -0.4100
23799ION     NA28199  24.585   1.207  23.532  0.3459  0.1801  0.4433
23800ION     NA28200   9.296   4.913   0.331 -0.6548 -0.1907  0.3648
23801ION     NA28201  26.575   7.685  19.102 -0.2816 -0.3916 -0.3581
23802ION     NA28202  10.446   7.515  26.129  0.0254  0.0131  0.1558
23803ION     NA28203  13.383   3.259   0.775 -0.1260  0.1541  0.1752
23804ION     NA28204  30.941   5.917   4.549  0.1806 -0.1586  0.0262
23805ION     NA28205  19.689   4.677  10.773  0.0991  0.0632 -0.0846
23806ION     NA28206  18.521   6.445   8.537  0.3299  0.3074 -0.5206
23807ION     NA28207  16.060   4.322  10.515  0.1077  0.1169 -0.1595
23808ION     NA28208   8.876   4.109  21.401 -0.2998  0.2119  0.2206
23809ION     NA28209  22.191   1.156  18.360  0.0557 -0.0455 -0.0469
23810ION     NA28210  24.305   4.274   5.130  0.0788 -0.1609 -0.2853
23811ION     NA28211  27.842   0.489  18.835 -0.4124 -0.1482 -0.0542
23812ION     NA28212  15.685   3.442  25.736 -0.0716 -0.4987 -0.0696
23813ION     NA28213  23.155   1.194  19.377 -0.0955 -0.4914 -0.1532
23814ION     NA28214  15.553   4.403  24.428  0.1219  0.3564  0.0973
23815ION     NA28215  31.121   3.507  10.834 -0.1074  0.0620  0.1110
23816ION     NA28216  15.007   4.795  24.622 -0.1420  0.3732 -0.5340
23817ION     NA28217  18.726   3.369  26.048  0.4243 -0.0308  0.4198
23818ION     NA28218   7.461   6.637   0.049 -0.3034  0.5095  0.2404
23819ION     NA28219   2.334   0.806  22.057  0.3594 -0.7610  0.2762
23820ION     NA28220  28.765   2.637  20.243 -0.4060  0.1032 -0.0451
23821ION     NA28221   3.582   2.863  24.185  0.2910 -0.0181 -0.0720
23822ION     NA28222  12.818   6.833  22.653 -0.1631 -0.1376  0.3474
23823ION     NA28223   2.439   5.925  17.689 -0.2279 -0.0489 -0.1916
23824ION     NA28224   6.435   6.312   9.992 -0.3611 -0.1627  0.0234
23825ION     NA28225  10.824   5.862  20.703  0.1241  0.3638 -0.3881
23826ION     NA28226   5.693   0.573   0.970  0.3899  0.1626  0.3172
23827ION     NA28227  18.243   3.550   9.574  0.0291 -0.1015  0.4259
23828ION     NA28228  27.342   1.345  25.748  0.0824 -0.4559 -0.1048
23829ION     NA28229  25.268   2.411  21.790  0.0993  0.1068  0.0636
23830ION     CL28230  17.384   6.346   4.728  0.0902 -0.4789 -0.1952
23831ION     CL28231  28.723   0.274  17.446 -0.1491 -0.6982  0.1191
23832ION     CL28232   4.270   3.166   8.315  0.4676  0.0749  0.1924
23833ION     CL28233  28.297   7.605   6.479 -0.1185 -0.0797  0.1867
23834ION     CL28234  23.607   1.034   3.694  0.0492 -0.1546 -0.2091
23835ION     CL28235   0.393   0.958  21.622  0.2535 -0.1541  0.1368
23836ION     CL28236   5.728   7.801   6.977  0.1462 -0.0162  0.0128
23837ION     CL28237   6.233   4.308  17.742 -0.2296 -0.1618  0.1696
23838ION     CL28238  24.609   7.559  22.256 -0.1098 -0.0433  0.0735
23839ION     CL28239  23.709   2.828  25.379 -0.0914 -0.2088  0.0263
23840ION     CL28240  27.111   4.647  19.711 -0.1709 -0.0210  0.2917
23841ION     CL28241  29.169   7.580  26.052 -0.0940  0.0135  0.0519
23842ION     CL28242  22.828   1.210   4.480  0.2392  0.2326  0.0206
23843ION     CL28243  16.267   0.871   5.317  0.1176 -0.0423 -0.3810
23844ION     CL28244  29.256   5.986  10.083  0.2556 -0.4126 -0.2094
23845ION     CL28245  28.909   1.932  25.530  0.2664 -0.2054  0.2384
23846ION     CL28246  29.430   1.726  20.854  0.2817 -0.1219 -0.7006
23847ION     CL28247   9.864   4.400  17.629 -0.3130 -0.1271  0.1868
23848ION     CL28248   4.599   0.248  19.151 -0.2985 -0.5137  0.0616
23849ION     CL28249  22.003   6.065   3.381 -0.2301  0.1738  0.0265
23850ION     CL28250   7.148   2.681   0.696 -0.0454 -0.5522  0.2197
23851ION     CL28251   7.279   2.743  18.952 -0.0413  0.1973 -0.1451
23852ION     CL28252  15.703   2.801   6.026 -0.0312  0.0565 -0.5051
23853ION     CL28253  24.168   5.985  17.853 -0.5358  0.2292  0.1680
23854ION     CL28254   8.517   0.232  24.005 -0.1318  0.1015 -0.3699
23855ION     CL28255   6.763   7.645   6.437 -0.4278  0.1472 -0.0985
23856ION     CL28256  26.509   1.306  21.752  0.1149 -0.0981  0.1176
23857ION     CL28257  28.639   4.190   8.393  0.0842 -0.4025 -0.0998
23858ION     CL28258  25.895   4.300   6.281  0.3075 -0.4469  0.1215
23859ION     CL28259   6.112   5.123  23.996 -0.4983  0.1912 -0.2551
23860ION     CL28260  16.732   5.183  23.349 -0.1476  0.0838 -0.1590
23861ION     CL28261   8.764   7.144   8.331 -0.3302  0.1021 -0.3475
23862ION     CL28262  25.378   1.403  10.249  0.1725  0.2771  0.4840
23863ION     CL28263  22.879   1.311  17.330 -0.2845  0.0176  0.2034
23864ION     CL28264   9.312   5.899  25.472 -0.3252  0.1692  0.3012
23865ION     CL28265  23.470   1.963   4.480 -0.0390  0.2551  0.2409
23866ION     CL28266   2.000   2.977  22.381 -0.2890 -0.2347  0.3246
23867ION     CL28267   6.233   5.896  24.947  0.0987 -0.1756  0.3852
23868ION     CL28268  28.604   2.503  19.972 -0.0271  0.1130 -0.2794
23869ION     CL28269  12.953   7.105   8.362  0.2540 -0.2289 -0.0293
23870ION     CL28270  10.439   2.968  10.311  0.0118  0.1783  0.4341
23871ION     CL28271  20.114   5.833  20.331  0.0885 -0.4731  0.4205
23872ION     CL28272  28.120   5.677  26.087 -0.0897 -0.6511 -0.0858
23873ION     CL28273  22.261   5.117  21.657  0.2429 -0.0568  0.3763
23874ION     CL28274   1.279   4.335  22.781  0.2047 -0.5685 -0.4546
23875ION     CL28275  15.869   1.874   9.885 -0.1267 -0.0735  0.2163
23876ION     CL28276  28.890   5.601  21.299  0.0252 -0.2044  0.2202
23877ION     CL28277   6.748   4.929   3.877  0.0516  0.2456  0.1521
23878ION     CL28278  22.393   1.696  16.798  0.4693  0.0410 -0.0573
23879ION     CL28279  30.047   4.477   4.941  0.6178 -0.1821  0.1654
23880ION     CL28280   3.609   3.142   8.286 -0.2296  0.0090 -0.0970
23881ION     CL28281   3.041   4.058  16.798  0.4898 -0.0964 -0.0965
23882ION     CL28282  23.619   2.795   4.063 -0.0816  0.4081 -0.0375
23883ION     CL28283  29.301   1.895   8.750  0.0263 -0.3342 -0.2349
23884ION     CL28284  30.582   0.832  23.049  0.1042 -0.1502 -0.1041
23885ION     CL28285   2.231   2.821  16.936  0.0204  0.1802 -0.3889
23886ION     CL28286  22.507   2.542  26.121  0.2522 -0.2620 -0.1800
23887ION     CL28287  20.957   0.864  19.343 -0.2187  0.2439 -0.0025
23888ION     CL28288  25.978   3.619  24.847 -0.0461  0.1389 -0.3445
23889ION     CL28289  20.054   0.766   5.248 -0.1850  0.5987  0.0929
23890ION     CL28290  20.018   7.214   2.813 -0.2945 -0.3377  0.5806
23891ION     CL28291  20.728   2.084   5.951  0.3291 -0.1807  0.2198
23892ION     CL28292  18.442   2.225  17.626 -0.2841 -0.1887 -0.0526
23893ION     CL28293  23.752   1.785   1.114  0.2829  0.1609  0.0524
23894ION     CL28294  18.086   0.177  25.040 -0.0686  0.3012 -0.2621
23895ION     CL28295  24.311   0.696   8.105 -0.1034 -0.1650  0.0669
23896ION     CL28296  24.732   7.545  17.596  0.2108 -0.2714 -0.0415
23897ION     CL28297  27.336   3.667  24.557 -0.2992  0.1242  0.0905
23898ION     CL28298  19.836   0.909   1.043  0.1536  0.3960 -0.0523
23899ION     CL28299  23.303   6.441   1.178 -0.0089 -0.0393 -0.1884
23900ION     CL28300  30.725   3.076   5.391 -0.2434  0.0248  0.0982
23901ION     CL28301  19.207   2.846   1.217 -0.3354 -0.1739 -0.1118
23902ION     CL28302  27.288   5.758  17.491 -0.2111  0.1661  0.0742
23903ION     CL28303   7.555   1.757  18.936 -0.5657 -0.3301 -0.1959
23904ION     CL28304  26.368   5.634  22.667  0.0507 -0.2781  0.2204
23905ION     CL28305  30.769   3.141  24.134  0.1518  0.0764 -0.2084
23906ION     CL28306   1.896   0.990   5.717  0.1393  0.0046 -0.4440
23907ION     CL28307  25.086   3.767  16.818  0.0702 -0.2025 -0.2864
23908ION     CL28308  19.888   3.051   9.317  0.1706  0.0541  0.0291
23909ION     CL28309  15.527   6.353  20.027 -0.0882  0.2681  0.2872
23910ION     CL28310  19.531   1.090  24.700  0.0170  0.0463 -0.2549
23911ION     CL28311  28.207   7.281   8.480  0.4061 -0.0167 -0.2361
23912ION     CL28312  26.129   7.515  19.288  0.0008  0.1123  0.0842
23913ION     CL28313  21.608   4.419   7.461 -0.0258  0.0293 -0.4497
23914ION     CL28314  20.205   7.095  16.436 -0.2219  0.0891 -0.1342
23915ION     CL28315   7.917   1.427  15.966  0.2132  0.2325  0.1290
23916ION     CL28316  26.688   6.173   2.920  0.1985 -0.1562  0.2648
23917ION     CL28317   3.007   2.080  21.341 -0.3527 -0.0209 -0.2687
23918ION     CL28318  15.381   1.126   4.046  0.1237 -0.1760  0.2312
23919ION     CL28319  19.988   3.438   7.801  0.1522  0.3181  0.0228
23920ION     CL28320  10.320   1.661   5.849  0.3867  0.4518  0.2011
23921ION     CL28321  20.701   2.374  25.401 -0.0409  0.3161 -0.0864
23922ION     CL28322  17.106   2.114  25.009 -0.0737 -0.0724  0.1277
23923ION     CL28323  22.400   1.398  26.163 -0.3311  0.2750  0.2631
23924ION     CL28324  21.434   2.214   0.152 -0.2153 -0.0437  0.5174
23925ION     CL28325   4.615   3.104  19.042  0.1175  0.2418 -0.0296
23926ION     CL28326  10.082   3.424  16.353 -0.0954  0.0298 -0.0140
23927ION     CL28327  25.940   0.913   8.771 -0.1386  0.1354 -0.0228
23928ION     CL28328   5.615   6.346   4.959  0.1942  0.0507 -0.1179
23929ION     CL28329  28.809   3.865   1.877  0.1563  0.3082 -0.3758
23930ION     CL28330  16.595   1.112  22.146 -0.4807  0.1464  0.0290
23931ION     CL28331  27.015   3.274  10.201 -0.4365 -0.5121 -0.0825
23932ION     CL28332   3.641   7.771   5.859  0.5043  0.2533  0.0645
23933ION     CL28333  13.509   0.775   9.001  0.4105 -0.0535 -0.0331
23934ION     CL28334   2.501   5.228  17.940 -0.1351 -0.2491 -0.5288
23935ION     CL28335  22.218   4.180   1.696 -0.0907 -0.2360 -0.1799
23936ION     CL28336  28.514   3.100   0.186 -0.2369  0.3053 -0.1112
23937ION     CL28337  22.157   7.817   5.775 -0.0512  0.1466 -0.5291
23938ION     CL28338  10.889   1.880   6.283  0.3711  0.1088  0.0195
23939ION     CL28339  16.718   5.066   7.440  0.0441 -0.4573 -0.0771
23940ION     CL28340  13.918   4.182   0.604 -0.0902 -0.1438  0.1123
23941ION     CL28341   0.133   6.839  10.739 -0.0834 -0.0426 -0.7172
23942ION     CL28342  28.231   7.606   2.944  0.3417  0.1466  0.2962
23943ION     CL28343  24.227   5.313  17.347 -0.3720  0.1719 -0.0231
23944ION     CL28344  15.370   7.062   1.332  0.0922  0.2112 -0.0411
23945ION     CL28345   5.980   3.770   4.638  0.3885  0.2311 -0.0905
23946ION     CL28346  18.305   1.720  21.025  0.3650 -0.0824  0.1710
23947ION     CL28347  13.791   2.148  25.633 -0.1884 -0.5050  0.1119
23948ION     CL28348  29.280   5.536  25.658 -0.0580 -0.2957 -0.0055
23949ION     CL28349   6.541   0.337  22.426 -0.1343  0.1718 -0.3093
23950ION     CL28350  13.102   2.212  16.087  0.1860  0.2685 -0.2142
23951ION     CL28351  13.089   6.644  18.995  0.2043 -0.0665  0.0472
23952ION     CL28352  14.179   6.878  16.292  0.0726 -0.4780 -0.1834
23953ION     CL28353  10.904   0.311   8.435 -0.3434 -0.2820  0.3687
23954ION     CL28354   0.686   6.708  23.591  0.2325 -0.3829  0.3027
23955ION     CL28355  30.786   3.757  10.812 -0.1339  0.0920 -0.4700
23956ION     CL28356  30.045   4.633  18.228  0.4345 -0.4197 -0.1654
23957ION     CL28357   7.567   0.533  10.206  0.0506  0.4739 -0.1377
23958ION     CL28358  29.561   3.172   0.775  0.0535 -0.0876 -0.1099
23959ION     CL28359  12.207   2.529  18.891 -0.2578  0.3325 -0.1916
23960ION     CL28360   3.279   3.871  20.263 -0.0776 -0.0370 -0.3642
23961ION     CL28361   7.034   7.357   9.929 -0.3214 -0.0763  0.2669
23962ION     CL28362  21.328   6.840   1.774 -0.2468 -0.2068 -0.2465
23963ION     CL28363  26.079   2.959   2.483 -0.0043 -0.2010  0.1356
23964ION     CL28364  19.945   5.592   4.978 -0.0224  0.0440  0.0608
23965ION     CL28365  17.701   5.808   9.869 -0.1575  0.0891 -0.0501
23966ION     CL28366   3.112   1.471   7.664  0.1162  0.3463  0.2683
23967ION     CL28367  29.635   2.925  21.810 -0.1638  0.0730 -0.0345
23968ION     CL28368   9.574   2.478   0.177  0.0595  0.1214 -0.0910
23969ION     CL28369   2.635   5.490  19.476  0.0518 -0.2810 -0.3643
23970ION     CL28370  27.554   5.992  18.295  0.1929  0.0216  0.0982
23971ION     CL28371  11.130   2.106   1.225  0.0771 -0.5924  0.2471
23972ION     CL28372   1.174   2.455  16.663 -0.2948 -0.0214 -0.0193
23973ION     CL28373   6.893   0.916   0.655 -0.4874 -0.0027 -0.3232
23974ION     CL28374  20.151   7.045   6.857  0.3250  0.0215 -0.4310
23975DOPC   NC328375  28.456   4.425  14.718 -0.3050  0.3963 -0.1506
23975DOPC   PO428376  28.721   4.615  14.968 -0.0663 -0.1330  0.1637
23975DOPC   GL128377  28.847   4.691  14.632  0.0320 -0.0031  0.2144
23975DOPC   GL228378  29.163   4.779  14.738  0.0575  0.0867 -0.5253
23975DOPC   C1A28379  28.551   4.637  14.294  0.2013 -0.1162  0.3864
23975DOPC   D2A28380  28.246   4.519  13.909 -0.2925 -0.0094 -0.0684
23975DOPC   C3A28381  28.055   4.483  13.501 -0.0476  0.0896  0.0243
23975DOPC   C4A28382  28.184   4.588  13.102  0.0213 -0.1720 -0.0350
23975DOPC   C1B28383  29.239   5.011  14.429 -0.0074 -0.0023  0.1300
23975DOPC   D2B28384  29.566   5.416  14.427  0.0904  0.0552  0.1692
23975DOPC   C3B28385  30.050   5.406  14.535 -0.1771 -0.0047  0.2567
23975DOPC   C4B28386  30.423   5.337  14.853 -0.2917  0.1071 -0.2043
23976DOPC   NC328387   3.599   6.073  15.485 -0.0935  0.1863  0.5009
23976DOPC   PO428388   3.835   6.447  15.519  0.0363  0.3198  0.2083
23976DOPC   GL128389   3.928   6.532  15.171 -0.0293  0.4970 -0.1599
23976DOPC   GL228390   3.907   6.872  15.160  0.0813  0.0725  0.0422
23976DOPC   C1A28391   3.680   6.441  14.891 -0.1058  0.0171  0.0272
23976DOPC   D2A28392   3.699   6.269  14.451  0.0205 -0.0644  0.0553
23976DOPC   C3A28393   3.460   6.422  14.064 -0.2704 -0.0577 -0.3810
23976DOPC   C4A28394   3.244   6.210  13.650  0.0730  0.1154  0.2353
23976DOPC   C1B28395   3.555   7.083  15.088 -0.0732  0.0154  0.1354
23976DOPC   D2B28396   3.057   7.114  15.004 -0.2146  0.2125  0.0534
23976DOPC   C3B28397   2.669   6.956  14.770  0.0904 -0.0016  0.0087
23976DOPC   C4B28398   2.243   6.860  14.592 -0.2303 -0.4239 -0.4190
23977DOPC   NC328399  31.082   0.590  16.030  0.0881 -0.1275  0.1302
23977DOPC   PO428400  31.444   0.453  15.986  0.2890  0.0488  0.5825
23977DOPC   GL128401  31.881   0.471  15.670  0.1971  0.2880 -0.2345
23977DOPC   GL228402  31.716   0.530  15.528 -0.3275 -0.1539 -0.1288
23977DOPC   C1A28403  32.209   0.410  15.413  0.1497  0.1299  0.0237
23977DOPC   D2A28404  32.227   0.581  14.937  0.3261 -0.1650 -0.4102
23977DOPC   C3A28405  32.256   0.432  14.467  0.1928 -0.3197 -0.0770
23977DOPC   C4A28406  32.318   0.151  14.027  0.2594  0.0681  0.3420
23977DOPC   C1B28407  31.777   0.557  15.134 -0.3329 -0.0740 -0.3013
23977DOPC   D2B28408  31.760   0.371  14.663 -0.2232  0.2650 -0.1700
23977DOPC   C3B28409  31.839   0.251  14.204 -0.0812 -0.0336 -0.0730
23977DOPC   C4B28410  31.818   0.347  13.708  0.1771 -0.1435  0.1117
23978DOPC   NC328411  24.704   5.946  15.012 -0.4045 -0.1842 -0.2790
23978DOPC   PO428412  24.562   5.550  15.047  0.0453 -0.2166  0.1362
23978DOPC   GL128413  24.450   5.399  14.677  0.1477 -0.1859  0.1742
23978DOPC   GL228414  24.216   5.330  14.743  0.0218 -0.2038 -0.1310
23978DOPC   C1A28415  24.681   5.398  14.280  0.3382  0.0703  0.4385
23978DOPC   D2A28416  24.668   5.605  13.832  0.1267 -0.1895 -0.1351
23978DOPC   C3A28417  24.446   5.720  13.478 -0.0933  0.0538  0.3099
23978DOPC   C4A28418  24.210   5.902  13.051  0.3419  0.2131 -0.1286
23978DOPC   C1B28419  24.077   5.360  14.298  0.0935 -0.0166 -0.1685
23978DOPC   D2B28420  24.026   5.363  13.718  0.0574  0.0753  0.1646
23978DOPC   C3B28421  23.881   5.495  13.300 -0.1813  0.0056 -0.1705
23978DOPC   C4B28422  23.460   5.623  13.238  0.5202 -0.1496 -0.0650
23979DOPC   NC328423  11.427   3.557  15.413  0.1461 -0.0422  0.1788
23979DOPC   PO428424  11.436   3.963  15.394  0.1353  0.0791  0.0747
23979DOPC   GL128425  11.557   3.983  15.009 -0.1706  0.1036  0.3530
23979DOPC   GL228426  11.799   4.140  15.060  0.3002 -0.3028 -0.3591
23979DOPC   C1A28427  11.671   3.910  14.552 -0.0422 -0.0853  0.1215
23979DOPC   D2A28428  11.861   3.980  14.138  0.0074 -0.1688  0.0836
23979DOPC   C3A28429  11.919   3.929  13.647 -0.2752 -0.1161 -0.1264
23979DOPC   C4A28430  12.130   3.998  13.211 -0.0845  0.0269 -0.0527
23979DOPC   C1B28431  11.785   4.402  14.661  0.2516  0.0530  0.0451
23979DOPC   D2B28432  11.873   4.446  14.193  0.1712  0.1309  0.1067
23979DOPC   C3B28433  12.265   4.375  13.930  0.2892  0.0447 -0.0340
23979DOPC   C4B28434  12.420   3.986  13.645 -0.1254 -0.1754  0.3629
23980DOPC   NC328435  17.245   5.508  15.147 -0.4560 -0.0932 -0.4520
23980DOPC   PO428436  17.174   5.825  14.906  0.2038 -0.1275 -0.1104
23980DOPC   GL128437  16.933   5.748  14.553 -0.0627 -0.0862 -0.5393
23980DOPC   GL228438  17.201   5.774  14.436  0.2004  0.0143  0.1318
23980DOPC   C1A28439  16.792   5.607  14.165 -0.0155 -0.0102  0.5243
23980DOPC   D2A28440  16.799   5.429  13.717  0.3346  0.2476 -0.0903
23980DOPC   C3A28441  16.397   5.637  13.601 -0.3231 -0.3225  0.0123
23980DOPC   C4A28442  16.013   5.879  13.376 -0.2829 -0.1811  0.0551
23980DOPC   C1B28443  17.349   5.804  14.089  0.1617 -0.2629  0.0815
23980DOPC   D2B28444  17.259   5.845  13.602 -0.0791 -0.0351  0.1339
23980DOPC   C3B28445  17.012   5.637  13.265  0.2526  0.0895 -0.3657
23980DOPC   C4B28446  16.675   5.247  13.064 -0.1794 -0.3629  0.0050
23981DOPC   NC328447   0.852   1.793  15.067 -0.1290 -0.2745 -0.0389
23981DOPC   PO428448   1.169   1.885  15.299 -0.0988  0.0617  0.0938
23981DOPC   GL128449   1.318   2.027  14.978  0.0233  0.4457  0.1696
23981DOPC   GL228450   1.203   1.851  14.771 -0.1377  0.2116 -0.3122
23981DOPC   C1A28451   1.397   2.375  14.835 -0.2079 -0.2222  0.0396
23981DOPC   D2A28452   1.584   2.680  14.567 -0.0726  0.3442  0.0164
23981DOPC   C3A28453   1.739   2.639  14.103 -0.0189 -0.1513  0.1984
23981DOPC   C4A28454   1.673   2.272  13.755  0.2105  0.4553 -0.2220
23981DOPC   C1B28455   1.292   1.748  14.333 -0.0588 -0.1877  0.1589
23981DOPC   D2B28456   1.187   1.551  13.868 -0.3544 -0.1085 -0.1288
23981DOPC   C3B28457   1.269   1.450  13.406 -0.2574 -0.0853  0.0861
23981DOPC   C4B28458   1.622   1.399  13.096 -0.3710 -0.0095  0.1184
23982DOPC   NC328459  24.988   6.311  14.878 -0.2306 -0.0791 -0.1250
23982DOPC   PO428460  25.194   5.964  14.860  0.1118  0.1089 -0.2981
23982DOPC   GL128461  25.244   5.861  14.461  0.1608  0.0756  0.0121
23982DOPC   GL228462  25.232   6.176  14.408  0.0951  0.2608 -0.1015
23982DOPC   C1A28463  25.560   5.722  14.152 -0.1807  0.1707  0.0442
23982DOPC   D2A28464  25.705   5.353  13.967  0.0692 -0.0462  0.3148
23982DOPC   C3A28465  25.486   5.188  13.600 -0.0750  0.1505 -0.0535
23982DOPC   C4A28466  25.180   5.036  13.243  0.0286  0.1305  0.2050
23982DOPC   C1B28467  25.369   6.186  13.958  0.1002  0.1064  0.3002
23982DOPC   D2B28468  25.620   5.997  13.533 -0.1210  0.0126  0.0780
23982DOPC   C3B28469  25.922   5.803  13.233 -0.1229 -0.0452  0.3274
23982DOPC   C4B28470  26.175   6.046  12.918 -0.1368  0.0075  0.3727
23983DOPC   NC328471  21.241   4.436  14.426 -0.0182  0.0491  0.2946
23983DOPC   PO428472  21.029   4.756  14.611  0.0324 -0.0426 -0.0701
23983DOPC   GL128473  20.821   5.043  14.335  0.2381  0.0164  0.1034
23983DOPC   GL228474  21.046   4.960  14.161  0.2182 -0.1930 -0.0990
23983DOPC   C1A28475  20.634   4.989  13.956  0.0081  0.0458 -0.0363
23983DOPC   D2A28476  20.474   4.939  13.459 -0.3514 -0.0857  0.0588
23983DOPC   C3A28477  20.622   5.384  13.189  0.0280 -0.2306  0.5345
23983DOPC   C4A28478  20.743   5.896  13.187 -0.0999  0.2911  0.0858
23983DOPC   C1B28479  21.338   5.242  13.943  0.0409  0.3075 -0.0057
23983DOPC   D2B28480  21.497   5.334  13.515 -0.0656 -0.5009 -0.4758
23983DOPC   C3B28481  21.462   5.467  13.114  0.0210  0.1525 -0.1129
23983DOPC   C4B28482  21.535   5.270  12.645 -0.0777  0.1649  0.0114
23984DOPC   NC328483  26.696   6.166  14.664  0.0838  0.0646  0.2021
23984DOPC   PO428484  27.008   6.342  14.797 -0.5490  0.0427 -0.0871
23984DOPC   GL128485  27.330   6.441  14.482  0.2829  0.1650  0.0670
23984DOPC   GL228486  27.025   6.657  14.441 -0.3929  0.2264  0.0326
23984DOPC   C1A28487  27.503   6.807  14.455 -0.0620 -0.0199 -0.0895
23984DOPC   D2A28488  27.870   7.124  14.430  0.1596 -0.2282 -0.1377
23984DOPC   C3A28489  27.957   7.548  14.357 -0.0894 -0.0586  0.0796
23984DOPC   C4A28490  28.044   8.041  14.432  0.1243 -0.0403 -0.2811
23984DOPC   C1B28491  26.821   6.578  14.014  0.0190  0.1322 -0.0057
23984DOPC   D2B28492  26.666   6.461  13.563  0.0842  0.0018 -0.4220
23984DOPC   C3B28493  26.519   6.587  13.181 -0.0184 -0.0660 -0.0762
23984DOPC   C4B28494  26.314   6.550  12.715  0.0768  0.0207 -0.0080
23985DOPC   NC328495  16.188   1.873  14.956  0.0964 -0.2352  0.1477
23985DOPC   PO428496  16.405   2.233  14.809  0.1673 -0.1550  0.1967
23985DOPC   GL128497  16.219   2.404  14.445  0.1721  0.0145 -0.1244
23985DOPC   GL228498  16.204   2.088  14.386 -0.1766  0.0598  0.1657
23985DOPC   C1A28499  16.329   2.321  13.978  0.1394  0.1687 -0.1789
23985DOPC   D2A28500  16.607   1.985  13.672  0.0691 -0.1219 -0.1516
23985DOPC   C3A28501  16.353   2.085  13.273 -0.1141  0.4795 -0.0349
23985DOPC   C4A28502  16.183   2.094  12.864 -0.0407  0.0461  0.2138
23985DOPC   C1B28503  16.411   1.850  14.106  0.0642 -0.2118  0.2409
23985DOPC   D2B28504  16.694   1.492  13.867  0.0363  0.2737  0.2290
23985DOPC   C3B28505  16.687   1.093  13.532 -0.2036 -0.1631 -0.3640
23985DOPC   C4B28506  17.126   0.814  13.588  0.1065 -0.1869  0.2965
23986DOPC   NC328507   9.899   7.315  15.086  0.0220  0.2418 -0.0406
23986DOPC   PO428508   9.550   7.109  15.034 -0.2172  0.2475 -0.1530
23986DOPC   GL128509   9.544   6.962  14.633  0.3218  0.0343 -0.0427
23986DOPC   GL228510   9.368   6.730  14.702 -0.1452 -0.0648  0.3610
23986DOPC   C1A28511   9.317   7.283  14.323  0.0789  0.3621  0.2724
23986DOPC   D2A28512   9.024   7.630  14.103 -0.0353  0.0109  0.0416
23986DOPC   C3A28513   9.042   7.799  13.674  0.2863 -0.4133 -0.0003
23986DOPC   C4A28514   9.242   8.026  13.302 -0.0402 -0.2401 -0.0827
23986DOPC   C1B28515   9.039   6.727  14.408  0.2409  0.2067 -0.1695
23986DOPC   D2B28516   8.808   6.580  13.961  0.1802 -0.3934  0.1770
23986DOPC   C3B28517   8.850   6.788  13.556 -0.1245 -0.0131  0.2933
23986DOPC   C4B28518   8.711   6.994  13.195  0.1601  0.0854  0.2009
23987DOPC   NC328519  30.477   1.049  15.586  0.0437 -0.1769  0.1345
23987DOPC   PO428520  30.758   0.747  15.621  0.1655  0.2018  0.2372
23987DOPC   GL128521  30.851   0.515  15.308  0.2569  0.3135 -0.1848
23987DOPC   GL228522  31.054   0.748  15.285  0.2381  0.0323  0.1144
23987DOPC   C1A28523  31.026   0.048  15.249 -0.0573 -0.0444 -0.1163
23987DOPC   D2A28524  31.313  -0.322  15.204 -0.3379  0.0959 -0.0694
23987DOPC   C3A28525  31.586  -0.747  15.208  0.3349  0.1329 -0.1642
23987DOPC   C4A28526  31.994  -1.089  15.156  0.4825 -0.3738  0.2371
23987DOPC   C1B28527  31.362   0.692  14.948 -0.0849  0.2871 -0.1631
23987DOPC   D2B28528  31.784   0.914  14.755  0.4239 -0.1342 -0.0982
23987DOPC   C3B28529  31.998   0.842  14.333  0.0457  0.0293  0.0963
23987DOPC   C4B28530  32.229   0.646  13.948 -0.3203  0.1418 -0.2226
23988DOPC   NC328531  16.346   3.953  15.241  0.0342 -0.1506 -0.0336
23988DOPC   PO428532  16.149   4.070  14.897  0.2896  0.0622  0.1397
23988DOPC   GL128533  16.047   4.127  14.422  0.1715  0.0325  0.2410
23988DOPC   GL228534  16.154   4.372  14.359  0.3667 -0.2497  0.3513
23988DOPC   C1A28535  15.991   3.926  14.008 -0.0046 -0.2446 -0.0376
23988DOPC   D2A28536  16.041   3.993  13.545 -0.0690 -0.0611  0.2944
23988DOPC   C3A28537  15.963   4.284  13.161  0.2212  0.1118  0.2690
23988DOPC   C4A28538  16.122   4.574  12.721  0.0079  0.0782 -0.0851
23988DOPC   C1B28539  16.352   4.402  13.980 -0.1486 -0.0263 -0.2616
23988DOPC   D2B28540  16.532   4.338  13.456 -0.0068  0.1223 -0.2447
23988DOPC   C3B28541  16.513   4.001  13.199  0.0745 -0.1856 -0.1477
23988DOPC   C4B28542  16.728   3.629  12.916  0.3023  0.1886  0.0969
23989DOPC   NC328543  11.576   7.328  14.856  0.2941  0.1071  0.0491
23989DOPC   PO428544  11.758   6.985  14.749  0.0039 -0.2123 -0.1526
23989DOPC   GL128545  12.052   7.030  14.477  0.0263  0.0016  0.1663
23989DOPC   GL228546  12.179   6.937  14.660 -0.0298 -0.1833 -0.0739
23989DOPC   C1A28547  12.135   7.072  14.036 -0.2756 -0.1121  0.2182
23989DOPC   D2A28548  12.396   7.249  13.652 -0.2650 -0.2305 -0.0611
23989DOPC   C3A28549  12.448   7.211  13.168 -0.1104  0.0783  0.3614
23989DOPC   C4A28550  12.730   7.265  12.770 -0.1134  0.3023 -0.1991
23989DOPC   C1B28551  12.489   6.933  14.397 -0.1246  0.1322 -0.1581
23989DOPC   D2B28552  12.749   6.734  14.063 -0.2149 -0.1633 -0.1475
23989DOPC   C3B28553  12.733   6.535  13.609 -0.2168  0.2657  0.0881
23989DOPC   C4B28554  12.688   6.195  13.298 -0.2047  0.1560 -0.1125
23990DOPC   NC328555  30.239   7.181  15.518  0.0538 -0.1214 -0.1201
23990DOPC   PO428556  30.394   7.571  15.546  0.0535 -0.2644 -0.0532
23990DOPC   GL128557  30.424   7.848  15.269 -0.0442 -0.0186  0.0252
23990DOPC   GL228558  30.397   7.612  15.064 -0.1167 -0.1043 -0.2251
23990DOPC   C1A28559  30.639   8.122  14.985 -0.1327 -0.3957  0.0044
23990DOPC   D2A28560  30.874   8.446  14.746 -0.0579  0.1800 -0.0400
23990DOPC   C3A28561  31.008   8.638  14.353 -0.1723 -0.3133  0.0384
23990DOPC   C4A28562  31.114   8.951  13.989  0.0247  0.3236 -0.2414
23990DOPC   C1B28563  30.785   7.558  14.876 -0.1000  0.2593  0.0452
23990DOPC   D2B28564  31.182   7.594  14.616 -0.2208  0.2261 -0.1141
23990DOPC   C3B28565  31.553   7.364  14.774 -0.0559  0.1169  0.1746
23990DOPC   C4B28566  31.990   7.335  14.959 -0.1439  0.0004 -0.0312
23991DOPC   NC328567  25.515   3.167  15.294 -0.0890 -0.2968 -0.1651
23991DOPC   PO428568  25.403   2.861  15.133  0.1141 -0.1481 -0.0728
23991DOPC   GL128569  25.304   3.119  14.823 -0.2869 -0.1805 -0.1242
23991DOPC   GL228570  25.189   3.312  14.979 -0.0096  0.1877  0.2015
23991DOPC   C1A28571  25.220   3.108  14.404  0.0474 -0.1880 -0.2065
23991DOPC   D2A28572  24.993   3.180  13.980 -0.0222  0.1658  0.0128
23991DOPC   C3A28573  24.730   3.127  13.574  0.4144 -0.2391  0.2185
23991DOPC   C4A28574  24.704   2.809  13.231  0.0918 -0.0621  0.0221
23991DOPC   C1B28575  24.854   3.489  14.739  0.1278 -0.1692  0.0068
23991DOPC   D2B28576  24.666   3.531  14.315  0.1674  0.1895 -0.0135
23991DOPC   C3B28577  24.658   3.640  13.879  0.1205  0.4012 -0.2730
23991DOPC   C4B28578  24.541   3.581  13.415 -0.0519  0.3098  0.4595
23992DOPC   NC328579  17.085   4.787  14.899 -0.0266  0.0676  0.1196
23992DOPC   PO428580  17.355   4.754  14.578  0.1315 -0.2836 -0.3019
23992DOPC   GL128581  17.467   4.879  14.220  0.2470  0.2838 -0.3093
23992DOPC   GL228582  17.247   4.756  14.152 -0.2540 -0.0080  0.0348
23992DOPC   C1A28583  17.705   4.882  13.855  0.1697  0.0269 -0.2003
23992DOPC   D2A28584  17.682   5.027  13.361  0.0237 -0.2574 -0.0094
23992DOPC   C3A28585  17.755   5.159  12.920  0.0669 -0.1620  0.0999
23992DOPC   C4A28586  18.156   4.965  12.625  0.0785 -0.2050  0.0324
23992DOPC   C1B28587  17.292   4.637  13.731 -0.1748  0.1692  0.3343
23992DOPC   D2B28588  17.381   4.642  13.215 -0.0506  0.0403  0.0719
23992DOPC   C3B28589  17.791   4.648  12.965 -0.1855  0.1045 -0.2687
23992DOPC   C4B28590  18.072   4.477  12.688  0.6771  0.1249  0.2039
23993DOPC   NC328591  14.263   2.619  15.550  0.0231 -0.0209 -0.4324
23993DOPC   PO428592  14.223   2.772  15.186  0.2993 -0.0223 -0.3435
23993DOPC   GL128593  14.517   2.780  14.853 -0.1066  0.0594  0.1483
23993DOPC   GL228594  14.471   3.086  14.920 -0.1335 -0.1197  0.0625
23993DOPC   C1A28595  14.454   2.471  14.498 -0.0432  0.0419 -0.3698
23993DOPC   D2A28596  14.374   2.166  14.097  0.1949  0.0257  0.0865
23993DOPC   C3A28597  14.512   2.105  13.712  0.2585 -0.0250 -0.4108
23993DOPC   C4A28598  14.580   1.989  13.245 -0.1622  0.0708  0.0058
23993DOPC   C1B28599  14.391   3.014  14.510 -0.2582 -0.2008 -0.0591
23993DOPC   D2B28600  14.520   2.803  14.073  0.0182  0.0087  0.0650
23993DOPC   C3B28601  14.300   2.659  13.661  0.0890  0.3614 -0.1333
23993DOPC   C4B28602  14.212   2.340  13.266  0.0913 -0.0769  0.1495
23994DOPC   NC328603   1.714   4.180  15.693 -0.1134 -0.0448  0.1350
23994DOPC   PO428604   1.530   4.525  15.562  0.1691 -0.3550  0.0198
23994DOPC   GL128605   1.402   4.455  15.131  0.1461 -0.4804 -0.0821
23994DOPC   GL228606   1.115   4.549  15.219  0.1052  0.1111  0.0391
23994DOPC   C1A28607   1.700   4.597  14.743  0.1114 -0.0486  0.2338
23994DOPC   D2A28608   1.684   4.928  14.362  0.0659 -0.1624  0.1164
23994DOPC   C3A28609   1.558   5.195  14.032  0.0561 -0.3013  0.0817
23994DOPC   C4A28610   1.299   5.559  13.822 -0.3507  0.0899 -0.3532
23994DOPC   C1B28611   1.094   4.972  15.153  0.0153  0.1869  0.2303
23994DOPC   D2B28612   1.110   5.419  14.933  0.5178 -0.1553 -0.1945
23994DOPC   C3B28613   0.774   5.838  14.873 -0.1825  0.0557  0.2717
23994DOPC   C4B28614   0.326   5.953  14.716  0.0154 -0.1367  0.1069
23995DOPC   NC328615  17.340   2.651  14.960  0.2104  0.1334 -0.0188
23995DOPC   PO428616  17.231   2.973  14.777 -0.0363 -0.4955 -0.1960
23995DOPC   GL128617  17.108   2.971  14.381 -0.0713  0.1089  0.1999
23995DOPC   GL228618  16.920   2.756  14.402  0.0592 -0.0892  0.0212
23995DOPC   C1A28619  17.091   3.355  14.107  0.0244  0.1620  0.1409
23995DOPC   D2A28620  17.344   3.414  13.654 -0.0758 -0.1416 -0.0625
23995DOPC   C3A28621  17.644   3.101  13.333  0.1787  0.0390 -0.3247
23995DOPC   C4A28622  17.959   2.853  12.974 -0.0783 -0.1740  0.0610
23995DOPC   C1B28623  16.569   2.724  14.099 -0.1183  0.0648 -0.0952
23995DOPC   D2B28624  16.652   2.549  13.631 -0.0713 -0.2919  0.1495
23995DOPC   C3B28625  16.967   2.410  13.263 -0.1673 -0.0572  0.0930
23995DOPC   C4B28626  17.162   2.150  12.902 -0.1515 -0.1038  0.0196
23996DOPC   NC328627   3.110   5.165  15.896 -0.0657 -0.0486 -0.2066
23996DOPC   PO428628   2.926   4.882  15.785 -0.1038  0.0011 -0.1006
23996DOPC   GL128629   2.889   4.820  15.401  0.5782 -0.4241  0.2628
23996DOPC   GL228630   2.943   5.118  15.316 -0.0784 -0.5313 -0.2864
23996DOPC   C1A28631   3.029   4.551  15.050 -0.0815 -0.0514 -0.2122
23996DOPC   D2A28632   3.150   4.412  14.560 -0.0297  0.0592 -0.0912
23996DOPC   C3A28633   3.205   4.347  14.106 -0.3205 -0.1020  0.1936
23996DOPC   C4A28634   3.138   4.370  13.577  0.0712 -0.0950  0.2279
23996DOPC   C1B28635   2.966   5.333  14.878 -0.1883 -0.0293  0.0335
23996DOPC   D2B28636   2.982   5.385  14.378  0.2329  0.1664  0.1665
23996DOPC   C3B28637   2.991   5.244  13.917 -0.4258 -0.3001  0.1135
23996DOPC   C4B28638   2.960   4.963  13.485  0.1540  0.2001 -0.1177
23997DOPC   NC328639  10.328   6.767  14.573 -0.2096  0.3906 -0.2324
23997DOPC   PO428640  10.071   7.035  14.667  0.0877  0.0375  0.0640
23997DOPC   GL128641  10.064   7.298  14.439  0.2862 -0.0316 -0.3010
23997DOPC   GL228642  10.213   7.179  14.220 -0.1470 -0.1208 -0.0766
23997DOPC   C1A28643   9.781   7.488  14.139 -0.2150 -0.0469 -0.2945
23997DOPC   D2A28644   9.443   7.506  13.780  0.2173  0.1292  0.1155
23997DOPC   C3A28645   9.500   7.533  13.302 -0.3838 -0.0139 -0.1877
23997DOPC   C4A28646   9.630   7.857  12.969  0.1192  0.1077  0.3361
23997DOPC   C1B28647   9.887   7.058  13.891  0.2051 -0.0224 -0.4459
23997DOPC   D2B28648   9.510   6.875  13.623 -0.0722  0.0853  0.0327
23997DOPC   C3B28649   9.176   7.151  13.495 -0.1279  0.3903 -0.3261
23997DOPC   C4B28650   8.917   7.535  13.278  0.0207  0.1894  0.4662
23998DOPC   NC328651  25.437   5.244  14.938  0.1905  0.0790 -0.0333
23998DOPC   PO428652  25.829   5.093  14.877 -0.0093  0.2668  0.0972
23998DOPC   GL128653  25.875   4.934  14.534  0.4220  0.2645  0.3993
23998DOPC   GL228654  26.088   4.721  14.481 -0.2488 -0.0859 -0.1192
23998DOPC   C1A28655  25.420   4.953  14.417  0.5063  0.2026 -0.0331
23998DOPC   D2A28656  25.164   4.537  14.221  0.3495 -0.0220  0.1364
23998DOPC   C3A28657  24.720   4.514  14.301  0.2037  0.0833 -0.2187
23998DOPC   C4A28658  24.331   4.336  14.586  0.1682  0.0898 -0.1004
23998DOPC   C1B28659  26.009   4.789  14.062 -0.0427 -0.1288 -0.1877
23998DOPC   D2B28660  25.906   4.775  13.578  0.0916 -0.0701 -0.0842
23998DOPC   C3B28661  25.551   4.616  13.373  0.1155 -0.1821  0.0771
23998DOPC   C4B28662  25.268   4.608  12.988  0.2148 -0.4170  0.1598
23999DOPC   NC328663  27.163   6.840  14.837 -0.0512 -0.0517 -0.0127
23999DOPC   PO428664  27.118   7.224  14.937  0.2136  0.1777 -0.3225
23999DOPC   GL128665  27.261   7.572  14.744  0.2886 -0.3153 -0.1062
23999DOPC   GL228666  27.111   7.579  14.481 -0.0950  0.1517  0.1632
23999DOPC   C1A28667  27.681   7.523  14.796  0.0843  0.0028  0.5445
23999DOPC   D2A28668  28.136   7.737  14.817  0.2337  0.0903 -0.0542
23999DOPC   C3A28669  28.535   7.706  14.620  0.1193 -0.1468  0.1283
23999DOPC   C4A28670  28.897   7.759  14.287 -0.0562  0.0947  0.1978
23999DOPC   C1B28671  27.502   7.468  14.188  0.2224  0.1637 -0.0469
23999DOPC   D2B28672  27.877   7.266  13.895  0.1284  0.0835  0.1945
23999DOPC   C3B28673  28.163   7.196  13.508  0.3020 -0.0845 -0.0144
23999DOPC   C4B28674  28.442   7.380  13.128  0.0859  0.0260 -0.2882
24000DOPC   NC328675  19.150   4.773  14.843  0.0317  0.3039 -0.2003
24000DOPC   PO428676  19.341   5.158  14.857  0.1886  0.1160 -0.1807
24000DOPC   GL128677  19.444   5.432  14.496  0.1213  0.0638 -0.3793
24000DOPC   GL228678  19.601   5.649  14.657 -0.2125  0.0560 -0.2165
24000DOPC   C1A28679  19.219   5.355  14.119 -0.1744  0.0178 -0.2300
24000DOPC   D2A28680  18.912   5.368  13.767 -0.1012 -0.1143  0.0723
24000DOPC   C3A28681  18.800   5.599  13.421  0.3022 -0.1767  0.2726
24000DOPC   C4A28682  18.531   5.695  13.027  0.0493  0.2677 -0.1822
24000DOPC   C1B28683  19.716   5.898  14.301 -0.1854 -0.0671  0.0308
24000DOPC   D2B28684  19.882   5.880  13.893  0.1484  0.0924  0.2743
24000DOPC   C3B28685  19.801   5.878  13.422  0.2170 -0.2947  0.1062
24000DOPC   C4B28686  19.616   6.023  13.016  0.1810  0.2366  0.2572
24001DOPC   NC328687  20.588   4.122  14.794 -0.1072  0.0735  0.1624
24001DOPC   PO428688  20.556   4.508  14.715 -0.1908  0.1458  0.1127
24001DOPC   GL128689  20.535   4.642  14.294  0.1898 -0.5272 -0.0951
24001DOPC   GL228690  20.791   4.537  14.272 -0.1508 -0.1256 -0.2044
24001DOPC   C1A28691  20.382   4.493  13.957  0.1498 -0.5519 -0.0227
24001DOPC   D2A28692  20.262   4.497  13.465 -0.0653 -0.0208  0.1258
24001DOPC   C3A28693  19.960   4.285  13.184 -0.1788  0.0124  0.0339
24001DOPC   C4A28694  19.693   4.068  12.777 -0.0188  0.1037 -0.0488
24001DOPC   C1B28695  21.118   4.487  13.976 -0.0309 -0.1268  0.0290
24001DOPC   D2B28696  21.273   4.813  13.642  0.0311  0.4520  0.2145
24001DOPC   C3B28697  21.544   4.658  13.323 -0.0974 -0.1254  0.1314
24001DOPC   C4B28698  21.929   4.447  13.056  0.1291 -0.5095  0.0500
24002DOPC   NC328699  17.656   0.836  14.772  0.0170  0.1161  0.0244
24002DOPC   PO428700  17.617   0.462  14.577 -0.0183  0.1108  0.0010
24002DOPC   GL128701  17.471   0.320  14.191 -0.3433 -0.2035  0.2579
24002DOPC   GL228702  17.211   0.293  14.336 -0.2484  0.3284 -0.0792
24002DOPC   C1A28703  17.325   0.364  13.794  0.0535  0.0490  0.2682
24002DOPC   D2A28704  17.038   0.036  13.454  0.2058 -0.0275 -0.0480
24002DOPC   C3A28705  17.092   0.402  13.147  0.0967  0.1575 -0.2996
24002DOPC   C4A28706  16.932   0.876  13.084 -0.0318 -0.0625  0.0785
24002DOPC   C1B28707  17.139   0.003  14.081  0.1084 -0.2926  0.0373
24002DOPC   D2B28708  17.011  -0.461  13.983  0.0222  0.1998 -0.1481
24002DOPC   C3B28709  16.788  -0.519  13.593  0.2765 -0.0045  0.2840
24002DOPC   C4B28710  16.699  -0.486  13.090 -0.3705 -0.1848  0.2367
24003DOPC   NC328711  24.252   6.718  14.715  0.2475  0.1823 -0.1015
24003DOPC   PO428712  24.518   6.434  14.909 -0.0321 -0.0127 -0.1240
24003DOPC   GL128713  24.492   6.121  14.628  0.2082 -0.0569 -0.0710
24003DOPC   GL228714  24.730   6.114  14.549  0.0722 -0.1551 -0.1804
24003DOPC   C1A28715  24.152   6.267  14.419  0.0191  0.0459 -0.1028
24003DOPC   D2A28716  24.012   6.275  13.978 -0.0411 -0.0004  0.0064
24003DOPC   C3A28717  23.634   6.293  13.690 -0.1250 -0.0229 -0.0916
24003DOPC   C4A28718  23.309   6.095  13.454  0.0260  0.1112  0.0039
24003DOPC   C1B28719  24.905   5.895  14.182 -0.0511  0.2343 -0.4072
24003DOPC   D2B28720  25.181   5.738  13.756 -0.2188 -0.1311 -0.1105
24003DOPC   C3B28721  25.343   5.615  13.325  0.1352  0.2650  0.0298
24003DOPC   C4B28722  25.633   5.415  12.965  0.2296 -0.0831  0.3350
24004DOPC   NC328723  12.626   5.464  14.992 -0.3375 -0.2872 -0.1146
24004DOPC   PO428724  12.352   5.245  14.848 -0.1746 -0.0006 -0.1022
24004DOPC   GL128725  12.454   5.347  14.454  0.3731 -0.1347 -0.1073
24004DOPC   GL228726  12.517   5.008  14.408 -0.1092 -0.0504 -0.1844
24004DOPC   C1A28727  12.063   5.397  14.258 -0.1464 -0.0521  0.1614
24004DOPC   D2A28728  11.753   5.767  14.036 -0.0542  0.2503 -0.0608
24004DOPC   C3A28729  11.442   6.001  13.686  0.0191 -0.0586 -0.1835
24004DOPC   C4A28730  11.351   6.218  13.255 -0.1195 -0.1466  0.0244
24004DOPC   C1B28731  12.138   4.904  14.195  0.0875  0.0977  0.0008
24004DOPC   D2B28732  11.814   4.825  13.878  0.0618  0.1619  0.1774
24004DOPC   C3B28733  11.832   4.892  13.399 -0.1033 -0.0345  0.3447
24004DOPC   C4B28734  12.025   4.703  13.011  0.2006  0.1408  0.0481
24005DOPC   NC328735   0.456   1.464  15.912  0.0934 -0.1603  0.0260
24005DOPC   PO428736   0.808   1.438  15.695  0.0263  0.1540 -0.1922
24005DOPC   GL128737   0.813   1.422  15.324  0.2844  0.2111 -0.1445
24005DOPC   GL228738   1.142   1.411  15.232  0.3321 -0.2021  0.0257
24005DOPC   C1A28739   0.667   1.344  14.903  0.0989 -0.0500 -0.1113
24005DOPC   D2A28740   0.821   1.283  14.412  0.0517 -0.1039  0.2170
24005DOPC   C3A28741   0.984   1.128  14.063 -0.0737 -0.0242 -0.1485
24005DOPC   C4A28742   1.085   0.990  13.584 -0.2465  0.1752  0.0564
24005DOPC   C1B28743   1.161   1.400  14.813 -0.2035 -0.1974  0.1732
24005DOPC   D2B28744   1.500   1.271  14.470 -0.0396 -0.3674  0.1819
24005DOPC   C3B28745   1.508   1.161  13.973  0.0456 -0.2447  0.0821
24005DOPC   C4B28746   1.566   1.002  13.488  0.1098 -0.1629  0.0243
24006DOPC   NC328747  14.699   5.929  15.609 -0.0349  0.1096 -0.0149
24006DOPC   PO428748  14.839   5.676  15.316  0.1484  0.0340  0.2254
24006DOPC   GL128749  14.957   5.919  14.905  0.0647  0.1588 -0.2115
24006DOPC   GL228750  14.712   6.016  14.934 -0.0608  0.2300 -0.4327
24006DOPC   C1A28751  15.011   6.079  14.507  0.1523 -0.2204 -0.0573
24006DOPC   D2A28752  14.619   6.021  14.192 -0.1710 -0.2462  0.1459
24006DOPC   C3A28753  14.435   5.969  13.767 -0.1325  0.1364  0.3090
24006DOPC   C4A28754  14.442   5.895  13.277 -0.0592  0.1322 -0.0317
24006DOPC   C1B28755  14.461   5.864  14.629 -0.0425 -0.2816  0.2359
24006DOPC   D2B28756  14.219   5.660  14.266  0.1615  0.0016  0.0133
24006DOPC   C3B28757  14.261   5.440  13.908 -0.0307 -0.2236 -0.1148
24006DOPC   C4B28758  14.539   5.389  13.484  0.4151  0.2012 -0.3701
24007DOPC   NC328759  16.138   7.415  15.458  0.3073  0.0086 -0.1612
24007DOPC   PO428760  15.788   7.330  15.211  0.1255  0.0682  0.2089
24007DOPC   GL128761  15.699   7.435  14.766 -0.0206 -0.0966 -0.0529
24007DOPC   GL228762  15.602   7.167  14.700 -0.0736  0.0792  0.2499
24007DOPC   C1A28763  15.951   7.382  14.460 -0.1897  0.0341  0.2265
24007DOPC   D2A28764  16.417   7.290  14.215 -0.2203  0.2274  0.1985
24007DOPC   C3A28765  16.597   6.961  13.909 -0.0355 -0.2757 -0.1833
24007DOPC   C4A28766  16.388   6.513  13.738  0.1403 -0.1620 -0.1615
24007DOPC   C1B28767  15.297   7.113  14.367 -0.1795  0.4083 -0.4947
24007DOPC   D2B28768  15.054   7.016  14.019  0.0123  0.0118 -0.0002
24007DOPC   C3B28769  15.271   7.088  13.608 -0.1874 -0.1741  0.1518
24007DOPC   C4B28770  15.387   7.295  13.188  0.1414 -0.1812 -0.1640
24008DOPC   NC328771  14.664   4.287  14.626 -0.1376 -0.3848 -0.1361
24008DOPC   PO428772  14.506   4.205  14.982  0.3381 -0.1218  0.0239
24008DOPC   GL128773  14.720   3.847  14.883  0.2209 -0.2230 -0.0442
24008DOPC   GL228774  14.463   3.783  14.797  0.2224  0.0886  0.0114
24008DOPC   C1A28775  14.856   3.820  14.501 -0.4289 -0.1303  0.2922
24008DOPC   D2A28776  14.891   3.686  14.055 -0.1583  0.3460  0.2099
24008DOPC   C3A28777  15.082   3.708  13.647  0.1302  0.1470  0.2478
24008DOPC   C4A28778  15.050   3.738  13.237  0.0479  0.2490  0.0588
24008DOPC   C1B28779  14.426   3.554  14.421  0.1104  0.0746  0.0213
24008DOPC   D2B28780  14.091   3.279  14.098 -0.0731 -0.3848 -0.1125
24008DOPC   C3B28781  14.166   3.207  13.632  0.0365 -0.2785 -0.0519
24008DOPC   C4B28782  14.136   3.152  13.181  0.0802 -0.1395 -0.1683
24009DOPC   NC328783  24.151   0.566  15.032 -0.0561 -0.2073  0.0102
24009DOPC   PO428784  24.454   0.364  14.841  0.1706 -0.1933 -0.0344
24009DOPC   GL128785  24.599   0.247  14.468  0.0591 -0.1092 -0.1130
24009DOPC   GL228786  24.601   0.509  14.420  0.2152  0.3469  0.3017
24009DOPC   C1A28787  24.447   0.042  14.131 -0.2761  0.0168 -0.1496
24009DOPC   D2A28788  24.221  -0.346  13.909  0.1865  0.0780  0.0209
24009DOPC   C3A28789  24.003  -0.740  13.911 -0.0046  0.0564 -0.1562
24009DOPC   C4A28790  23.707  -1.085  13.868 -0.0451 -0.0721 -0.1150
24009DOPC   C1B28791  24.886   0.802  14.389 -0.0801 -0.1836  0.2391
24009DOPC   D2B28792  25.435   0.909  14.397  0.0764 -0.2735 -0.2758
24009DOPC   C3B28793  25.288   0.857  13.911  0.1476 -0.0006 -0.2409
24009DOPC   C4B28794  25.427   0.430  13.673 -0.0547 -0.1167  0.0736
24010DOPC   NC328795   9.127   3.347  14.983  0.0499 -0.1124 -0.1565
24010DOPC   PO428796   9.497   3.474  14.807  0.0215 -0.1944  0.1487
24010DOPC   GL128797   9.593   3.713  14.497  0.4169 -0.1036 -0.0152
24010DOPC   GL228798   9.855   3.574  14.556  0.0865 -0.2168 -0.1745
24010DOPC   C1A28799   9.341   3.722  14.107  0.0840 -0.1135  0.1029
24010DOPC   D2A28800   9.358   3.708  13.613 -0.1230 -0.0247  0.0665
24010DOPC   C3A28801   9.171   3.675  13.164  0.1474 -0.2511  0.3772
24010DOPC   C4A28802   8.683   3.577  13.017  0.1409  0.1108  0.0841
24010DOPC   C1B28803  10.118   3.617  14.247  0.0143 -0.1392 -0.1795
24010DOPC   D2B28804  10.320   3.667  13.783  0.1583 -0.1432 -0.0985
24010DOPC   C3B28805  10.128   3.521  13.377 -0.0038  0.0292  0.3488
24010DOPC   C4B28806  10.433   3.391  12.968  0.1337 -0.3180  0.0654
24011DOPC   NC328807   4.691   1.314  15.575 -0.0631 -0.0081  0.1386
24011DOPC   PO428808   5.080   1.296  15.466  0.0839  0.1192 -0.0887
24011DOPC   GL128809   5.201   1.522  15.061  0.2527 -0.0286  0.2135
24011DOPC   GL228810   5.069   1.210  14.990  0.1252 -0.2723  0.4798
24011DOPC   C1A28811   5.051   1.821  14.819 -0.0226 -0.0876  0.1372
24011DOPC   D2A28812   5.062   2.110  14.434 -0.0819 -0.3592 -0.1432
24011DOPC   C3A28813   5.058   1.971  14.022 -0.0954  0.0576  0.1325
24011DOPC   C4A28814   5.138   1.951  13.497  0.0136  0.2660  0.0458
24011DOPC   C1B28815   5.224   0.855  14.769  0.1535  0.0527 -0.0727
24011DOPC   D2B28816   5.268   0.358  14.749 -0.1828  0.0801 -0.2506
24011DOPC   C3B28817   5.234   0.215  14.330  0.0808  0.0789 -0.2638
24011DOPC   C4B28818   5.030   0.230  13.851  0.0783  0.3522  0.3431
24012DOPC   NC328819   4.835   2.106  15.705  0.0714 -0.2744 -0.1199
24012DOPC   PO428820   5.124   2.241  15.519 -0.0084 -0.2447  0.0709
24012DOPC   GL128821   5.147   2.262  15.148  0.0702  0.1825 -0.1833
24012DOPC   GL228822   5.372   2.120  15.045  0.1282  0.0557  0.1004
24012DOPC   C1A28823   4.742   2.199  14.912 -0.4188  0.0234  0.0275
24012DOPC   D2A28824   4.670   1.866  14.570  0.0727  0.0511 -0.0125
24012DOPC   C3A28825   4.611   2.064  14.135 -0.1163 -0.0241 -0.0636
24012DOPC   C4A28826   4.772   2.303  13.765 -0.1127 -0.3188  0.1885
24012DOPC   C1B28827   5.404   2.379  14.699  0.0056  0.0079  0.3833
24012DOPC   D2B28828   5.595   2.647  14.289 -0.2976 -0.1093  0.1186
24012DOPC   C3B28829   5.605   2.721  13.812  0.0604 -0.4215  0.0443
24012DOPC   C4B28830   5.830   2.857  13.324 -0.2907 -0.1804  0.0350
24013DOPC   NC328831  22.503   7.042  15.073 -0.2201 -0.1063 -0.0789
24013DOPC   PO428832  22.255   7.130  14.793  0.3105 -0.1638 -0.0745
24013DOPC   GL128833  22.053   7.086  14.454  0.4682 -0.1453 -0.2713
24013DOPC   GL228834  22.159   6.798  14.457 -0.2684  0.5881 -0.1201
24013DOPC   C1A28835  21.836   6.891  14.105 -0.1462 -0.2294 -0.4219
24013DOPC   D2A28836  21.664   6.594  13.738  0.2357  0.1083 -0.3215
24013DOPC   C3A28837  21.366   6.716  13.421  0.0462  0.0979  0.0243
24013DOPC   C4A28838  21.116   6.626  13.009 -0.3526  0.0545 -0.1228
24013DOPC   C1B28839  22.344   6.849  14.039 -0.1821  0.1908  0.3039
24013DOPC   D2B28840  22.554   7.168  13.697  0.0447 -0.1247 -0.0485
24013DOPC   C3B28841  22.882   6.930  13.443  0.1471 -0.0313 -0.4561
24013DOPC   C4B28842  23.229   6.945  13.074 -0.4404  0.0567  0.3039
24014DOPC   NC328843   8.860   1.207  14.599  0.1066 -0.0512 -0.0731
24014DOPC   PO428844   9.065   0.921  14.790 -0.1704  0.1206 -0.1815
24014DOPC   GL128845   9.398   0.751  14.536  0.1587  0.0458 -0.1221
24014DOPC   GL228846   9.227   0.918  14.335  0.1069 -0.1555  0.0554
24014DOPC   C1A28847   9.749   0.956  14.331  0.0256  0.2719  0.0106
24014DOPC   D2A28848  10.216   0.979  14.179  0.1549  0.2660  0.3817
24014DOPC   C3A28849  10.439   1.142  13.772 -0.2047 -0.0246 -0.0490
24014DOPC   C4A28850  10.539   1.196  13.312  0.0629 -0.0202  0.1149
24014DOPC   C1B28851   9.391   1.055  14.047  0.0635  0.1007 -0.0715
24014DOPC   D2B28852   9.771   1.104  13.749 -0.2792  0.1074 -0.1154
24014DOPC   C3B28853   9.839   1.099  13.241 -0.0072  0.0161 -0.3497
24014DOPC   C4B28854   9.979   0.840  12.802  0.1675  0.1209 -0.2370
24015DOPC   NC328855   6.352   4.372  15.362  0.0529  0.2193  0.0105
24015DOPC   PO428856   6.547   4.683  15.161 -0.2065  0.0583  0.0990
24015DOPC   GL128857   6.395   4.733  14.824  0.0188  0.0407  0.1342
24015DOPC   GL228858   6.178   4.599  14.960 -0.1678  0.4451 -0.2031
24015DOPC   C1A28859   6.426   5.097  14.601 -0.3849 -0.0905  0.0955
24015DOPC   D2A28860   6.306   5.505  14.310 -0.2089 -0.1731 -0.0737
24015DOPC   C3A28861   6.273   5.564  13.806 -0.3099 -0.0298 -0.1042
24015DOPC   C4A28862   6.098   5.746  13.427  0.0848 -0.1931 -0.0478
24015DOPC   C1B28863   6.082   4.335  14.635  0.0424  0.0029 -0.3088
24015DOPC   D2B28864   6.255   3.908  14.427 -0.1914  0.0357  0.0079
24015DOPC   C3B28865   6.481   3.923  13.957 -0.0049 -0.1269  0.1461
24015DOPC   C4B28866   6.634   3.914  13.484  0.2563 -0.3596 -0.0141
24016DOPC   NC328867  13.648   7.697  15.076 -0.1007  0.0876 -0.0661
24016DOPC   PO428868  13.560   7.351  14.907 -0.2675 -0.0204 -0.2297
24016DOPC   GL128869  13.400   7.282  14.429 -0.0930 -0.2114 -0.2256
24016DOPC   GL228870  13.619   7.062  14.470  0.5960 -0.2588 -0.1915
24016DOPC   C1A28871  13.486   7.401  14.024 -0.1273  0.0699 -0.0175
24016DOPC   D2A28872  13.463   7.498  13.533  0.1866 -0.0685 -0.0486
24016DOPC   C3A28873  13.541   7.761  13.209  0.1363 -0.1135 -0.0807
24016DOPC   C4A28874  13.526   7.755  12.754  0.0432  0.0636 -0.1875
24016DOPC   C1B28875  13.787   6.929  14.100  0.1524 -0.1523 -0.1057
24016DOPC   D2B28876  14.133   6.930  13.706 -0.0427  0.0970 -0.4212
24016DOPC   C3B28877  14.331   6.892  13.281 -0.1681 -0.0027  0.0490
24016DOPC   C4B28878  14.529   6.849  12.833 -0.2666  0.2548 -0.2854
24017DOPC   NC328879   7.133   6.719  15.156  0.1598 -0.4198  0.1527
24017DOPC   PO428880   7.507   6.588  15.131 -0.1646 -0.0291  0.1601
24017DOPC   GL128881   7.721   6.485  14.760 -0.3871  0.0642  0.0311
24017DOPC   GL228882   7.743   6.164  14.726 -0.2963 -0.0597 -0.0386
24017DOPC   C1A28883   7.652   6.660  14.397 -0.2108 -0.1344 -0.2754
24017DOPC   D2A28884   7.630   6.815  13.913  0.0889  0.1483  0.0571
24017DOPC   C3A28885   7.767   6.683  13.516 -0.2098 -0.3587  0.0238
24017DOPC   C4A28886   7.825   6.524  13.018 -0.0278 -0.0704 -0.2886
24017DOPC   C1B28887   7.569   6.163  14.326 -0.0004 -0.3087  0.3491
24017DOPC   D2B28888   7.788   6.255  13.888  0.1648  0.2039  0.2711
24017DOPC   C3B28889   8.078   6.300  13.539 -0.3125 -0.1219  0.3334
24017DOPC   C4B28890   8.295   6.119  13.168 -0.0334  0.0143  0.0926
24018DOPC   NC328891  22.985   7.593  14.851  0.1875  0.0053  0.0524
24018DOPC   PO428892  22.704   7.317  14.743 -0.0361 -0.1104 -0.0708
24018DOPC   GL128893  22.533   7.148  14.299 -0.2063 -0.0559  0.2720
24018DOPC   GL228894  22.773   7.337  14.236 -0.1701  0.0848  0.0930
24018DOPC   C1A28895  22.229   7.333  14.028 -0.1811 -0.0097 -0.0146
24018DOPC   D2A28896  22.116   7.296  13.517 -0.1407  0.1141  0.1800
24018DOPC   C3A28897  22.230   7.557  13.143 -0.1007  0.1419 -0.0237
24018DOPC   C4A28898  22.250   8.049  12.974 -0.3367 -0.2141  0.0080
24018DOPC   C1B28899  22.997   7.201  13.911  0.1526  0.1301  0.0862
24018DOPC   D2B28900  23.403   7.061  13.592 -0.0313 -0.0009  0.3938
24018DOPC   C3B28901  23.559   7.342  13.194  0.1732  0.3997  0.1304
24018DOPC   C4B28902  23.914   7.588  13.002 -0.0582 -0.0453 -0.1756
24019DOPC   NC328903   9.781   6.046  15.087 -0.1605  0.0162  0.0539
24019DOPC   PO428904   9.567   5.802  14.854 -0.0793  0.1964 -0.0012
24019DOPC   GL128905   9.625   5.705  14.459 -0.1049 -0.1789  0.3677
24019DOPC   GL228906   9.597   5.969  14.361 -0.1110  0.2143  0.1786
24019DOPC   C1A28907   9.782   5.531  14.139 -0.1174  0.0167 -0.0373
24019DOPC   D2A28908   9.963   5.258  13.694 -0.0733  0.0979  0.1022
24019DOPC   C3A28909   9.948   5.355  13.228 -0.1128 -0.1712  0.0565
24019DOPC   C4A28910   9.790   5.480  12.826 -0.0230  0.2063 -0.0401
24019DOPC   C1B28911   9.586   6.087  13.951 -0.3883 -0.0359 -0.0481
24019DOPC   D2B28912   9.671   6.330  13.493 -0.0057  0.1090 -0.0148
24019DOPC   C3B28913   9.969   6.441  13.109  0.1149  0.2694  0.0252
24019DOPC   C4B28914  10.313   6.523  12.819 -0.1879 -0.0820 -0.0106
24020DOPC   NC328915   7.243   2.086  15.297  0.0197  0.0413 -0.1839
24020DOPC   PO428916   7.009   2.361  15.183 -0.2133 -0.0192  0.0053
24020DOPC   GL128917   6.976   2.404  14.730  0.2048 -0.1486 -0.3127
24020DOPC   GL228918   6.660   2.460  14.720 -0.2778  0.0536 -0.1183
24020DOPC   C1A28919   7.107   2.346  14.320 -0.0165 -0.2549 -0.0617
24020DOPC   D2A28920   7.184   2.348  13.876  0.2329  0.1012 -0.2102
24020DOPC   C3A28921   6.970   2.539  13.530  0.0676  0.3216 -0.0169
24020DOPC   C4A28922   6.766   2.649  13.112  0.1694  0.4583  0.0537
24020DOPC   C1B28923   6.514   2.450  14.319 -0.2172  0.1320  0.1264
24020DOPC   D2B28924   6.084   2.562  14.099 -0.0373  0.2169  0.0894
24020DOPC   C3B28925   6.094   2.886  13.771  0.0450  0.1537  0.1494
24020DOPC   C4B28926   5.978   3.286  13.477 -0.0250  0.1942 -0.0295
24021DOPC   NC328927  28.660   6.565  15.471 -0.1616  0.0318 -0.2746
24021DOPC   PO428928  28.277   6.670  15.495 -0.1835 -0.0577  0.3242
24021DOPC   GL128929  28.219   6.868  15.085  0.1951 -0.3087  0.0108
24021DOPC   GL228930  28.537   6.845  15.079  0.0491 -0.2574  0.2646
24021DOPC   C1A28931  28.083   7.181  14.866  0.2513  0.1754 -0.2046
24021DOPC   D2A28932  28.362   7.233  14.487  0.0605  0.0893 -0.0123
24021DOPC   C3A28933  28.452   7.466  14.097 -0.1431 -0.0185 -0.0130
24021DOPC   C4A28934  28.465   7.578  13.619 -0.0128 -0.1644  0.2436
24021DOPC   C1B28935  28.512   6.755  14.672 -0.1818  0.1489 -0.2255
24021DOPC   D2B28936  28.449   6.752  14.217  0.0627  0.0861 -0.1321
24021DOPC   C3B28937  28.260   6.372  14.008 -0.1190  0.0076  0.1958
24021DOPC   C4B28938  28.255   6.257  13.502 -0.0606  0.3452  0.0002
24022DOPC   NC328939  30.962   6.819  15.591  0.0296 -0.0614 -0.3291
24022DOPC   PO428940  30.795   7.152  15.768 -0.0903  0.0243  0.0380
24022DOPC   GL128941  30.767   7.284  15.370  0.0445 -0.0905 -0.3336
24022DOPC   GL228942  31.038   7.184  15.284  0.0226  0.0005 -0.2562
24022DOPC   C1A28943  30.515   7.188  15.019 -0.1307 -0.1546  0.1227
24022DOPC   D2A28944  30.394   6.840  14.600 -0.1111  0.0937  0.0792
24022DOPC   C3A28945  30.492   6.853  14.148 -0.0669 -0.3070  0.0144
24022DOPC   C4A28946  30.588   6.980  13.740  0.0865 -0.1134 -0.1592
24022DOPC   C1B28947  31.072   7.148  14.847  0.1397  0.0753  0.0624
24022DOPC   D2B28948  31.310   7.138  14.404  0.0022  0.3244  0.1771
24022DOPC   C3B28949  31.650   6.880  14.196  0.3344  0.1511  0.3877
24022DOPC   C4B28950  31.967   6.516  14.036 -0.1714  0.0927  0.1416
24023DOPC   NC328951  24.156   1.128  15.115 -0.1848  0.0704  0.1270
24023DOPC   PO428952  23.895   0.979  14.852 -0.0784  0.4236  0.0638
24023DOPC   GL128953  23.889   0.973  14.429  0.2716  0.0959 -0.1245
24023DOPC   GL228954  23.703   1.220  14.398  0.0549 -0.0042 -0.1971
24023DOPC   C1A28955  24.260   0.869  14.209 -0.1162  0.2241 -0.0402
24023DOPC   D2A28956  24.650   0.622  13.971 -0.3522 -0.0619  0.1456
24023DOPC   C3A28957  24.904   0.765  13.623 -0.0638  0.1250  0.0849
24023DOPC   C4A28958  25.329   0.985  13.422 -0.2939  0.2847  0.0100
24023DOPC   C1B28959  23.614   1.238  14.019  0.0603  0.0373 -0.2095
24023DOPC   D2B28960  23.259   1.034  13.766 -0.0984  0.2507  0.0308
24023DOPC   C3B28961  23.184   1.172  13.350  0.2913  0.0719  0.1837
24023DOPC   C4B28962  23.160   1.294  12.982 -0.0467  0.0512  0.2799
24024DOPC   NC328963  23.443   0.921  15.027 -0.0038  0.1467 -0.3958
24024DOPC   PO428964  23.632   0.540  14.965  0.0273 -0.1859 -0.0852
24024DOPC   GL128965  23.734   0.610  14.536  0.1472  0.1124  0.0317
24024DOPC   GL228966  23.460   0.776  14.564 -0.2309 -0.1818 -0.1047
24024DOPC   C1A28967  23.678   0.676  14.129 -0.0071 -0.2218 -0.0157
24024DOPC   D2A28968  23.724   0.683  13.651  0.1502  0.0905  0.1981
24024DOPC   C3A28969  23.979   0.384  13.369 -0.0291  0.0739  0.0114
24024DOPC   C4A28970  24.316   0.076  13.135  0.2348 -0.2804  0.0874
24024DOPC   C1B28971  23.181   0.816  14.190 -0.1061 -0.0938 -0.0870
24024DOPC   D2B28972  22.811   0.881  13.848 -0.3337 -0.2274 -0.2701
24024DOPC   C3B28973  22.529   0.836  13.449  0.2814 -0.0548 -0.3094
24024DOPC   C4B28974  22.229   0.922  13.080 -0.0929  0.3316  0.0618
24025DOPC   NC328975  14.774   5.458  14.845  0.0524  0.2087  0.0266
24025DOPC   PO428976  14.859   5.051  14.885 -0.1294 -0.3427 -0.0800
24025DOPC   GL128977  14.657   4.951  14.606 -0.0314  0.3646  0.2229
24025DOPC   GL228978  14.484   5.111  14.542  0.0245  0.1984  0.0833
24025DOPC   C1A28979  14.779   4.653  14.260  0.1232  0.1554  0.0293
24025DOPC   D2A28980  14.804   4.192  13.989  0.0874  0.0918 -0.1442
24025DOPC   C3A28981  14.722   4.083  13.528  0.2584 -0.2171 -0.0811
24025DOPC   C4A28982  14.637   4.165  13.017 -0.0621 -0.2234  0.1130
24025DOPC   C1B28983  14.259   4.970  14.220  0.0751  0.4423 -0.0624
24025DOPC   D2B28984  14.503   4.810  13.812 -0.3884 -0.1454 -0.1989
24025DOPC   C3B28985  14.746   4.561  13.570 -0.1270 -0.2552  0.3525
24025DOPC   C4B28986  15.049   4.321  13.270  0.2823  0.0330 -0.3312
24026DOPC   NC328987  11.936   4.651  15.092 -0.2109  0.1512  0.3212
24026DOPC   PO428988  12.306   4.804  15.128 -0.3753 -0.1741 -0.2001
24026DOPC   GL128989  12.383   4.803  14.782  0.0486 -0.0854  0.0445
24026DOPC   GL228990  12.211   4.513  14.774 -0.0267  0.2317 -0.2005
24026DOPC   C1A28991  12.847   4.749  14.575  0.1832  0.2097  0.1487
24026DOPC   D2A28992  13.042   4.778  14.177  0.1702  0.1507  0.1874
24026DOPC   C3A28993  12.672   4.936  13.949 -0.2205  0.1524 -0.1238
24026DOPC   C4A28994  12.255   4.867  13.695  0.1688 -0.2407 -0.0091
24026DOPC   C1B28995  12.310   4.202  14.528  0.0421 -0.4871  0.0266
24026DOPC   D2B28996  12.388   3.896  14.112 -0.0873  0.3232  0.2643
24026DOPC   C3B28997  12.763   3.647  14.118 -0.2154 -0.0130 -0.2527
24026DOPC   C4B28998  12.918   3.205  14.073 -0.0574 -0.0238  0.1983
24027DOPC   NC328999   8.893   1.755  15.322 -0.0009  0.1987 -0.0968
24027DOPC   PO429000   9.198   1.929  15.143  0.0195  0.0190  0.0099
24027DOPC   GL129001   9.234   2.003  14.720 -0.1559 -0.0889  0.1958
24027DOPC   GL229002   9.016   1.763  14.643  0.0943  0.1685  0.2720
24027DOPC   C1A29003   9.321   2.302  14.378  0.1404  0.0885 -0.0503
24027DOPC   D2A29004   9.446   2.731  14.105  0.1085  0.1846  0.0248
24027DOPC   C3A29005   9.598   2.804  13.709  0.0185 -0.0570  0.3857
24027DOPC   C4A29006   9.514   2.905  13.248 -0.0133  0.1553  0.1645
24027DOPC   C1B29007   9.069   1.862  14.262  0.0133  0.0183 -0.0103
24027DOPC   D2B29008   9.016   2.059  13.823 -0.0032  0.0407  0.1524
24027DOPC   C3B29009   9.312   1.857  13.509 -0.1427  0.1416  0.2800
24027DOPC   C4B29010   9.777   1.966  13.320 -0.3681 -0.2714 -0.0617
24028DOPC   NC329011   3.844   4.747  15.854  0.2551 -0.2473  0.1586
24028DOPC   PO429012   3.575   4.604  15.583 -0.1324  0.0281 -0.0549
24028DOPC   GL129013   3.359   4.778  15.208 -0.3871 -0.2153  0.3114
24028DOPC   GL229014   3.538   4.486  15.196 -0.0512  0.1120 -0.0437
24028DOPC   C1A29015   3.258   4.899  14.767 -0.0393  0.1150  0.3204
24028DOPC   D2A29016   3.175   4.908  14.228  0.0331 -0.0067  0.0692
24028DOPC   C3A29017   3.319   4.830  13.856 -0.0109 -0.0681  0.1275
24028DOPC   C4A29018   3.399   4.750  13.327  0.2821 -0.0414 -0.0769
24028DOPC   C1B29019   3.679   4.529  14.830  0.1348 -0.0741 -0.0882
24028DOPC   D2B29020   3.634   4.564  14.387  0.0809 -0.1545 -0.0943
24028DOPC   C3B29021   3.797   4.611  13.900 -0.2766  0.1105 -0.0930
24028DOPC   C4B29022   3.917   4.683  13.422  0.0425 -0.0129 -0.0258
24029DOPC   NC329023   7.227   2.780  14.955 -0.0139  0.0690  0.0695
24029DOPC   PO429024   7.406   3.108  15.042  0.3978 -0.1949  0.1295
24029DOPC   GL129025   7.705   3.208  14.747  0.2938 -0.0411  0.4263
24029DOPC   GL229026   7.706   3.523  14.766  0.1850  0.0173 -0.0286
24029DOPC   C1A29027   7.703   3.175  14.239  0.0457  0.0995 -0.0542
24029DOPC   D2A29028   7.608   3.121  13.810 -0.2607 -0.0927 -0.1208
24029DOPC   C3A29029   7.282   3.369  13.663  0.0584  0.2713 -0.0812
24029DOPC   C4A29030   6.918   3.560  13.422  0.0460 -0.0826  0.2256
24029DOPC   C1B29031   7.736   3.695  14.355 -0.1338  0.0640 -0.0761
24029DOPC   D2B29032   7.614   3.647  13.841  0.1984  0.2441  0.0659
24029DOPC   C3B29033   7.432   3.795  13.454  0.4407  0.2095 -0.0575
24029DOPC   C4B29034   7.143   3.927  13.039 -0.0482 -0.1625 -0.3337
24030DOPC   NC329035  22.514   6.286  15.169 -0.2169  0.0362  0.0200
24030DOPC   PO429036  22.714   6.607  14.998  0.1402  0.1172 -0.1588
24030DOPC   GL129037  22.553   6.708  14.594  0.0662 -0.4241 -0.0408
24030DOPC   GL229038  22.846   6.903  14.587  0.0432  0.0809 -0.0581
24030DOPC   C1A29039  22.475   6.342  14.337  0.0927  0.0751 -0.2122
24030DOPC   D2A29040  22.368   6.168  13.859  0.0199 -0.2148  0.2182
24030DOPC   C3A29041  22.344   6.001  13.424  0.4260 -0.0060 -0.1407
24030DOPC   C4A29042  22.238   5.882  12.937  0.1332  0.0403  0.0322
24030DOPC   C1B29043  23.070   6.801  14.193 -0.0055  0.0089 -0.0366
24030DOPC   D2B29044  23.142   6.562  13.714 -0.1521  0.0486  0.0349
24030DOPC   C3B29045  23.473   6.637  13.397  0.1392 -0.1670 -0.0150
24030DOPC   C4B29046  23.770   6.751  13.032  0.1283  0.0411 -0.0703
24031DOPC   NC329047  18.561   2.727  14.519 -0.0063  0.0847 -0.0032
24031DOPC   PO429048  18.484   2.357  14.600 -0.0088  0.0519  0.1339
24031DOPC   GL129049  18.465   2.130  14.319  0.2507  0.1688  0.0039
24031DOPC   GL229050  18.774   2.050  14.283  0.2090 -0.1420 -0.0087
24031DOPC   C1A29051  18.362   2.007  13.947  0.3695 -0.1581 -0.1039
24031DOPC   D2A29052  18.505   1.850  13.537  0.1125 -0.0563  0.1386
24031DOPC   C3A29053  18.726   1.573  13.340 -0.1182  0.0366  0.0906
24031DOPC   C4A29054  18.833   1.145  13.088 -0.0047 -0.3165 -0.1517
24031DOPC   C1B29055  18.804   2.219  13.856  0.0318  0.0946  0.2016
24031DOPC   D2B29056  18.862   2.307  13.377 -0.0722  0.0703 -0.0978
24031DOPC   C3B29057  18.572   2.079  13.045  0.0324  0.0416 -0.0611
24031DOPC   C4B29058  18.628   1.655  12.832 -0.0590 -0.1364  0.1130
24032DOPC   NC329059  15.380   1.650  15.191  0.2541  0.2003 -0.0948
24032DOPC   PO429060  15.713   1.777  15.054  0.0847  0.2788  0.4186
24032DOPC   GL129061  15.609   1.780  14.581 -0.0421  0.0031 -0.1112
24032DOPC   GL229062  15.821   1.787  14.495  0.1724  0.0857 -0.3431
24032DOPC   C1A29063  15.412   2.018  14.247 -0.0158  0.0028 -0.1352
24032DOPC   D2A29064  15.178   2.169  13.850  0.3274  0.0601  0.1653
24032DOPC   C3A29065  15.077   2.067  13.387  0.0215  0.1247 -0.2356
24032DOPC   C4A29066  15.375   1.851  13.115 -0.1556 -0.2197 -0.0415
24032DOPC   C1B29067  15.779   1.672  14.119  0.0896  0.1951  0.1708
24032DOPC   D2B29068  15.654   1.551  13.665  0.0380  0.0103 -0.2676
24032DOPC   C3B29069  15.929   1.336  13.405 -0.1105  0.3608 -0.1378
24032DOPC   C4B29070  16.316   1.084  13.193 -0.0288  0.1784  0.1859
24033DOPC   NC329071  13.393   1.681  15.030  0.4155  0.3919 -0.1407
24033DOPC   PO429072  13.271   2.030  15.121  0.1103 -0.3959 -0.1350
24033DOPC   GL129073  13.295   2.035  14.717  0.1451 -0.0375 -0.1888
24033DOPC   GL229074  13.568   2.088  14.684  0.1471  0.2354 -0.1514
24033DOPC   C1A29075  13.246   1.968  14.260  0.1768  0.1850  0.1842
24033DOPC   D2A29076  13.318   1.883  13.742 -0.0038  0.1585 -0.1331
24033DOPC   C3A29077  13.560   1.997  13.381 -0.0616  0.2070 -0.1794
24033DOPC   C4A29078  13.702   2.021  12.921 -0.1024 -0.0025  0.1068
24033DOPC   C1B29079  13.645   1.709  14.483 -0.0588  0.1696  0.2469
24033DOPC   D2B29080  13.936   1.295  14.245 -0.0578 -0.0914  0.2194
24033DOPC   C3B29081  14.163   1.196  13.914  0.3022 -0.2962 -0.0499
24033DOPC   C4B29082  14.288   0.869  13.626 -0.0403  0.0993  0.0954
24034DOPC   NC329083  10.643   0.199  15.120 -0.2513 -0.1901  0.0732
24034DOPC   PO429084  10.682  -0.103  14.894 -0.0780  0.1015  0.0709
24034DOPC   GL129085  10.761  -0.143  14.485 -0.3940 -0.0134  0.2053
24034DOPC   GL229086  10.899  -0.421  14.473  0.1502 -0.1337  0.0005
24034DOPC   C1A29087  10.429  -0.236  14.166 -0.0915 -0.0537  0.4915
24034DOPC   D2A29088  10.159  -0.314  13.620 -0.1401  0.1561 -0.2573
24034DOPC   C3A29089   9.896  -0.568  13.394 -0.0487 -0.1793 -0.1358
24034DOPC   C4A29090   9.673  -0.889  13.134  0.0563  0.3999 -0.1117
24034DOPC   C1B29091  10.950  -0.581  14.084 -0.2204 -0.0132 -0.1347
24034DOPC   D2B29092  10.958  -0.896  13.653  0.1297 -0.0567 -0.1033
24034DOPC   C3B29093  11.032  -0.688  13.236  0.0674 -0.0411  0.4263
24034DOPC   C4B29094  11.117  -0.641  12.771 -0.1707  0.1673 -0.1144
24035DOPC   NC329095   1.894   0.004  15.583 -0.2580 -0.1176  0.1845
24035DOPC   PO429096   1.892  -0.352  15.783  0.1232  0.2665  0.2882
24035DOPC   GL129097   1.764  -0.623  15.513 -0.6668  0.2611  0.3272
24035DOPC   GL229098   1.851  -0.396  15.319  0.1857  0.1993 -0.3537
24035DOPC   C1A29099   1.797  -1.022  15.263 -0.2553 -0.0344  0.3842
24035DOPC   D2A29100   2.047  -1.348  15.047  0.4860  0.2954 -0.0143
24035DOPC   C3A29101   1.929  -1.334  14.557  0.0506  0.1863  0.1299
24035DOPC   C4A29102   2.151  -1.232  14.132 -0.2313 -0.2971 -0.2154
24035DOPC   C1B29103   1.616  -0.308  15.021 -0.0286  0.0053  0.2343
24035DOPC   D2B29104   1.367  -0.555  14.685  0.1970 -0.2796  0.0262
24035DOPC   C3B29105   1.305  -0.796  14.295 -0.0679 -0.2064  0.0419
24035DOPC   C4B29106   1.258  -0.857  13.839 -0.0048  0.0989 -0.1669
24036DOPC   NC329107   9.055   4.141  15.166 -0.2257 -0.0773 -0.1036
24036DOPC   PO429108   8.879   4.234  14.833 -0.3474  0.0192 -0.2413
24036DOPC   GL129109   8.945   3.979  14.377 -0.0276 -0.0836  0.0618
24036DOPC   GL229110   8.909   4.286  14.341  0.0263 -0.1918 -0.0244
24036DOPC   C1A29111   8.882   3.926  13.915 -0.0003  0.1138 -0.1386
24036DOPC   D2A29112   8.820   3.751  13.492 -0.2103 -0.5014  0.0040
24036DOPC   C3A29113   8.404   3.855  13.290  0.0046  0.1134  0.0416
24036DOPC   C4A29114   8.109   4.101  12.954  0.2803  0.0450  0.1484
24036DOPC   C1B29115   9.001   4.440  13.943 -0.0292 -0.1167 -0.3206
24036DOPC   D2B29116   9.260   4.652  13.550 -0.1747  0.0474  0.2121
24036DOPC   C3B29117   9.238   4.660  13.107  0.1637 -0.1001  0.2948
24036DOPC   C4B29118   9.436   4.452  12.658 -0.1425 -0.0694  0.2098
24037DOPC   NC329119   9.218   2.414  14.981  0.1545 -0.1226  0.0280
24037DOPC   PO429120   8.851   2.361  14.963  0.0175  0.1710 -0.0840
24037DOPC   GL129121   8.710   2.096  14.576  0.2270 -0.1370 -0.0714
24037DOPC   GL229122   8.837   2.395  14.517 -0.2583  0.1419 -0.0564
24037DOPC   C1A29123   8.567   2.111  14.228 -0.0583  0.0577 -0.0997
24037DOPC   D2A29124   8.549   2.350  13.762  0.2876  0.0176  0.0201
24037DOPC   C3A29125   8.794   2.386  13.401 -0.1979 -0.1009  0.5003
24037DOPC   C4A29126   9.032   2.416  12.938  0.2591  0.2414  0.1051
24037DOPC   C1B29127   8.887   2.521  14.090  0.1862 -0.1588  0.2691
24037DOPC   D2B29128   9.036   2.788  13.681 -0.1092  0.1579 -0.2059
24037DOPC   C3B29129   8.965   2.814  13.221 -0.0181 -0.2007  0.0461
24037DOPC   C4B29130   8.586   3.013  12.988 -0.0817 -0.4075  0.1647
24038DOPC   NC329131  19.609   6.047  14.846 -0.2304  0.3662 -0.1984
24038DOPC   PO429132  19.389   6.386  14.738  0.0265 -0.0594 -0.0168
24038DOPC   GL129133  19.410   6.425  14.302 -0.1379 -0.2179  0.2128
24038DOPC   GL229134  19.171   6.580  14.348  0.1189 -0.0079  0.3174
24038DOPC   C1A29135  19.459   6.248  13.909  0.2589  0.2565 -0.0913
24038DOPC   D2A29136  19.284   6.080  13.461 -0.2596  0.2783 -0.0464
24038DOPC   C3A29137  19.114   5.941  13.078  0.1628  0.0669 -0.1745
24038DOPC   C4A29138  19.026   5.586  12.943 -0.2145  0.1453  0.0258
24038DOPC   C1B29139  18.996   6.548  13.938  0.0689  0.1071 -0.1244
24038DOPC   D2B29140  18.703   6.459  13.481 -0.0161 -0.0856 -0.1459
24038DOPC   C3B29141  19.114   6.482  13.273 -0.0035 -0.1831  0.0836
24038DOPC   C4B29142  19.327   6.385  12.901 -0.2153  0.0568  0.2476
24039DOPC   NC329143   8.576   7.432  15.339  0.1686  0.0166 -0.1042
24039DOPC   PO429144   8.800   7.428  14.985 -0.2221  0.0290 -0.0457
24039DOPC   GL129145   8.846   7.642  14.558 -0.3048 -0.2242  0.2442
24039DOPC   GL229146   9.042   7.524  14.524  0.2400  0.3107  0.2107
24039DOPC   C1A29147   8.515   7.714  14.231  0.1279  0.1836 -0.0070
24039DOPC   D2A29148   8.144   8.013  14.071  0.0104  0.3497 -0.0241
24039DOPC   C3A29149   8.039   7.887  13.636  0.0594 -0.2745 -0.3974
24039DOPC   C4A29150   7.893   7.660  13.187  0.2944 -0.0675  0.1170
24039DOPC   C1B29151   8.833   7.223  14.378  0.1625  0.2910  0.0214
24039DOPC   D2B29152   8.461   7.004  14.078  0.2499 -0.1703 -0.1067
24039DOPC   C3B29153   8.094   7.045  14.348 -0.0150 -0.2460 -0.1629
24039DOPC   C4B29154   7.653   7.137  14.564 -0.0822  0.0274  0.0565
24040DOPC   NC329155  11.729   1.336  15.163 -0.0002  0.0172 -0.1949
24040DOPC   PO429156  11.457   1.312  14.899  0.3642  0.0736  0.3040
24040DOPC   GL129157  11.449   1.440  14.556  0.3382  0.1940 -0.2807
24040DOPC   GL229158  11.252   1.222  14.545  0.1233 -0.3084  0.1373
24040DOPC   C1A29159  11.710   1.559  14.233  0.0385  0.2158 -0.1282
24040DOPC   D2A29160  12.079   1.886  13.948 -0.1672 -0.0082  0.3103
24040DOPC   C3A29161  12.212   1.688  13.525  0.1211 -0.1558  0.0211
24040DOPC   C4A29162  12.412   1.515  13.090 -0.1079 -0.1904  0.3438
24040DOPC   C1B29163  11.134   1.477  14.276 -0.2069 -0.2041  0.1690
24040DOPC   D2B29164  11.173   1.758  13.883 -0.1218  0.0135  0.1216
24040DOPC   C3B29165  11.303   1.586  13.478  0.2689 -0.0248  0.0955
24040DOPC   C4B29166  11.757   1.573  13.306  0.2243  0.0580 -0.1371
24041DOPC   NC329167  26.746   4.222  15.197 -0.1904  0.0110  0.1245
24041DOPC   PO429168  26.979   4.043  14.929  0.1476 -0.2072  0.1978
24041DOPC   GL129169  27.114   4.100  14.531 -0.1659 -0.0390  0.2211
24041DOPC   GL229170  27.226   3.803  14.532  0.0177  0.1349 -0.4494
24041DOPC   C1A29171  27.107   4.211  14.080 -0.0118 -0.1338 -0.1341
24041DOPC   D2A29172  27.350   4.253  13.666  0.1098  0.1873 -0.3017
24041DOPC   C3A29173  27.254   4.025  13.247  0.2670 -0.1032  0.0358
24041DOPC   C4A29174  27.289   3.698  12.887 -0.0847 -0.1945  0.1902
24041DOPC   C1B29175  27.156   3.417  14.344  0.0303 -0.0143  0.0419
24041DOPC   D2B29176  27.045   3.072  14.012  0.0687  0.2135  0.0530
24041DOPC   C3B29177  26.929   3.384  13.676  0.3241  0.0341 -0.1691
24041DOPC   C4B29178  26.855   3.653  13.305  0.1258  0.0266  0.3699
24042DOPC   NC329179  10.242   1.196  15.106  0.0321 -0.0795 -0.0831
24042DOPC   PO429180  10.496   1.508  14.974  0.2532 -0.2017  0.1383
24042DOPC   GL129181  10.375   1.779  14.644  0.0090  0.2159 -0.1110
24042DOPC   GL229182  10.333   1.427  14.548  0.2776  0.1488 -0.3926
24042DOPC   C1A29183  10.162   1.913  14.263  0.1305 -0.2245  0.0860
24042DOPC   D2A29184   9.891   1.979  13.787 -0.7338 -0.1332 -0.0486
24042DOPC   C3A29185   9.570   2.314  13.825  0.1461  0.0399 -0.0847
24042DOPC   C4A29186   9.340   2.472  13.387  0.0401  0.2623  0.0096
24042DOPC   C1B29187  10.629   1.329  14.203 -0.1834 -0.0409  0.3074
24042DOPC   D2B29188  10.941   1.301  13.792 -0.2952 -0.1439  0.0656
24042DOPC   C3B29189  11.087   1.188  13.351 -0.1535 -0.0979  0.0249
24042DOPC   C4B29190  11.346   1.011  13.032  0.1174 -0.1825  0.2897
24043DOPC   NC329191  16.996   1.420  15.096  0.0177 -0.2761  0.2675
24043DOPC   PO429192  17.240   1.738  15.002 -0.0539 -0.2208  0.0727
24043DOPC   GL129193  17.192   1.724  14.558  0.0676 -0.0162  0.0323
24043DOPC   GL229194  16.979   1.579  14.673  0.1367  0.0511 -0.3722
24043DOPC   C1A29195  17.462   1.519  14.257  0.2007  0.1070  0.0971
24043DOPC   D2A29196  17.629   1.419  13.746  0.0238  0.2165 -0.0115
24043DOPC   C3A29197  17.735   1.583  13.332 -0.0843 -0.1910 -0.1927
24043DOPC   C4A29198  17.821   1.535  12.909 -0.1070  0.1560 -0.2444
24043DOPC   C1B29199  16.998   1.222  14.299 -0.0466 -0.3370  0.1856
24043DOPC   D2B29200  17.154   1.229  13.839  0.0191 -0.3640  0.4447
24043DOPC   C3B29201  17.223   1.282  13.367  0.1440  0.1193 -0.3405
24043DOPC   C4B29202  17.486   1.126  13.013  0.0624  0.0528  0.0306
24044DOPC   NC329203  20.123   0.191  14.726 -0.1125  0.1039  0.3187
24044DOPC   PO429204  19.892   0.499  14.797  0.1356 -0.1684 -0.3431
24044DOPC   GL129205  19.921   0.652  14.435 -0.0789  0.0232  0.1332
24044DOPC   GL229206  20.121   0.443  14.328  0.0578  0.2212  0.5440
24044DOPC   C1A29207  19.653   0.851  14.191  0.0128  0.0850 -0.0536
24044DOPC   D2A29208  19.417   0.992  13.763  0.1379  0.1273  0.2719
24044DOPC   C3A29209  19.110   1.353  13.646  0.1816 -0.1021 -0.2660
24044DOPC   C4A29210  18.943   1.744  13.853  0.1021  0.2269 -0.0632
24044DOPC   C1B29211  20.177   0.327  13.889  0.0278 -0.1988 -0.2619
24044DOPC   D2B29212  20.348   0.663  13.571  0.1110 -0.0152 -0.1961
24044DOPC   C3B29213  20.209   0.860  13.193  0.0093 -0.0690 -0.2327
24044DOPC   C4B29214  20.073   1.076  12.743 -0.0162  0.0801 -0.2619
24045DOPC   NC329215  21.623   1.439  15.080 -0.0223  0.1244 -0.0816
24045DOPC   PO429216  21.573   1.523  14.693  0.2535 -0.1053  0.0976
24045DOPC   GL129217  21.886   1.525  14.427 -0.1782  0.1520 -0.2264
24045DOPC   GL229218  21.710   1.344  14.199 -0.3254  0.1803 -0.4093
24045DOPC   C1A29219  21.981   1.814  14.060  0.1306 -0.1920  0.0067
24045DOPC   D2A29220  22.001   1.892  13.568  0.1454  0.2158 -0.4367
24045DOPC   C3A29221  22.265   1.902  13.157 -0.2288 -0.3724 -0.0386
24045DOPC   C4A29222  22.330   1.865  12.708 -0.1684  0.0616 -0.0518
24045DOPC   C1B29223  21.872   1.370  13.772 -0.1544 -0.0250 -0.0553
24045DOPC   D2B29224  21.884   1.058  13.443  0.2144 -0.0164  0.0622
24045DOPC   C3B29225  21.662   1.123  13.044 -0.0276  0.2152  0.0476
24045DOPC   C4B29226  21.459   1.537  12.905  0.2320  0.1929  0.3093
24046DOPC   NC329227  16.469   6.078  14.773  0.0558  0.2077 -0.1502
24046DOPC   PO429228  16.838   6.169  14.692  0.1511  0.1163 -0.0757
24046DOPC   GL129229  16.889   6.076  14.243 -0.0717 -0.3154  0.1172
24046DOPC   GL229230  17.197   6.198  14.312  0.1686  0.0430 -0.0465
24046DOPC   C1A29231  16.828   6.041  13.773 -0.0203 -0.0436 -0.1576
24046DOPC   D2A29232  16.921   6.176  13.300 -0.0064  0.0494  0.0054
24046DOPC   C3A29233  16.850   5.992  12.889 -0.0917 -0.2843  0.1873
24046DOPC   C4A29234  16.927   5.941  12.400 -0.0926  0.3008 -0.1291
24046DOPC   C1B29235  17.657   6.184  14.178 -0.1610 -0.2060 -0.1339
24046DOPC   D2B29236  18.086   6.097  14.127  0.0856 -0.2304  0.1460
24046DOPC   C3B29237  18.312   5.700  13.905 -0.0069  0.2275  0.4879
24046DOPC   C4B29238  18.446   5.281  13.527 -0.1056 -0.2411 -0.0505
24047DOPC   NC329239   7.826   3.300  15.203 -0.0593 -0.0121  0.2086
24047DOPC   PO429240   8.104   3.442  14.986  0.0447 -0.1438 -0.2301
24047DOPC   GL129241   8.123   3.564  14.602  0.1052 -0.4613  0.1444
24047DOPC   GL229242   8.084   3.347  14.433  0.1859  0.1915 -0.1201
24047DOPC   C1A29243   8.080   4.012  14.460 -0.1352 -0.3682  0.1126
24047DOPC   D2A29244   7.972   4.323  14.177  0.4610  0.0143 -0.2022
24047DOPC   C3A29245   7.696   4.572  13.818  0.2732  0.2840  0.0695
24047DOPC   C4A29246   7.565   4.583  13.415  0.2195 -0.0088  0.0428
24047DOPC   C1B29247   8.075   3.348  13.973  0.3318 -0.0354 -0.1242
24047DOPC   D2B29248   8.032   3.243  13.522  0.0060  0.2387 -0.0167
24047DOPC   C3B29249   8.465   3.339  13.423  0.0130  0.2166  0.1503
24047DOPC   C4B29250   8.956   3.259  13.410 -0.0616 -0.0262  0.2934
24048DOPC   NC329251  26.038   6.766  14.587  0.0692  0.2132 -0.2989
24048DOPC   PO429252  26.055   6.389  14.710 -0.0867 -0.5932  0.3673
24048DOPC   GL129253  26.003   6.233  14.336 -0.3412  0.0175  0.1305
24048DOPC   GL229254  26.328   6.307  14.315  0.2283  0.1652  0.1909
24048DOPC   C1A29255  26.129   6.176  13.907  0.0281 -0.0747  0.0475
24048DOPC   D2A29256  26.351   6.045  13.443  0.0876  0.0647 -0.1150
24048DOPC   C3A29257  26.377   5.663  13.229 -0.3805 -0.1426  0.0998
24048DOPC   C4A29258  26.333   5.154  13.198 -0.1943 -0.1424 -0.0181
24048DOPC   C1B29259  26.346   6.665  14.038 -0.0636  0.0222 -0.0703
24048DOPC   D2B29260  26.500   6.965  13.635 -0.0225  0.1201  0.4526
24048DOPC   C3B29261  26.306   7.095  13.217  0.0178  0.1008 -0.0577
24048DOPC   C4B29262  26.114   7.059  12.740 -0.1635  0.0010  0.0613
24049DOPC   NC329263  29.658   0.751  15.397  0.1714  0.1586 -0.2701
24049DOPC   PO429264  29.683   1.158  15.366 -0.2424  0.1004 -0.1940
24049DOPC   GL129265  29.403   1.412  15.092  0.2113  0.0662  0.0668
24049DOPC   GL229266  29.601   1.594  14.998 -0.4389 -0.1647  0.0890
24049DOPC   C1A29267  29.141   1.369  14.725 -0.2730 -0.1960  0.2946
24049DOPC   D2A29268  29.242   1.321  14.214  0.1527 -0.1632  0.1593
24049DOPC   C3A29269  29.437   1.490  13.808 -0.2760  0.4150  0.1611
24049DOPC   C4A29270  29.185   1.605  13.385 -0.0310  0.1923 -0.2620
24049DOPC   C1B29271  29.432   1.727  14.568 -0.0378  0.1153 -0.0242
24049DOPC   D2B29272  29.417   1.903  14.033 -0.2282  0.1347 -0.0518
24049DOPC   C3B29273  29.208   2.171  13.685  0.0862  0.1178  0.0551
24049DOPC   C4B29274  28.827   2.087  13.407  0.1713 -0.0615 -0.0988
24050DOPS   CNO29275  28.948   2.682  15.368  0.1119 -0.0718  0.2049
24050DOPS   PO429276  28.990   2.298  15.328 -0.2232  0.4059 -0.0139
24050DOPS   GL129277  28.987   2.287  14.892 -0.0341  0.2516 -0.2540
24050DOPS   GL229278  28.860   2.034  14.810  0.0312 -0.0744 -0.1858
24050DOPS   C1A29279  28.995   2.602  14.585 -0.0591 -0.1783 -0.1354
24050DOPS   D2A29280  29.104   3.084  14.387 -0.0199  0.1471 -0.0870
24050DOPS   C3A29281  29.107   3.090  13.931  0.0605 -0.3798 -0.0617
24050DOPS   C4A29282  29.185   2.753  13.516 -0.0116  0.0927 -0.0883
24050DOPS   C1B29283  28.490   1.937  14.676 -0.0528  0.0660 -0.0103
24050DOPS   D2B29284  28.368   1.661  14.348  0.2210 -0.3170  0.0041
24050DOPS   C3B29285  28.328   1.589  13.909 -0.1367  0.1765 -0.0796
24050DOPS   C4B29286  28.606   1.584  13.500  0.0782  0.1600 -0.3479
24051DOPS   CNO29287  11.218   4.834  15.200  0.2240  0.0326  0.0039
24051DOPS   PO429288  11.497   4.975  14.964 -0.1712 -0.2646 -0.1495
24051DOPS   GL129289  11.526   4.899  14.563  0.1926 -0.2738 -0.2239
24051DOPS   GL229290  11.255   4.785  14.510  0.3318  0.2941 -0.1564
24051DOPS   C1A29291  11.618   5.244  14.226  0.2409  0.1645  0.0348
24051DOPS   D2A29292  11.957   5.298  13.799 -0.2275 -0.0307  0.3720
24051DOPS   C3A29293  11.842   5.427  13.414 -0.0321 -0.0016 -0.0083
24051DOPS   C4A29294  11.720   5.585  13.004  0.1327 -0.0048  0.1419
24051DOPS   C1B29295  11.459   4.645  14.198  0.0703 -0.1645  0.1427
24051DOPS   D2B29296  11.582   4.341  13.767 -0.2033  0.1178  0.1066
24051DOPS   C3B29297  11.938   4.396  13.420  0.3595  0.4050  0.0565
24051DOPS   C4B29298  12.390   4.366  13.269  0.0991  0.0475  0.0441
24052DOPS   CNO29299   6.827   7.613  15.517  0.2196 -0.0812 -0.0816
24052DOPS   PO429300   6.572   7.866  15.403  0.0141 -0.1820 -0.1270
24052DOPS   GL129301   6.386   7.913  14.989 -0.1359 -0.0524 -0.4035
24052DOPS   GL229302   6.556   7.805  14.865 -0.1512  0.0554 -0.2670
24052DOPS   C1A29303   6.371   8.182  14.593  0.3356 -0.2016 -0.0315
24052DOPS   D2A29304   6.209   8.338  14.155  0.1856 -0.0901  0.2180
24052DOPS   C3A29305   5.936   8.452  13.818 -0.0466 -0.1018 -0.1534
24052DOPS   C4A29306   5.657   8.629  13.467 -0.0792  0.1313 -0.1692
24052DOPS   C1B29307   6.695   7.715  14.496 -0.0251 -0.0306 -0.0019
24052DOPS   D2B29308   6.606   7.766  14.024 -0.0073  0.0846 -0.0298
24052DOPS   C3B29309   6.801   7.787  13.612  0.0187  0.0383 -0.0081
24052DOPS   C4B29310   7.065   7.543  13.271  0.0237  0.1147 -0.1228
24053DOPS   CNO29311   0.402   1.699  15.430  0.1183 -0.0783  0.3958
24053DOPS   PO429312   0.128   1.960  15.338 -0.0606  0.0083 -0.0075
24053DOPS   GL129313   0.107   1.833  15.003 -0.0480  0.1794 -0.3199
24053DOPS   GL229314   0.407   1.782  14.874 -0.1020 -0.2854 -0.0205
24053DOPS   C1A29315   0.013   2.047  14.597 -0.2283 -0.0643 -0.0925
24053DOPS   D2A29316  -0.109   2.270  14.132  0.0956 -0.0374  0.3193
24053DOPS   C3A29317   0.058   2.243  13.655 -0.0506 -0.0309 -0.0888
24053DOPS   C4A29318   0.469   2.340  13.326 -0.1649  0.2172 -0.0796
24053DOPS   C1B29319   0.294   1.600  14.529 -0.0746 -0.0083 -0.2486
24053DOPS   D2B29320   0.256   1.397  14.077  0.1757  0.1536  0.1472
24053DOPS   C3B29321  -0.022   1.640  13.773 -0.1379 -0.0653  0.1925
24053DOPS   C4B29322  -0.353   1.782  13.365 -0.0601 -0.1379 -0.2837
24054DOPS   CNO29323  25.432   2.295  15.845 -0.1210  0.0264  0.0627
24054DOPS   PO429324  25.249   2.180  15.512  0.0322 -0.0244 -0.1006
24054DOPS   GL129325  25.389   2.400  15.149 -0.2710 -0.2181 -0.3371
24054DOPS   GL229326  25.139   2.505  15.104  0.2974 -0.1731  0.1545
24054DOPS   C1A29327  25.473   2.195  14.662  0.0061 -0.2666 -0.1280
24054DOPS   D2A29328  25.358   1.846  14.402 -0.3491  0.0606  0.2987
24054DOPS   C3A29329  25.413   1.814  13.935 -0.0546  0.0426 -0.0968
24054DOPS   C4A29330  25.361   1.988  13.479  0.1848 -0.1755 -0.0793
24054DOPS   C1B29331  24.981   2.428  14.743  0.0851 -0.0397 -0.0897
24054DOPS   D2B29332  24.893   2.058  14.346  0.4896  0.1919  0.1420
24054DOPS   C3B29333  25.041   2.187  13.906  0.0583  0.1794  0.3476
24054DOPS   C4B29334  25.323   2.482  13.625  0.0523 -0.0634  0.1810
24055DOPS   CNO29335  17.864   1.258  15.015  0.1345 -0.0929  0.1889
24055DOPS   PO429336  18.090   1.534  14.843 -0.0128 -0.1809  0.1465
24055DOPS   GL129337  17.934   1.582  14.464  0.1094  0.1160 -0.1287
24055DOPS   GL229338  17.935   1.255  14.499  0.4575 -0.3172 -0.1254
24055DOPS   C1A29339  18.027   1.530  14.061 -0.0565 -0.0263 -0.0618
24055DOPS   D2A29340  18.110   1.454  13.598 -0.2547 -0.1685 -0.0719
24055DOPS   C3A29341  18.258   1.408  13.167  0.0642  0.0647 -0.1516
24055DOPS   C4A29342  18.359   1.223  12.735 -0.2765  0.0354  0.1825
24055DOPS   C1B29343  17.817   1.091  14.116  0.0787 -0.0609  0.0452
24055DOPS   D2B29344  17.591   0.899  13.726  0.0197  0.1943  0.0785
24055DOPS   C3B29345  17.886   0.556  13.861 -0.1861  0.3046 -0.1871
24055DOPS   C4B29346  18.222   0.239  13.863 -0.0261 -0.2137 -0.2102
24056DOPS   CNO29347  11.295   0.317  15.457  0.0280 -0.0123  0.2235
24056DOPS   PO429348  11.078   0.473  15.170 -0.0935 -0.0292  0.1378
24056DOPS   GL129349  11.256   0.568  14.758  0.1056  0.1629 -0.0740
24056DOPS   GL229350  11.468   0.303  14.760 -0.1137  0.0542 -0.1273
24056DOPS   C1A29351  11.074   0.838  14.421 -0.1969  0.0796  0.1158
24056DOPS   D2A29352  10.707   0.841  14.076 -0.0256 -0.2981 -0.1096
24056DOPS   C3A29353  10.778   0.829  13.620  0.0884 -0.0074 -0.1211
24056DOPS   C4A29354  10.853   0.763  13.140 -0.1483 -0.2615 -0.0022
24056DOPS   C1B29355  11.673   0.213  14.406  0.0669 -0.3366 -0.2188
24056DOPS   D2B29356  11.852  -0.041  14.012  0.0675 -0.2096  0.3321
24056DOPS   C3B29357  11.799  -0.413  13.702 -0.2229 -0.0166 -0.0520
24056DOPS   C4B29358  11.919  -0.697  13.376 -0.5201 -0.1250  0.3002
24057DOPS   CNO29359  20.818   7.740  14.461 -0.1293  0.1711 -0.0444
24057DOPS   PO429360  20.410   7.704  14.405  0.0552 -0.1205 -0.0554
24057DOPS   GL129361  20.422   7.560  14.004  0.3588 -0.4959 -0.0434
24057DOPS   GL229362  20.361   7.324  14.151  0.2371 -0.1913  0.0175
24057DOPS   C1A29363  20.258   7.660  13.585 -0.1256 -0.3770 -0.0901
24057DOPS   D2A29364  20.302   7.670  13.079 -0.2363  0.0121 -0.0437
24057DOPS   C3A29365  20.347   7.378  12.759  0.0208 -0.0148  0.3516
24057DOPS   C4A29366  20.412   7.154  12.329  0.1983  0.1916  0.0081
24057DOPS   C1B29367  20.090   7.213  13.844  0.1749  0.3058  0.1092
24057DOPS   D2B29368  19.791   7.038  13.519 -0.3090  0.0038 -0.0533
24057DOPS   C3B29369  19.445   7.124  13.232 -0.0303  0.0367 -0.0455
24057DOPS   C4B29370  19.107   7.335  12.962 -0.0403  0.0556  0.0545
24058DOPS   CNO29371  14.778   0.313  15.229 -0.0648 -0.1308  0.1358
24058DOPS   PO429372  14.513   0.534  15.044 -0.1894  0.1756 -0.0140
24058DOPS   GL129373  14.415   0.525  14.621 -0.0076 -0.1029 -0.0575
24058DOPS   GL229374  14.093   0.425  14.572 -0.0340 -0.0961  0.3489
24058DOPS   C1A29375  14.753   0.500  14.263  0.2128  0.3145 -0.2059
24058DOPS   D2A29376  14.860   0.654  13.802  0.1255 -0.0018 -0.2216
24058DOPS   C3A29377  14.748   0.615  13.412 -0.1586  0.1298  0.1340
24058DOPS   C4A29378  14.810   0.672  12.944 -0.0242 -0.0164  0.0584
24058DOPS   C1B29379  14.430   0.154  14.301 -0.0061 -0.0079  0.0451
24058DOPS   D2B29380  14.608   0.060  13.886 -0.0961 -0.1317 -0.1388
24058DOPS   C3B29381  14.679   0.070  13.430 -0.3750 -0.2591 -0.0931
24058DOPS   C4B29382  14.976   0.153  13.023  0.0461  0.0528  0.0543
24059DOPS   CNO29383  18.471   6.215  14.636 -0.1461 -0.0642 -0.1696
24059DOPS   PO429384  18.510   6.610  14.705 -0.0068 -0.0772 -0.0268
24059DOPS   GL129385  18.660   6.574  14.295 -0.2911 -0.0258  0.2248
24059DOPS   GL229386  18.765   6.850  14.173  0.0311  0.1454 -0.0963
24059DOPS   C1A29387  18.484   6.459  13.960  0.0298  0.3211  0.1908
24059DOPS   D2A29388  18.382   6.084  13.626 -0.0205 -0.1353  0.0324
24059DOPS   C3A29389  18.133   5.933  13.263  0.3383 -0.3057  0.1802
24059DOPS   C4A29390  18.069   5.484  13.119 -0.3734  0.1082  0.0094
24059DOPS   C1B29391  18.690   6.914  13.706 -0.1223 -0.0547  0.0013
24059DOPS   D2B29392  18.485   6.860  13.286 -0.1005  0.0909  0.5011
24059DOPS   C3B29393  18.030   6.817  13.083 -0.1224 -0.0141 -0.0986
24059DOPS   C4B29394  17.648   6.717  12.785 -0.3474 -0.1161 -0.1837
24060DOPS   CNO29395  14.108   6.127  15.468  0.0699  0.2660  0.0233
24060DOPS   PO429396  14.393   6.169  15.279 -0.2424 -0.2919  0.1007
24060DOPS   GL129397  14.190   6.131  14.897  0.1975  0.3328  0.1293
24060DOPS   GL229398  14.333   6.363  14.861  0.0373 -0.2782 -0.4613
24060DOPS   C1A29399  14.079   6.150  14.476 -0.1252 -0.4178  0.0350
24060DOPS   D2A29400  13.924   6.112  13.949  0.0454  0.0407 -0.2836
24060DOPS   C3A29401  13.943   5.764  13.649 -0.0048 -0.0060 -0.0143
24060DOPS   C4A29402  13.754   5.582  13.224  0.2796 -0.0422 -0.2604
24060DOPS   C1B29403  14.548   6.437  14.411  0.1140 -0.1005  0.0678
24060DOPS   D2B29404  14.793   6.451  14.006 -0.1144 -0.1496 -0.1296
24060DOPS   C3B29405  15.092   6.527  13.681 -0.0205 -0.3305  0.1354
24060DOPS   C4B29406  15.390   6.699  13.320 -0.2037 -0.1563 -0.0767
24061DOPS   CNO29407  20.810   3.003  15.167  0.3450 -0.2543 -0.3330
24061DOPS   PO429408  20.858   2.629  15.149 -0.1159  0.0157 -0.2149
24061DOPS   GL129409  20.901   2.576  14.705 -0.0965  0.1821  0.1758
24061DOPS   GL229410  20.695   2.793  14.751 -0.0176 -0.3840  0.0418
24061DOPS   C1A29411  20.744   2.247  14.409  0.2289  0.2287  0.1018
24061DOPS   D2A29412  20.459   1.836  14.202 -0.2744  0.2108  0.0224
24061DOPS   C3A29413  20.368   1.838  13.688  0.1362  0.0997  0.0268
24061DOPS   C4A29414  20.469   1.751  13.233  0.0462  0.1991  0.0986
24061DOPS   C1B29415  20.378   2.611  14.531  0.0239  0.0535 -0.1755
24061DOPS   D2B29416  20.194   2.314  14.258 -0.1115  0.1209  0.0312
24061DOPS   C3B29417  20.198   2.294  13.796 -0.3949 -0.2122 -0.0432
24061DOPS   C4B29418  20.356   2.228  13.383 -0.0365 -0.1066  0.0098
24062DOPS   CNO29419  18.975   3.995  14.802 -0.0574  0.0499  0.4203
24062DOPS   PO429420  19.261   4.229  14.747  0.3143 -0.0444  0.1207
24062DOPS   GL129421  19.316   4.493  14.468  0.3644 -0.1411  0.1393
24062DOPS   GL229422  19.544   4.336  14.345 -0.1096  0.2208 -0.1887
24062DOPS   C1A29423  18.952   4.557  14.237 -0.3147  0.1714  0.0493
24062DOPS   D2A29424  18.519   4.356  14.187 -0.3281  0.1199 -0.0583
24062DOPS   C3A29425  18.308   4.271  13.802  0.0301 -0.2174 -0.0874
24062DOPS   C4A29426  18.090   4.073  13.429  0.0543 -0.1773 -0.1797
24062DOPS   C1B29427  19.537   4.449  13.930 -0.3143  0.4226  0.1356
24062DOPS   D2B29428  19.729   4.605  13.447 -0.1405  0.1079  0.1500
24062DOPS   C3B29429  19.566   4.823  13.048 -0.2507 -0.0361 -0.0537
24062DOPS   C4B29430  19.387   4.743  12.621 -0.0819  0.2351 -0.1442
24063DOPS   CNO29431  15.741   2.892  15.314 -0.3500  0.1795  0.1968
24063DOPS   PO429432  15.796   3.141  14.992  0.1858 -0.0535 -0.1502
24063DOPS   GL129433  15.500   3.262  14.650  0.1225 -0.0995 -0.0217
24063DOPS   GL229434  15.342   2.984  14.622 -0.0131  0.0667 -0.2134
24063DOPS   C1A29435  15.592   3.138  14.269  0.1015  0.0686  0.1341
24063DOPS   D2A29436  15.673   3.112  13.723 -0.0277 -0.2108 -0.0277
24063DOPS   C3A29437  15.740   2.859  13.339 -0.0767  0.0544 -0.0705
24063DOPS   C4A29438  15.711   2.654  12.928  0.1716 -0.0247  0.0794
24063DOPS   C1B29439  15.128   2.923  14.258  0.3420  0.1944 -0.1162
24063DOPS   D2B29440  14.996   2.993  13.793  0.1189 -0.1902  0.3289
24063DOPS   C3B29441  15.022   2.848  13.431  0.2765  0.0858 -0.1416
24063DOPS   C4B29442  15.258   2.590  13.127  0.0708  0.2936  0.1623
24064DOPS   CNO29443  19.210   2.957  14.900  0.0195  0.2709  0.3646
24064DOPS   PO429444  19.013   3.107  14.615 -0.3869 -0.1402 -0.1075
24064DOPS   GL129445  19.231   3.002  14.210 -0.0035 -0.0347 -0.1688
24064DOPS   GL229446  19.008   3.234  14.176 -0.3836 -0.2174  0.1477
24064DOPS   C1A29447  19.290   2.684  13.896 -0.1426 -0.1255 -0.2153
24064DOPS   D2A29448  19.307   2.522  13.434  0.1038  0.0359 -0.0712
24064DOPS   C3A29449  19.475   2.209  13.202 -0.2813  0.0395  0.2076
24064DOPS   C4A29450  19.569   1.944  12.772  0.0564 -0.1313 -0.2465
24064DOPS   C1B29451  18.842   3.334  13.709  0.3896  0.3019 -0.0537
24064DOPS   D2B29452  18.636   3.409  13.280 -0.1405 -0.1690  0.3767
24064DOPS   C3B29453  18.678   3.744  12.993  0.2277 -0.0084  0.2693
24064DOPS   C4B29454  18.843   4.194  12.840 -0.2293 -0.1754  0.0940
24065DOPS   CNO29455   1.712   3.626  15.748 -0.1013 -0.0513 -0.2899
24065DOPS   PO429456   1.418   3.820  15.591  0.0957  0.1378  0.3917
24065DOPS   GL129457   1.431   4.003  15.196 -0.3815  0.1358  0.3412
24065DOPS   GL229458   1.669   3.926  15.201 -0.3437  0.0595  0.3530
24065DOPS   C1A29459   1.396   3.965  14.777 -0.0080 -0.1128 -0.1108
24065DOPS   D2A29460   1.174   3.952  14.318 -0.0143  0.1357 -0.3144
24065DOPS   C3A29461   1.382   4.185  13.956  0.1733 -0.0413  0.0734
24065DOPS   C4A29462   1.191   4.603  13.732 -0.0225  0.1881 -0.1291
24065DOPS   C1B29463   1.874   4.167  14.899 -0.0800  0.0205  0.0915
24065DOPS   D2B29464   1.776   4.033  14.402 -0.2928 -0.0826  0.1386
24065DOPS   C3B29465   1.891   4.417  14.120  0.1319  0.1306  0.4156
24065DOPS   C4B29466   2.074   4.630  13.653 -0.0248  0.0947 -0.0901
24066DOPS   CNO29467  24.455   3.975  15.792 -0.1785 -0.1024 -0.1046
24066DOPS   PO429468  24.721   3.872  15.527  0.2205  0.1043  0.0885
24066DOPS   GL129469  24.557   3.776  15.136 -0.1248 -0.0856 -0.0027
24066DOPS   GL229470  24.869   3.808  15.076 -0.0919  0.1283  0.1947
24066DOPS   C1A29471  24.250   3.768  14.848 -0.1450  0.0818 -0.1106
24066DOPS   D2A29472  24.000   3.404  14.569 -0.0081 -0.1572  0.2425
24066DOPS   C3A29473  24.176   3.348  14.092 -0.0579 -0.0281 -0.0001
24066DOPS   C4A29474  24.187   3.284  13.592 -0.0142  0.0384  0.2711
24066DOPS   C1B29475  24.703   4.004  14.761  0.1772  0.2247  0.1746
24066DOPS   D2B29476  24.838   4.018  14.321 -0.1105 -0.4256  0.0406
24066DOPS   C3B29477  25.077   4.105  13.940 -0.0368  0.0118  0.0572
24066DOPS   C4B29478  25.233   4.178  13.491  0.1285 -0.1101 -0.2615
24067DOPS   CNO29479  26.566   2.093  15.214  0.1356  0.0770  0.0025
24067DOPS   PO429480  26.437   2.343  14.961  0.1651  0.1685  0.0073
24067DOPS   GL129481  26.201   2.222  14.570 -0.0579  0.0309  0.1050
24067DOPS   GL229482  26.362   2.403  14.506  0.1878  0.1654 -0.2183
24067DOPS   C1A29483  26.273   1.931  14.274  0.1349  0.3851 -0.0920
24067DOPS   D2A29484  26.454   1.744  13.857  0.0157 -0.1505 -0.1003
24067DOPS   C3A29485  26.859   1.642  13.720  0.1935 -0.0316 -0.0199
24067DOPS   C4A29486  27.367   1.651  13.716  0.1024  0.1569  0.2653
24067DOPS   C1B29487  26.280   2.497  14.099 -0.1343 -0.1027  0.4555
24067DOPS   D2B29488  26.107   2.670  13.672  0.0834 -0.1415 -0.1897
24067DOPS   C3B29489  25.927   2.403  13.387 -0.1406  0.0911 -0.0528
24067DOPS   C4B29490  25.554   2.205  13.093 -0.0836  0.1427  0.1846
24068DOPS   CNO29491   1.868   0.364  15.909 -0.0675 -0.3276 -0.0161
24068DOPS   PO429492   2.194   0.451  15.749  0.1816  0.0469 -0.0519
24068DOPS   GL129493   2.318   0.261  15.390 -0.2197  0.2319  0.1564
24068DOPS   GL229494   2.079   0.343  15.275  0.1433 -0.3538 -0.0311
24068DOPS   C1A29495   2.497   0.246  14.958 -0.1528  0.0458  0.1523
24068DOPS   D2A29496   2.721   0.440  14.546  0.1486 -0.1142 -0.0029
24068DOPS   C3A29497   2.665   0.579  14.124 -0.2203  0.0839  0.2484
24068DOPS   C4A29498   2.280   0.491  13.825  0.0492  0.0950 -0.0023
24068DOPS   C1B29499   1.979   0.440  14.818 -0.1927 -0.0889  0.0767
24068DOPS   D2B29500   2.218   0.488  14.419 -0.0011 -0.1431  0.0165
24068DOPS   C3B29501   2.000   0.185  14.152 -0.0275  0.0853 -0.0696
24068DOPS   C4B29502   1.994  -0.188  13.856 -0.1774 -0.1625  0.0711
24069DOPS   CNO29503   6.464   1.054  15.278 -0.1408 -0.2505 -0.0740
24069DOPS   PO429504   6.784   0.891  15.122  0.1006  0.0730  0.1474
24069DOPS   GL129505   6.534   0.969  14.844 -0.1775  0.0233 -0.4870
24069DOPS   GL229506   6.793   1.185  14.783 -0.1305 -0.0252  0.0402
24069DOPS   C1A29507   6.506   0.787  14.422 -0.0871  0.1606 -0.3731
24069DOPS   D2A29508   6.445   0.857  13.863  0.0410  0.2685  0.1868
24069DOPS   C3A29509   6.626   1.180  13.550 -0.1469  0.1725  0.2723
24069DOPS   C4A29510   6.819   1.363  13.074  0.2326 -0.0715 -0.1868
24069DOPS   C1B29511   6.852   1.145  14.366 -0.1635 -0.1917  0.1648
24069DOPS   D2B29512   6.962   1.029  13.887  0.1541  0.0238  0.1801
24069DOPS   C3B29513   7.104   1.071  13.416  0.0525 -0.0774 -0.0413
24069DOPS   C4B29514   7.230   0.926  12.917  0.2121  0.0669  0.0217
24070DOPS   CNO29515  26.863   2.485  15.292  0.2050 -0.1802 -0.1734
24070DOPS   PO429516  27.243   2.574  15.271  0.0844  0.1794  0.3535
24070DOPS   GL129517  27.420   2.530  14.877  0.0173 -0.0753 -0.4656
24070DOPS   GL229518  27.116   2.577  14.713 -0.1455  0.0462  0.3460
24070DOPS   C1A29519  27.601   2.188  14.691 -0.1482  0.2576 -0.1013
24070DOPS   D2A29520  27.568   1.947  14.278 -0.1171 -0.1018 -0.0479
24070DOPS   C3A29521  27.764   1.928  13.884  0.2405 -0.0223 -0.0308
24070DOPS   C4A29522  27.995   1.842  13.450  0.2204  0.0715 -0.1140
24070DOPS   C1B29523  27.195   2.395  14.360 -0.1545 -0.0702 -0.1302
24070DOPS   D2B29524  27.122   1.962  14.066  0.2689 -0.0011  0.0722
24070DOPS   C3B29525  26.799   1.675  14.230 -0.2807 -0.1518 -0.2164
24070DOPS   C4B29526  26.304   1.457  14.219 -0.2732 -0.1269 -0.0920
24071DOPS   CNO29527  21.383   3.940  15.113 -0.0671 -0.0861  0.2224
24071DOPS   PO429528  21.553   4.095  14.814  0.1229  0.0965  0.2353
24071DOPS   GL129529  21.521   4.073  14.438  0.1427  0.2792 -0.0558
24071DOPS   GL229530  21.722   4.229  14.314 -0.0995 -0.1272 -0.0943
24071DOPS   C1A29531  21.275   4.039  14.119  0.0183 -0.1797  0.2484
24071DOPS   D2A29532  21.126   4.072  13.667 -0.4326 -0.2420 -0.0319
24071DOPS   C3A29533  21.031   3.765  13.268  0.0269  0.2655  0.3860
24071DOPS   C4A29534  20.932   3.646  12.785 -0.1558  0.0505  0.1153
24071DOPS   C1B29535  21.936   4.630  14.224  0.0013 -0.1827  0.1086
24071DOPS   D2B29536  22.349   4.642  13.993  0.3074 -0.3025 -0.3301
24071DOPS   C3B29537  22.599   4.325  13.709 -0.0734 -0.1438 -0.0996
24071DOPS   C4B29538  22.805   4.230  13.248 -0.1894  0.1075  0.1352
24072DOPS   CNO29539  14.531   1.865  15.043  0.1100  0.0131 -0.1985
24072DOPS   PO429540  14.220   1.786  14.844 -0.0186 -0.0548 -0.0994
24072DOPS   GL129541  14.152   1.881  14.536 -0.0587 -0.3574 -0.1987
24072DOPS   GL229542  14.013   2.113  14.559 -0.2154  0.3968  0.0804
24072DOPS   C1A29543  14.341   1.696  14.169 -0.0368  0.0725  0.0784
24072DOPS   D2A29544  14.343   1.637  13.693 -0.2383 -0.2360  0.3645
24072DOPS   C3A29545  14.243   1.356  13.403  0.1259 -0.2349  0.2359
24072DOPS   C4A29546  14.546   1.015  13.177  0.1781  0.0592 -0.3715
24072DOPS   C1B29547  13.820   2.094  14.169  0.1324 -0.4318 -0.1222
24072DOPS   D2B29548  13.795   1.756  13.727 -0.3798 -0.0143 -0.1411
24072DOPS   C3B29549  14.048   1.836  13.327  0.2337  0.0540 -0.2814
24072DOPS   C4B29550  14.187   1.934  12.866 -0.0381  0.0860  0.0287
24073DOPS   CNO29551  11.784   5.929  14.952  0.1049 -0.0502  0.1760
24073DOPS   PO429552  12.125   6.142  14.891  0.2670 -0.1003  0.0594
24073DOPS   GL129553  12.214   6.124  14.488  0.3088 -0.2079  0.2283
24073DOPS   GL229554  12.342   6.368  14.480 -0.2065  0.3033  0.0342
24073DOPS   C1A29555  12.418   5.882  14.191  0.0868  0.0556 -0.1493
24073DOPS   D2A29556  12.408   5.468  13.907  0.0289 -0.0558  0.0999
24073DOPS   C3A29557  12.326   5.330  13.435 -0.0773  0.2291  0.1927
24073DOPS   C4A29558  12.172   5.197  12.959 -0.2541 -0.0634 -0.1806
24073DOPS   C1B29559  12.271   6.479  14.033 -0.0784  0.1723  0.1436
24073DOPS   D2B29560  12.163   6.738  13.539  0.0191 -0.1080  0.0424
24073DOPS   C3B29561  12.363   6.663  13.078 -0.0288  0.1597 -0.0291
24073DOPS   C4B29562  12.783   6.749  12.875  0.2198  0.1004  0.0438
24074DOPS   CNO29563   2.639   3.566  15.536 -0.0027 -0.1180  0.0962
24074DOPS   PO429564   2.643   3.201  15.591 -0.1097  0.1119  0.0185
24074DOPS   GL129565   2.875   3.133  15.225 -0.0508 -0.1982  0.0881
24074DOPS   GL229566   2.660   2.910  15.174  0.5647  0.1189 -0.2473
24074DOPS   C1A29567   2.842   3.289  14.743 -0.2799 -0.2072 -0.0600
24074DOPS   D2A29568   2.956   2.926  14.351 -0.2678 -0.0774  0.1426
24074DOPS   C3A29569   2.704   2.594  14.138 -0.2026 -0.0061 -0.1303
24074DOPS   C4A29570   2.425   2.520  13.770 -0.1660 -0.0451  0.3577
24074DOPS   C1B29571   2.595   2.855  14.724  0.3959  0.0244 -0.0651
24074DOPS   D2B29572   2.444   3.066  14.296  0.0671  0.0134  0.1298
24074DOPS   C3B29573   2.188   2.961  13.977  0.0272 -0.2589 -0.0387
24074DOPS   C4B29574   1.949   2.672  13.635 -0.4078 -0.0152  0.0931
24075DOPC   NC329575   4.505   7.637  11.394 -0.2649 -0.0771 -0.2560
24075DOPC   PO429576   4.903   7.625  11.485  0.2072 -0.0628  0.3814
24075DOPC   GL129577   5.149   7.691  11.787  0.1039 -0.2580  0.0952
24075DOPC   GL229578   5.294   7.430  11.792 -0.0004  0.0103  0.0005
24075DOPC   C1A29579   5.454   7.871  12.105  0.0663 -0.0688 -0.0302
24075DOPC   D2A29580   5.558   8.122  12.562 -0.0038  0.1773 -0.0509
24075DOPC   C3A29581   5.521   7.799  12.865 -0.1894 -0.1113 -0.0249
24075DOPC   C4A29582   5.384   7.482  13.255  0.0067  0.0605  0.0886
24075DOPC   C1B29583   5.327   7.374  12.236  0.2058 -0.0797  0.3181
24075DOPC   D2B29584   5.498   7.315  12.735 -0.1309  0.1437 -0.1841
24075DOPC   C3B29585   5.441   6.981  13.072 -0.0225  0.0305  0.1536
24075DOPC   C4B29586   5.307   6.723  13.479 -0.0247 -0.1930  0.1416
24076DOPC   NC329587  21.944   1.718  10.925 -0.3166 -0.1920  0.2302
24076DOPC   PO429588  22.104   1.390  10.816 -0.1270 -0.0248  0.1044
24076DOPC   GL129589  22.228   1.294  11.243 -0.1734  0.2972  0.1234
24076DOPC   GL229590  22.006   1.452  11.369  0.1519  0.0311  0.1142
24076DOPC   C1A29591  22.141   0.898  11.443 -0.2352 -0.5396  0.0911
24076DOPC   D2A29592  22.105   0.390  11.611 -0.0152 -0.1729 -0.2494
24076DOPC   C3A29593  22.008   0.381  12.096  0.2429 -0.3015  0.0501
24076DOPC   C4A29594  21.944   0.318  12.549  0.1133  0.2689  0.2635
24076DOPC   C1B29595  21.966   1.284  11.718  0.3656 -0.0849 -0.2307
24076DOPC   D2B29596  22.030   1.288  12.258  0.1073  0.2279 -0.0759
24076DOPC   C3B29597  22.324   1.155  12.604  0.1260 -0.2734  0.2509
24076DOPC   C4B29598  22.652   1.019  12.884  0.1493  0.0652 -0.1983
24077DOPC   NC329599  27.758   3.732  11.070 -0.0291  0.3385  0.0815
24077DOPC   PO429600  27.855   3.653  11.436 -0.0687  0.1522  0.1129
24077DOPC   GL129601  27.883   3.375  11.818  0.1742 -0.0207 -0.0685
24077DOPC   GL229602  27.701   3.148  11.711  0.3356  0.0033  0.2691
24077DOPC   C1A29603  27.913   3.317  12.241  0.1444 -0.1040 -0.3144
24077DOPC   D2A29604  27.726   3.410  12.692  0.1317  0.1702 -0.1262
24077DOPC   C3A29605  27.862   3.161  13.035 -0.1053  0.0711  0.1678
24077DOPC   C4A29606  27.967   3.007  13.472  0.1530  0.2271 -0.0038
24077DOPC   C1B29607  27.669   2.905  12.100  0.1357  0.0112  0.2101
24077DOPC   D2B29608  27.491   2.532  12.366 -0.0452  0.0225 -0.2817
24077DOPC   C3B29609  27.128   2.539  12.648  0.0151  0.1243  0.2643
24077DOPC   C4B29610  26.818   2.389  12.993 -0.0667  0.0855 -0.1976
24078DOPC   NC329611  24.864   7.678  10.997 -0.0317  0.0791  0.0029
24078DOPC   PO429612  24.941   7.982  11.264  0.3143 -0.2108  0.0124
24078DOPC   GL129613  24.732   8.018  11.672  0.1346  0.1429 -0.0861
24078DOPC   GL229614  24.988   7.824  11.807  0.2825 -0.1274  0.3098
24078DOPC   C1A29615  24.615   7.996  12.125  0.0243  0.0059 -0.0051
24078DOPC   D2A29616  24.460   8.196  12.544  0.0173 -0.3688 -0.0332
24078DOPC   C3A29617  24.715   8.312  12.926 -0.5647  0.0563 -0.0582
24078DOPC   C4A29618  25.097   8.277  13.227 -0.1302 -0.0606  0.0758
24078DOPC   C1B29619  25.357   7.856  12.038  0.0120  0.0603 -0.4771
24078DOPC   D2B29620  25.860   7.766  12.152 -0.0435 -0.1305  0.0510
24078DOPC   C3B29621  25.829   7.542  12.531 -0.0329 -0.1174  0.2836
24078DOPC   C4B29622  25.904   7.420  13.065 -0.1314  0.1699 -0.1341
24079DOPC   NC329623  24.713   3.865  10.450  0.0174  0.0095 -0.3513
24079DOPC   PO429624  24.789   3.753  10.836  0.3914  0.3198  0.0429
24079DOPC   GL129625  24.512   3.532  11.105 -0.0697 -0.1432 -0.2505
24079DOPC   GL229626  24.517   3.730  11.265 -0.1697 -0.5527  0.0974
24079DOPC   C1A29627  24.277   3.224  11.288 -0.0739  0.0276  0.0809
24079DOPC   D2A29628  23.962   3.163  11.661 -0.1676  0.1709 -0.1244
24079DOPC   C3A29629  23.914   3.348  12.103  0.1326  0.1327  0.0711
24079DOPC   C4A29630  24.074   3.279  12.613 -0.0594  0.2561  0.0929
24079DOPC   C1B29631  24.624   3.563  11.653  0.1429 -0.2292 -0.2306
24079DOPC   D2B29632  24.875   3.545  12.091 -0.1497 -0.0756  0.2851
24079DOPC   C3B29633  24.711   3.244  12.404  0.4316  0.1822  0.0179
24079DOPC   C4B29634  24.702   3.188  12.875  0.0095  0.3544  0.0023
24080DOPC   NC329635  13.723   6.160  10.996  0.0307  0.1009 -0.2051
24080DOPC   PO429636  13.932   6.466  10.871 -0.2148  0.0287  0.1068
24080DOPC   GL129637  13.850   6.672  11.107 -0.2895 -0.1922  0.1261
24080DOPC   GL229638  14.156   6.749  11.109  0.0536 -0.3076  0.3096
24080DOPC   C1A29639  13.597   6.514  11.458  0.2864  0.0082 -0.0567
24080DOPC   D2A29640  13.185   6.711  11.703 -0.0376 -0.0507 -0.0433
24080DOPC   C3A29641  13.317   6.835  12.133  0.3465  0.0807 -0.0780
24080DOPC   C4A29642  13.165   6.894  12.589  0.2722 -0.0809  0.0640
24080DOPC   C1B29643  14.155   6.779  11.543 -0.0576  0.0558 -0.1328
24080DOPC   D2B29644  14.347   6.926  11.973  0.2196  0.4761  0.1435
24080DOPC   C3B29645  14.189   6.712  12.377 -0.0265  0.0889  0.3239
24080DOPC   C4B29646  14.112   6.509  12.769  0.0318  0.2447 -0.1712
24081DOPC   NC329647  23.940   3.703  10.538 -0.1119  0.1799  0.1976
24081DOPC   PO429648  24.268   3.877  10.685  0.2635  0.0409 -0.2120
24081DOPC   GL129649  24.195   3.980  11.088 -0.2054  0.2379  0.2598
24081DOPC   GL229650  24.198   4.210  11.174 -0.1180 -0.1765 -0.0292
24081DOPC   C1A29651  24.115   3.671  11.453 -0.0764 -0.0674 -0.1665
24081DOPC   D2A29652  24.315   3.752  11.929 -0.1752 -0.3270 -0.3225
24081DOPC   C3A29653  24.354   3.624  12.428 -0.2546  0.0367 -0.0395
24081DOPC   C4A29654  24.310   3.594  12.945 -0.2974  0.1187  0.1440
24081DOPC   C1B29655  24.171   4.199  11.664 -0.2020  0.1571  0.3992
24081DOPC   D2B29656  24.146   4.230  12.129 -0.1179 -0.0213 -0.0148
24081DOPC   C3B29657  24.095   4.233  12.600 -0.2263 -0.0794 -0.0688
24081DOPC   C4B29658  24.279   4.087  13.053 -0.1523 -0.2539 -0.2221
24082DOPC   NC329659  17.443   3.463  10.319  0.0755 -0.0422 -0.1250
24082DOPC   PO429660  17.161   3.511  10.610 -0.3067  0.0643 -0.1337
24082DOPC   GL129661  17.135   3.439  11.074 -0.2529  0.2652 -0.3730
24082DOPC   GL229662  16.847   3.498  11.084  0.1147  0.0604  0.2287
24082DOPC   C1A29663  17.282   3.667  11.305 -0.0522 -0.0236 -0.1197
24082DOPC   D2A29664  17.182   3.929  11.785  0.0129 -0.3321 -0.0100
24082DOPC   C3A29665  17.276   3.680  12.147 -0.1915  0.0955 -0.0834
24082DOPC   C4A29666  17.500   3.410  12.454 -0.0387  0.0960 -0.1164
24082DOPC   C1B29667  16.812   3.678  11.517 -0.1612  0.1171 -0.1503
24082DOPC   D2B29668  16.716   3.556  12.037  0.0070 -0.0772  0.1390
24082DOPC   C3B29669  16.466   3.753  12.412 -0.1294  0.0820  0.2348
24082DOPC   C4B29670  16.392   4.041  12.725 -0.0165  0.0005 -0.3099
24083DOPC   NC329671  31.247   1.967  11.084 -0.2211  0.0289  0.0082
24083DOPC   PO429672  31.467   1.900  11.388  0.2835 -0.0881 -0.0699
24083DOPC   GL129673  31.348   1.868  11.840 -0.0556  0.2210  0.0031
24083DOPC   GL229674  31.371   1.564  11.799  0.1163 -0.2681 -0.1287
24083DOPC   C1A29675  31.344   1.900  12.295  0.0875  0.0105 -0.0794
24083DOPC   D2A29676  31.280   1.812  12.800 -0.0021 -0.1518 -0.1577
24083DOPC   C3A29677  31.491   1.908  13.188 -0.1776 -0.1437 -0.2509
24083DOPC   C4A29678  31.739   1.765  13.653  0.0592  0.1119  0.1672
24083DOPC   C1B29679  31.225   1.430  12.181  0.0086 -0.0194 -0.1835
24083DOPC   D2B29680  31.300   1.345  12.607  0.0357  0.1611 -0.2259
24083DOPC   C3B29681  31.214   1.346  13.090 -0.0969  0.0150 -0.1872
24083DOPC   C4B29682  31.164   1.042  13.469  0.1527  0.0588 -0.0522
24084DOPC   NC329683   3.958   0.687  12.124  0.1946 -0.1633 -0.0521
24084DOPC   PO429684   3.992   0.471  11.802  0.3706 -0.0301 -0.1327
24084DOPC   GL129685   4.173   0.139  12.020  0.1859 -0.1981  0.3810
24084DOPC   GL229686   4.319   0.322  12.120  0.1851 -0.3195 -0.0512
24084DOPC   C1A29687   3.996  -0.095  12.295  0.0232  0.1873 -0.2503
24084DOPC   D2A29688   3.866  -0.200  12.778 -0.0299 -0.1290 -0.1167
24084DOPC   C3A29689   4.007  -0.176  13.099 -0.0390  0.2665  0.1226
24084DOPC   C4A29690   4.103  -0.444  13.478  0.2854 -0.0679 -0.1526
24084DOPC   C1B29691   4.130   0.261  12.520  0.2406 -0.3511  0.1583
24084DOPC   D2B29692   4.054   0.332  12.980  0.0144  0.2483  0.0505
24084DOPC   C3B29693   4.104   0.468  13.424  0.1509  0.2821  0.1601
24084DOPC   C4B29694   4.052   0.607  13.985  0.1336  0.1155 -0.0435
24085DOPC   NC329695  22.926   1.751  10.578  0.1961  0.0783  0.2722
24085DOPC   PO429696  22.692   1.779  10.906  0.1598  0.2868  0.2546
24085DOPC   GL129697  22.742   1.833  11.355 -0.1167  0.1771 -0.0963
24085DOPC   GL229698  22.934   2.102  11.268 -0.3415  0.0722  0.0514
24085DOPC   C1A29699  22.524   2.044  11.732 -0.1520  0.0125 -0.2383
24085DOPC   D2A29700  22.383   2.143  12.248  0.2363 -0.2532  0.1200
24085DOPC   C3A29701  22.433   2.399  12.582  0.0816 -0.0477  0.1664
24085DOPC   C4A29702  22.495   2.775  12.847  0.0676 -0.0114  0.0849
24085DOPC   C1B29703  22.705   2.408  11.486  0.0917  0.0399  0.2302
24085DOPC   D2B29704  22.377   2.568  11.828 -0.0485 -0.0941 -0.0679
24085DOPC   C3B29705  22.792   2.433  12.048  0.1098 -0.0650 -0.1134
24085DOPC   C4B29706  23.182   2.218  12.298  0.0716  0.0364  0.1763
24086DOPC   NC329707  14.721   1.887  10.618 -0.0890 -0.1981 -0.2409
24086DOPC   PO429708  14.559   2.160  10.844 -0.0011  0.0954 -0.4890
24086DOPC   GL129709  14.274   2.175  11.190  0.0662 -0.0814 -0.1001
24086DOPC   GL229710  14.407   1.967  11.304 -0.0577 -0.0480  0.3501
24086DOPC   C1A29711  14.216   2.396  11.611 -0.2485 -0.2949 -0.1129
24086DOPC   D2A29712  14.410   2.660  12.023  0.1925  0.3215 -0.0792
24086DOPC   C3A29713  14.814   2.982  12.035  0.1911 -0.0036  0.0718
24086DOPC   C4A29714  15.029   3.380  12.171  0.0127 -0.3499  0.1156
24086DOPC   C1B29715  14.692   2.064  11.658 -0.1943  0.0939  0.1330
24086DOPC   D2B29716  14.863   2.352  12.068 -0.0207  0.2552 -0.1322
24086DOPC   C3B29717  14.787   2.627  12.425 -0.1331 -0.1548 -0.1026
24086DOPC   C4B29718  14.932   2.819  12.862 -0.2716 -0.0876 -0.0083
24087DOPC   NC329719  22.983   3.554  10.627  0.1979 -0.0254  0.2952
24087DOPC   PO429720  23.226   3.294  10.824 -0.1164  0.0164 -0.1016
24087DOPC   GL129721  23.316   3.399  11.202 -0.3067 -0.1702  0.2004
24087DOPC   GL229722  23.051   3.224  11.288  0.2789 -0.1826 -0.2517
24087DOPC   C1A29723  23.542   3.549  11.542 -0.1840 -0.0863  0.4736
24087DOPC   D2A29724  23.824   3.797  11.860 -0.0355  0.0988 -0.1816
24087DOPC   C3A29725  23.904   3.795  12.367  0.0481  0.4586  0.1674
24087DOPC   C4A29726  23.868   3.783  12.844 -0.2656  0.0110 -0.0507
24087DOPC   C1B29727  23.125   3.262  11.670 -0.3184  0.1114  0.0546
24087DOPC   D2B29728  23.425   3.561  12.007 -0.2138 -0.0191 -0.3655
24087DOPC   C3B29729  23.499   3.305  12.372 -0.1231 -0.0008 -0.1118
24087DOPC   C4B29730  23.504   3.165  12.782  0.1867  0.1807  0.2196
24088DOPC   NC329731   9.167   2.286  10.514 -0.0123  0.1215  0.2140
24088DOPC   PO429732   8.895   2.071  10.650  0.1368  0.1091  0.1948
24088DOPC   GL129733   8.882   2.015  11.051 -0.0122  0.3142  0.1723
24088DOPC   GL229734   9.149   1.947  11.153  0.0496 -0.0562 -0.0686
24088DOPC   C1A29735   8.564   1.934  11.375  0.2123 -0.2038 -0.2290
24088DOPC   D2A29736   8.569   2.001  11.834 -0.0685  0.3275  0.0618
24088DOPC   C3A29737   8.682   1.869  12.264  0.1695  0.1997  0.4751
24088DOPC   C4A29738   9.110   1.930  12.594  0.1664 -0.0235 -0.0111
24088DOPC   C1B29739   8.979   2.132  11.619  0.0205 -0.1258  0.4303
24088DOPC   D2B29740   9.005   2.190  12.109  0.0136 -0.1540  0.3013
24088DOPC   C3B29741   9.195   2.477  12.429 -0.1459  0.0186 -0.2237
24088DOPC   C4B29742   9.364   2.757  12.744  0.1792 -0.2406 -0.0283
24089DOPC   NC329743   4.480   5.307  11.524  0.1395 -0.0390  0.4662
24089DOPC   PO429744   4.567   5.719  11.496 -0.0961  0.1795 -0.1065
24089DOPC   GL129745   4.526   5.929  11.830 -0.0709 -0.2212  0.0532
24089DOPC   GL229746   4.827   5.880  11.924  0.2693  0.1726 -0.0051
24089DOPC   C1A29747   4.331   5.951  12.217 -0.0777 -0.0359  0.3245
24089DOPC   D2A29748   4.093   5.861  12.619  0.0938  0.0018 -0.0757
24089DOPC   C3A29749   4.128   5.590  12.959  0.3076  0.1267  0.3715
24089DOPC   C4A29750   4.283   5.478  13.442 -0.2093  0.0099  0.0383
24089DOPC   C1B29751   4.889   5.983  12.378 -0.1787  0.6031 -0.1100
24089DOPC   D2B29752   4.831   5.786  12.804  0.1729  0.0003 -0.2546
24089DOPC   C3B29753   4.738   5.686  13.254 -0.3612 -0.0101  0.0308
24089DOPC   C4B29754   4.687   5.743  13.743  0.0605 -0.0476 -0.2369
24090DOPC   NC329755  22.306   6.734  10.645  0.2615  0.3151 -0.3231
24090DOPC   PO429756  21.973   6.724  10.406  0.2486  0.0349 -0.3026
24090DOPC   GL129757  21.780   6.819  10.759  0.2234 -0.3220  0.1419
24090DOPC   GL229758  21.916   6.697  10.967  0.0128  0.0695  0.2869
24090DOPC   C1A29759  21.519   6.968  11.033 -0.0555  0.0510  0.0104
24090DOPC   D2A29760  21.446   7.108  11.543 -0.3424 -0.1156  0.1672
24090DOPC   C3A29761  21.757   6.869  11.862 -0.1961 -0.1092  0.3133
24090DOPC   C4A29762  21.940   7.042  12.304 -0.0942  0.1172  0.1896
24090DOPC   C1B29763  21.722   6.566  11.313  0.1303 -0.4909  0.0750
24090DOPC   D2B29764  21.380   6.655  11.714 -0.2757  0.1196  0.0665
24090DOPC   C3B29765  21.317   6.933  12.094  0.1392 -0.1909 -0.4776
24090DOPC   C4B29766  21.344   7.238  12.446 -0.0475  0.2351  0.1948
24091DOPC   NC329767   2.682   1.361  11.672  0.1817  0.0580 -0.0298
24091DOPC   PO429768   2.619   0.966  11.650  0.0622 -0.1421  0.0610
24091DOPC   GL129769   2.676   0.927  11.995  0.0818  0.3349 -0.0039
24091DOPC   GL229770   2.704   1.223  12.060  0.3786  0.1109  0.0631
24091DOPC   C1A29771   2.476   0.886  12.378  0.2681 -0.0820  0.0568
24091DOPC   D2A29772   2.097   0.714  12.625  0.2298  0.4138  0.3249
24091DOPC   C3A29773   2.135   0.549  13.033 -0.0258 -0.1404 -0.0136
24091DOPC   C4A29774   2.261   0.223  13.388 -0.2232  0.4064  0.1297
24091DOPC   C1B29775   2.981   1.129  12.390 -0.1274  0.3598  0.0622
24091DOPC   D2B29776   3.100   1.071  12.897 -0.3680 -0.0822  0.0169
24091DOPC   C3B29777   3.375   1.280  13.171  0.0019 -0.0561  0.0722
24091DOPC   C4B29778   3.831   1.270  13.339 -0.2793 -0.0036  0.1399
24092DOPC   NC329779  29.644   4.083  11.507  0.1662  0.0100 -0.0167
24092DOPC   PO429780  29.759   3.698  11.459 -0.0012  0.0326  0.3743
24092DOPC   GL129781  29.705   3.229  11.680 -0.2431 -0.1810  0.1972
24092DOPC   GL229782  29.610   3.366  11.791  0.1877 -0.2690  0.0789
24092DOPC   C1A29783  29.985   3.102  11.991  0.1363  0.1712 -0.0710
24092DOPC   D2A29784  30.271   3.046  12.385 -0.1410  0.1371 -0.0506
24092DOPC   C3A29785  30.274   2.616  12.631 -0.0901  0.1450 -0.0164
24092DOPC   C4A29786  30.351   2.150  12.687  0.0818 -0.4143  0.0271
24092DOPC   C1B29787  29.576   3.312  12.215 -0.0662  0.0543 -0.2889
24092DOPC   D2B29788  29.574   3.063  12.686 -0.0991  0.1167 -0.2108
24092DOPC   C3B29789  29.497   2.857  13.091  0.0686 -0.1203 -0.0241
24092DOPC   C4B29790  29.530   2.458  13.337  0.1662 -0.2742  0.0824
24093DOPC   NC329791   1.315   4.259  11.876  0.0907 -0.0304 -0.2926
24093DOPC   PO429792   1.103   4.524  11.703 -0.1107  0.0041  0.0114
24093DOPC   GL129793   0.975   4.656  12.031  0.3466 -0.2396  0.0094
24093DOPC   GL229794   0.683   4.618  12.098 -0.0652 -0.1975 -0.0684
24093DOPC   C1A29795   1.229   4.871  12.363  0.1426  0.1341 -0.1974
24093DOPC   D2A29796   1.092   5.201  12.729  0.1223  0.1000  0.2555
24093DOPC   C3A29797   1.078   5.573  13.042  0.0438  0.1128  0.2645
24093DOPC   C4A29798   1.245   5.870  13.398  0.0224 -0.1839 -0.1148
24093DOPC   C1B29799   0.793   4.529  12.495 -0.2456 -0.0051 -0.1302
24093DOPC   D2B29800   0.926   4.673  12.886 -0.0966  0.0460 -0.2698
24093DOPC   C3B29801   0.886   5.123  13.165 -0.1557  0.4259  0.0034
24093DOPC   C4B29802   0.795   5.543  13.424  0.0576 -0.0696  0.1256
24094DOPC   NC329803  13.842   5.202  10.847 -0.1629 -0.3320 -0.1350
24094DOPC   PO429804  13.690   4.952  11.128  0.2725  0.1942 -0.1694
24094DOPC   GL129805  13.567   5.007  11.532 -0.1839  0.2472 -0.3380
24094DOPC   GL229806  13.351   5.189  11.561 -0.2987 -0.1756 -0.0892
24094DOPC   C1A29807  13.689   4.642  11.834  0.0312 -0.1751  0.1634
24094DOPC   D2A29808  13.956   4.278  12.094 -0.0640  0.0786  0.1651
24094DOPC   C3A29809  14.065   4.185  12.588 -0.2097  0.0925  0.0343
24094DOPC   C4A29810  14.193   4.342  13.054  0.0551  0.0997  0.1385
24094DOPC   C1B29811  13.540   5.092  11.960 -0.1168  0.0129 -0.3699
24094DOPC   D2B29812  13.612   5.390  12.384  0.0314  0.2992 -0.1346
24094DOPC   C3B29813  13.507   5.255  12.830 -0.0236 -0.0449  0.1411
24094DOPC   C4B29814  13.526   4.991  13.247  0.1203 -0.0964  0.0034
24095DOPC   NC329815   4.773   7.514  12.006 -0.0245  0.0473  0.0111
24095DOPC   PO429816   4.593   7.828  11.852 -0.2125 -0.4769  0.4240
24095DOPC   GL129817   4.766   8.164  12.093 -0.1897 -0.0409  0.1579
24095DOPC   GL229818   4.989   7.968  12.128  0.2100 -0.0481  0.2243
24095DOPC   C1A29819   4.565   8.419  12.327  0.1650 -0.4840 -0.1609
24095DOPC   D2A29820   4.458   8.827  12.589 -0.1107  0.0909  0.2175
24095DOPC   C3A29821   4.052   8.600  12.704  0.3232  0.1638 -0.2711
24095DOPC   C4A29822   3.681   8.234  12.647 -0.0912  0.1660  0.0294
24095DOPC   C1B29823   5.135   7.714  12.504 -0.0711  0.0434 -0.3210
24095DOPC   D2B29824   5.048   7.554  12.906 -0.0376 -0.1200 -0.0713
24095DOPC   C3B29825   4.934   7.704  13.312  0.2388 -0.0326 -0.1991
24095DOPC   C4B29826   4.679   7.704  13.754  0.2356  0.0754  0.3720
24096DOPC   NC329827  13.355   0.545  10.831 -0.0487  0.5353  0.3062
24096DOPC   PO429828  13.749   0.611  10.907 -0.2897 -0.0994  0.2401
24096DOPC   GL129829  14.022   0.745  11.244  0.4237  0.1694 -0.0753
24096DOPC   GL229830  14.187   0.497  11.154 -0.1873 -0.0320  0.2241
24096DOPC   C1A29831  14.041   0.818  11.649 -0.1095 -0.1719 -0.2476
24096DOPC   D2A29832  13.786   1.171  11.977  0.0710  0.0115  0.1126
24096DOPC   C3A29833  13.433   1.172  12.278 -0.2307 -0.2446  0.1190
24096DOPC   C4A29834  13.259   1.428  12.607 -0.0128  0.1126  0.0232
24096DOPC   C1B29835  14.238   0.236  11.542 -0.0127  0.0083  0.0777
24096DOPC   D2B29836  14.248   0.059  12.038  0.0847  0.3020  0.0520
24096DOPC   C3B29837  14.206  -0.152  12.390 -0.0520  0.0738  0.0539
24096DOPC   C4B29838  14.056  -0.142  12.894 -0.1525  0.2064  0.2028
24097DOPC   NC329839  18.848   4.143  10.927 -0.2498  0.5752  0.0331
24097DOPC   PO429840  18.443   4.036  10.851 -0.0557 -0.4171  0.0048
24097DOPC   GL129841  18.388   3.634  11.027 -0.1992  0.2720 -0.0552
24097DOPC   GL229842  18.619   3.746  11.119 -0.0446  0.1808  0.4589
24097DOPC   C1A29843  18.157   3.702  11.367  0.0426 -0.4674  0.0559
24097DOPC   D2A29844  18.164   3.617  11.848 -0.0196  0.1740 -0.1129
24097DOPC   C3A29845  18.312   3.689  12.301 -0.1204  0.2615  0.2320
24097DOPC   C4A29846  18.265   3.624  12.692 -0.0069 -0.0904  0.0893
24097DOPC   C1B29847  18.621   3.566  11.526  0.1063 -0.2967 -0.1370
24097DOPC   D2B29848  18.687   3.228  11.921 -0.3337 -0.2193 -0.0796
24097DOPC   C3B29849  18.703   3.231  12.404  0.1359 -0.0833 -0.2717
24097DOPC   C4B29850  18.847   3.233  12.837 -0.1231  0.0228 -0.0099
24098DOPC   NC329851  20.386   2.057  10.650  0.2528 -0.1164 -0.4040
24098DOPC   PO429852  20.399   2.126  11.066 -0.0008  0.1701 -0.0522
24098DOPC   GL129853  20.515   1.893  11.506 -0.0604 -0.0408  0.0967
24098DOPC   GL229854  20.505   2.225  11.491 -0.1467  0.0665 -0.0668
24098DOPC   C1A29855  20.580   1.641  11.848 -0.1873 -0.1946  0.2091
24098DOPC   D2A29856  20.788   1.243  12.122  0.1262  0.2552 -0.2243
24098DOPC   C3A29857  20.773   1.572  12.441  0.2101  0.1520 -0.0949
24098DOPC   C4A29858  20.437   1.784  12.704  0.1266 -0.3578 -0.0051
24098DOPC   C1B29859  20.880   2.353  11.727 -0.1717  0.3558  0.2013
24098DOPC   D2B29860  21.011   2.510  12.156  0.1423  0.1988 -0.0851
24098DOPC   C3B29861  21.043   2.587  12.619 -0.0406 -0.0302  0.2459
24098DOPC   C4B29862  21.110   2.404  13.141  0.1863  0.0271 -0.1512
24099DOPC   NC329863  18.236   4.597  10.309  0.0209  0.0510 -0.1347
24099DOPC   PO429864  18.034   4.610  10.647  0.0118 -0.1677  0.0095
24099DOPC   GL129865  18.011   4.341  11.028  0.0868 -0.3215 -0.1515
24099DOPC   GL229866  17.817   4.401  11.137  0.3833  0.2121 -0.0036
24099DOPC   C1A29867  18.301   4.179  11.419 -0.2347  0.2336 -0.1662
24099DOPC   D2A29868  18.409   4.011  11.861 -0.0323  0.0000  0.1438
24099DOPC   C3A29869  18.723   3.695  12.049 -0.0240  0.1803 -0.1558
24099DOPC   C4A29870  18.905   3.720  12.527 -0.0008 -0.2387 -0.2994
24099DOPC   C1B29871  17.815   4.235  11.537 -0.3040 -0.0852  0.1011
24099DOPC   D2B29872  17.608   4.176  11.960  0.0671  0.0931  0.0495
24099DOPC   C3B29873  17.679   4.482  12.334  0.1859  0.4686 -0.0436
24099DOPC   C4B29874  17.466   4.900  12.508  0.1640  0.1395  0.3218
24100DOPC   NC329875  28.250   6.437  11.062  0.0858 -0.0178 -0.1042
24100DOPC   PO429876  28.384   6.818  11.012  0.1289  0.0205 -0.2212
24100DOPC   GL129877  28.241   7.104  11.356 -0.2166  0.1372 -0.2872
24100DOPC   GL229878  28.261   6.831  11.577 -0.0417 -0.0340  0.1808
24100DOPC   C1A29879  27.900   7.270  11.602 -0.0429 -0.1886 -0.0317
24100DOPC   D2A29880  27.556   7.333  11.936 -0.1533  0.1792  0.2234
24100DOPC   C3A29881  27.528   7.198  12.391 -0.0943  0.1379 -0.0671
24100DOPC   C4A29882  27.596   6.926  12.871 -0.0547  0.0522  0.0264
24100DOPC   C1B29883  28.515   6.863  11.972 -0.1040 -0.2596  0.0151
24100DOPC   D2B29884  28.670   6.473  12.246 -0.0827 -0.2295  0.1742
24100DOPC   C3B29885  28.833   6.470  12.687 -0.1213 -0.0551  0.0760
24100DOPC   C4B29886  28.516   6.510  13.096  0.3731  0.1099 -0.2566
24101DOPC   NC329887  23.803   7.512  10.875 -0.2483  0.3652  0.1983
24101DOPC   PO429888  23.976   7.123  10.823  0.1217 -0.2499  0.1431
24101DOPC   GL129889  23.961   7.172  11.215 -0.0428 -0.0063 -0.4526
24101DOPC   GL229890  24.234   7.291  11.226 -0.1980  0.2103  0.2054
24101DOPC   C1A29891  23.709   7.201  11.584  0.2392 -0.0706 -0.2346
24101DOPC   D2A29892  23.614   6.946  12.027 -0.1447 -0.2778  0.0584
24101DOPC   C3A29893  23.242   6.922  12.355  0.0929  0.1284  0.1290
24101DOPC   C4A29894  22.822   7.014  12.543 -0.2250 -0.4541 -0.2508
24101DOPC   C1B29895  24.342   7.267  11.598 -0.0647  0.0085 -0.2155
24101DOPC   D2B29896  24.553   7.489  12.055 -0.1583  0.1180  0.4604
24101DOPC   C3B29897  24.316   7.331  12.436 -0.1843  0.4581  0.2476
24101DOPC   C4B29898  24.211   7.088  12.882  0.0153 -0.0975 -0.2245
24102DOPC   NC329899  29.237   6.252  11.436 -0.2749 -0.0157 -0.1164
24102DOPC   PO429900  29.538   6.010  11.538  0.0181 -0.0482  0.1368
24102DOPC   GL129901  29.376   5.950  11.858  0.1461  0.2422 -0.2951
24102DOPC   GL229902  29.328   5.651  11.778  0.2066  0.2561 -0.1291
24102DOPC   C1A29903  29.597   5.869  12.235  0.1649  0.0854  0.1168
24102DOPC   D2A29904  29.771   5.541  12.580 -0.2558 -0.4768  0.1046
24102DOPC   C3A29905  29.945   5.734  12.974 -0.4932  0.1092  0.1289
24102DOPC   C4A29906  30.102   6.005  13.409 -0.1007 -0.1072  0.0699
24102DOPC   C1B29907  29.473   5.340  12.071  0.2821  0.0620 -0.1020
24102DOPC   D2B29908  29.495   4.993  12.485  0.2693  0.2595  0.3539
24102DOPC   C3B29909  29.668   4.685  12.727 -0.0060  0.1397  0.1036
24102DOPC   C4B29910  29.445   4.429  13.054  0.0214 -0.1134  0.4741
24103DOPC   NC329911   1.749   2.743  11.422 -0.1385  0.2028  0.0994
24103DOPC   PO429912   1.616   2.373  11.458 -0.1129 -0.1633  0.2863
24103DOPC   GL129913   1.493   2.404  11.838  0.0244  0.0413  0.1633
24103DOPC   GL229914   1.182   2.407  11.850  0.0021  0.0278  0.0471
24103DOPC   C1A29915   1.745   2.615  12.134  0.2761 -0.2447  0.0066
24103DOPC   D2A29916   1.905   2.679  12.642  0.2857 -0.1073  0.1803
24103DOPC   C3A29917   2.018   2.458  13.046  0.2644 -0.0519  0.1427
24103DOPC   C4A29918   2.429   2.402  13.283 -0.0498 -0.2086  0.0913
24103DOPC   C1B29919   1.044   2.135  12.233 -0.0572  0.0495 -0.2039
24103DOPC   D2B29920   0.991   1.991  12.682  0.4640  0.2272 -0.2177
24103DOPC   C3B29921   1.206   2.019  13.060 -0.1778  0.1936 -0.1935
24103DOPC   C4B29922   1.330   1.965  13.597  0.0471 -0.1716  0.0187
24104DOPC   NC329923   8.448   7.639  10.990  0.0317  0.1128 -0.2185
24104DOPC   PO429924   8.262   8.011  11.045  0.2482 -0.2416  0.0217
24104DOPC   GL129925   8.161   8.010  11.506 -0.4447  0.1048  0.2356
24104DOPC   GL229926   8.427   8.022  11.549  0.0653 -0.2278 -0.0973
24104DOPC   C1A29927   8.129   7.988  11.983 -0.0266 -0.0094  0.0959
24104DOPC   D2A29928   8.271   7.852  12.408  0.4156  0.0698 -0.2327
24104DOPC   C3A29929   8.057   7.565  12.665  0.0792 -0.1261  0.4286
24104DOPC   C4A29930   7.853   7.198  12.961 -0.1902  0.0051 -0.0811
24104DOPC   C1B29931   8.602   8.006  11.944 -0.2554  0.1036 -0.2499
24104DOPC   D2B29932   8.722   8.055  12.449 -0.1936 -0.2223  0.2012
24104DOPC   C3B29933   8.915   7.614  12.563 -0.0876  0.0020  0.0751
24104DOPC   C4B29934   9.242   7.521  12.849 -0.0088  0.2084  0.0856
24105DOPC   NC329935  29.161   1.354  11.572  0.1032 -0.2238  0.3686
24105DOPC   PO429936  28.974   1.068  11.385  0.3500  0.0994  0.2635
24105DOPC   GL129937  28.812   0.696  11.578 -0.0399 -0.1057  0.2276
24105DOPC   GL229938  28.548   0.812  11.501 -0.0911  0.0522 -0.3384
24105DOPC   C1A29939  28.875   0.649  12.035 -0.2342  0.0040 -0.0226
24105DOPC   D2A29940  28.982   0.633  12.533 -0.0117  0.1389  0.4445
24105DOPC   C3A29941  28.727   0.413  12.845  0.1931 -0.1459  0.0278
24105DOPC   C4A29942  28.439   0.095  13.007 -0.2641 -0.1110 -0.3953
24105DOPC   C1B29943  28.484   0.478  11.816  0.0017  0.0491  0.1392
24105DOPC   D2B29944  28.532   0.444  12.361  0.0948  0.0421 -0.1093
24105DOPC   C3B29945  28.212   0.286  12.609  0.2379  0.1715  0.0912
24105DOPC   C4B29946  27.870   0.410  12.998 -0.0060  0.0268 -0.2636
24106DOPC   NC329947   3.654   0.265  11.442  0.0041 -0.0807 -0.4585
24106DOPC   PO429948   3.732   0.016  11.730 -0.0456 -0.1082 -0.0606
24106DOPC   GL129949   3.612  -0.316  12.004  0.1177  0.1651 -0.2075
24106DOPC   GL229950   3.433  -0.070  12.119 -0.0083  0.0973 -0.1602
24106DOPC   C1A29951   3.842  -0.653  12.189  0.1802  0.1478  0.1479
24106DOPC   D2A29952   4.032  -0.772  12.592 -0.1600  0.1252  0.0697
24106DOPC   C3A29953   4.395  -0.606  12.829 -0.2338 -0.5638  0.3387
24106DOPC   C4A29954   4.574  -0.465  13.300 -0.1771 -0.2060  0.2656
24106DOPC   C1B29955   3.445  -0.008  12.533 -0.2192  0.1155  0.0524
24106DOPC   D2B29956   3.492  -0.018  13.058 -0.2391 -0.1603 -0.0535
24106DOPC   C3B29957   3.622  -0.390  13.306 -0.0831  0.0660  0.2450
24106DOPC   C4B29958   3.617  -0.371  13.819 -0.0843  0.0606 -0.0933
24107DOPC   NC329959  19.082   7.536  10.449  0.0064  0.1794  0.0080
24107DOPC   PO429960  19.413   7.709  10.556  0.1958  0.1773 -0.2055
24107DOPC   GL129961  19.529   7.681  10.911  0.0026  0.0273  0.0852
24107DOPC   GL229962  19.338   7.457  10.997  0.0076 -0.1003  0.2800
24107DOPC   C1A29963  19.528   7.982  11.176  0.2616  0.0306  0.1102
24107DOPC   D2A29964  19.378   8.168  11.613  0.0915 -0.1964 -0.0372
24107DOPC   C3A29965  19.139   8.052  11.998  0.1143 -0.2235 -0.1871
24107DOPC   C4A29966  19.294   7.775  12.350 -0.1351  0.1410  0.0678
24107DOPC   C1B29967  19.373   7.570  11.390 -0.1831 -0.0292  0.0678
24107DOPC   D2B29968  19.514   7.728  11.827  0.0378  0.0460 -0.2449
24107DOPC   C3B29969  19.611   7.399  12.174  0.1347  0.2132 -0.1654
24107DOPC   C4B29970  19.933   7.071  12.263 -0.1782 -0.0062 -0.0011
24108DOPC   NC329971  22.743   5.600  11.421  0.0904  0.0414  0.0949
24108DOPC   PO429972  22.961   5.468  11.105  0.1150  0.0048  0.0545
24108DOPC   GL129973  22.975   5.203  11.471  0.0362 -0.0242  0.3051
24108DOPC   GL229974  23.265   5.306  11.511 -0.1390 -0.0317  0.0795
24108DOPC   C1A29975  22.862   5.302  11.854  0.0563  0.3344  0.1503
24108DOPC   D2A29976  22.686   5.317  12.287  0.0715  0.0030 -0.1170
24108DOPC   C3A29977  22.668   4.826  12.451  0.2392  0.5302 -0.0087
24108DOPC   C4A29978  22.827   4.527  12.765 -0.3273  0.0668  0.1397
24108DOPC   C1B29979  23.381   5.403  11.984  0.0360  0.0305 -0.1475
24108DOPC   D2B29980  23.598   5.532  12.422  0.2819  0.0904  0.1923
24108DOPC   C3B29981  23.792   5.234  12.714  0.1106 -0.0256  0.0652
24108DOPC   C4B29982  23.754   4.773  12.898  0.0635 -0.1114 -0.0955
24109DOPC   NC329983  12.408   6.007  10.600  0.0834 -0.0961 -0.0761
24109DOPC   PO429984  12.268   5.656  10.473  0.1432  0.1368 -0.2252
24109DOPC   GL129985  12.226   5.775  10.943 -0.2010  0.6109 -0.5842
24109DOPC   GL229986  12.218   5.512  10.930  0.1255 -0.1310  0.1794
24109DOPC   C1A29987  12.005   5.651  11.331 -0.1511 -0.3328  0.1288
24109DOPC   D2A29988  12.024   5.511  11.811  0.3014  0.1468 -0.1391
24109DOPC   C3A29989  12.037   5.628  12.262 -0.5076 -0.1675 -0.0766
24109DOPC   C4A29990  12.158   5.679  12.773  0.0018 -0.0569 -0.1220
24109DOPC   C1B29991  12.230   5.205  11.343  0.0705 -0.2022 -0.1134
24109DOPC   D2B29992  12.413   5.106  11.782  0.1819 -0.1692 -0.1359
24109DOPC   C3B29993  12.147   5.149  12.132  0.3424 -0.1038 -0.0416
24109DOPC   C4B29994  11.827   5.317  12.520  0.1193  0.0282 -0.0992
24110DOPC   NC329995  28.009   3.164  11.323  0.5265  0.0600 -0.1243
24110DOPC   PO429996  27.600   3.246  11.171 -0.3077  0.2214  0.0828
24110DOPC   GL129997  27.284   3.235  11.434 -0.1784  0.0834  0.2756
24110DOPC   GL229998  27.443   3.444  11.613  0.0410  0.1147 -0.1465
24110DOPC   C1A29999  27.156   2.980  11.849  0.0817 -0.0211 -0.0589
24110DOPC   D2A30000  27.040   2.649  12.130  0.2494  0.2914 -0.2577
24110DOPC   C3A30001  26.722   2.341  12.401 -0.0884  0.0483  0.1949
24110DOPC   C4A30002  26.320   2.113  12.642  0.2502 -0.2251  0.0310
24110DOPC   C1B30003  27.425   3.347  12.070  0.4883  0.3277  0.2497
24110DOPC   D2B30004  27.186   3.598  12.428 -0.0305 -0.0461 -0.0467
24110DOPC   C3B30005  26.970   3.337  12.765 -0.3848 -0.1419  0.3345
24110DOPC   C4B30006  26.768   2.892  12.802 -0.2042  0.0176  0.1803
24111DOPC   NC330007  25.792   1.494  11.489  0.2268  0.0055  0.1336
24111DOPC   PO430008  25.586   1.810  11.491 -0.1300  0.3268  0.0907
24111DOPC   GL130009  25.430   2.105  11.805  0.1833  0.3077  0.0612
24111DOPC   GL230010  25.206   2.184  11.688 -0.1186 -0.0699  0.0947
24111DOPC   C1A30011  25.494   2.451  12.067 -0.1015 -0.2311 -0.1123
24111DOPC   D2A30012  25.687   2.875  12.316 -0.0541 -0.2292 -0.1046
24111DOPC   C3A30013  26.119   3.046  12.455  0.0846  0.2403 -0.1092
24111DOPC   C4A30014  26.406   3.282  12.854  0.1056  0.1372 -0.0695
24111DOPC   C1B30015  24.979   2.162  12.107 -0.1578  0.0240  0.3338
24111DOPC   D2B30016  24.673   2.163  12.543 -0.1985  0.0885  0.3179
24111DOPC   C3B30017  24.560   2.407  12.925  0.5466  0.2923 -0.0407
24111DOPC   C4B30018  24.213   2.509  13.326  0.1848  0.1377  0.1065
24112DOPC   NC330019  21.080   0.595  10.241  0.1565 -0.0772 -0.0651
24112DOPC   PO430020  21.294   0.288  10.384 -0.1646 -0.1308  0.2373
24112DOPC   GL130021  21.448   0.271  10.786 -0.1092  0.0367 -0.2722
24112DOPC   GL230022  21.277   0.067  10.797 -0.1732 -0.0377 -0.0122
24112DOPC   C1A30023  21.340   0.368  11.251 -0.0215  0.3159 -0.0561
24112DOPC   D2A30024  21.196   0.291  11.713 -0.0201  0.2500  0.1383
24112DOPC   C3A30025  20.991   0.050  11.984 -0.0214  0.3721  0.0028
24112DOPC   C4A30026  20.605  -0.255  12.052  0.3321  0.0727  0.0798
24112DOPC   C1B30027  20.988   0.023  11.079 -0.1755  0.1279 -0.1349
24112DOPC   D2B30028  20.527  -0.160  11.033 -0.1679  0.3011 -0.1735
24112DOPC   C3B30029  20.258  -0.430  11.319  0.0068  0.1871 -0.1103
24112DOPC   C4B30030  20.289  -0.710  11.766 -0.1225  0.1492 -0.0677
24113DOPC   NC330031  11.128   4.085  10.591  0.0181  0.0767  0.0226
24113DOPC   PO430032  10.891   3.933  10.907 -0.1264 -0.0973  0.0846
24113DOPC   GL130033  10.969   4.057  11.321  0.1381  0.1748 -0.4226
24113DOPC   GL230034  10.751   4.199  11.317 -0.0869 -0.0905  0.1894
24113DOPC   C1A30035  11.135   3.997  11.756  0.1461  0.0096  0.0585
24113DOPC   D2A30036  11.507   3.942  12.081 -0.1489  0.0048  0.2872
24113DOPC   C3A30037  11.649   4.178  12.458  0.3914  0.0693  0.1501
24113DOPC   C4A30038  11.736   4.217  12.915  0.0710  0.2445 -0.0432
24113DOPC   C1B30039  10.633   4.069  11.720 -0.1071  0.1702  0.2985
24113DOPC   D2B30040  10.865   4.172  12.155  0.0381  0.1721  0.4561
24113DOPC   C3B30041  10.686   4.434  12.492  0.1589 -0.1471 -0.1645
24113DOPC   C4B30042  10.415   4.564  12.944  0.0950 -0.2182 -0.1478
24114DOPC   NC330043   0.643   4.611  11.596  0.0621 -0.2688  0.0659
24114DOPC   PO430044   0.696   4.297  11.791 -0.0575 -0.1188 -0.1848
24114DOPC   GL130045   0.874   4.252  12.165  0.2231  0.1933 -0.1986
24114DOPC   GL230046   0.622   4.151  12.272 -0.1848  0.2341 -0.4365
24114DOPC   C1A30047   1.248   4.352  12.384  0.0371  0.1225  0.1799
24114DOPC   D2A30048   1.414   4.452  12.854  0.1673 -0.2554 -0.1493
24114DOPC   C3A30049   1.289   4.792  13.238 -0.1468  0.2026  0.2213
24114DOPC   C4A30050   1.294   5.203  13.443  0.1050  0.1352 -0.0672
24114DOPC   C1B30051   0.564   4.149  12.715 -0.0407 -0.4381 -0.1292
24114DOPC   D2B30052   0.654   3.979  13.173 -0.0134 -0.0469  0.4555
24114DOPC   C3B30053   0.981   3.585  13.208  0.0413 -0.0834  0.2045
24114DOPC   C4B30054   1.430   3.393  13.101 -0.0885  0.2946 -0.0942
24115DOPC   NC330055  19.400   0.957  10.169  0.0305  0.1165  0.1887
24115DOPC   PO430056  19.285   1.051  10.538  0.4930 -0.1090  0.3874
24115DOPC   GL130057  19.372   1.097  10.875 -0.0117 -0.2144  0.2135
24115DOPC   GL230058  19.170   0.934  10.942 -0.2119  0.4726 -0.1938
24115DOPC   C1A30059  19.636   1.319  11.065  0.0362 -0.2169 -0.0232
24115DOPC   D2A30060  19.718   1.739  11.349 -0.0610 -0.0123 -0.1229
24115DOPC   C3A30061  19.939   1.677  11.814 -0.0831  0.2589  0.2876
24115DOPC   C4A30062  20.210   1.727  12.182 -0.0880  0.1868 -0.0288
24115DOPC   C1B30063  18.999   0.563  11.171 -0.0096  0.1106  0.2610
24115DOPC   D2B30064  18.807   0.372  11.533  0.0164 -0.1138 -0.1187
24115DOPC   C3B30065  18.672   0.367  11.994 -0.2539  0.0760  0.1014
24115DOPC   C4B30066  18.426   0.319  12.433 -0.0792  0.4034  0.0211
24116DOPC   NC330067   2.106   0.779  11.555 -0.0062  0.1614 -0.1522
24116DOPC   PO430068   1.726   0.709  11.542  0.0379  0.0432 -0.4253
24116DOPC   GL130069   1.573   0.763  11.914 -0.0188 -0.2231 -0.0357
24116DOPC   GL230070   1.426   0.484  11.865 -0.0346 -0.3645  0.0169
24116DOPC   C1A30071   1.501   1.115  12.115 -0.0796 -0.2664 -0.1600
24116DOPC   D2A30072   1.320   1.458  12.477  0.2389 -0.0518 -0.0090
24116DOPC   C3A30073   1.538   1.785  12.696 -0.0312 -0.0055 -0.0191
24116DOPC   C4A30074   1.713   1.908  13.196  0.5416  0.0178  0.1807
24116DOPC   C1B30075   1.109   0.274  12.198  0.3352  0.1461 -0.0479
24116DOPC   D2B30076   0.761   0.015  12.409  0.0587  0.1675 -0.1488
24116DOPC   C3B30077   0.850  -0.110  12.871  0.1592 -0.1125 -0.2822
24116DOPC   C4B30078   1.061  -0.341  13.238  0.1978  0.0185  0.0880
24117DOPC   NC330079  12.269   3.002  10.897 -0.4461 -0.1492 -0.3153
24117DOPC   PO430080  12.528   2.768  11.112 -0.2912  0.2984 -0.1175
24117DOPC   GL130081  12.803   2.677  11.448  0.1306 -0.2833  0.1250
24117DOPC   GL230082  12.966   2.866  11.297 -0.0485 -0.1849  0.2135
24117DOPC   C1A30083  12.800   2.886  11.802 -0.3048 -0.2409 -0.5244
24117DOPC   D2A30084  12.545   3.221  12.090 -0.2415 -0.1573  0.0132
24117DOPC   C3A30085  12.723   3.368  12.485  0.0677 -0.2610 -0.2746
24117DOPC   C4A30086  12.889   3.569  12.836 -0.1369 -0.2117  0.1107
24117DOPC   C1B30087  13.192   3.105  11.536  0.0751 -0.1090 -0.3510
24117DOPC   D2B30088  13.493   3.329  11.784  0.0527 -0.0434  0.0989
24117DOPC   C3B30089  13.623   3.244  12.213 -0.0855  0.0251 -0.1214
24117DOPC   C4B30090  13.619   3.419  12.718 -0.0902  0.0247 -0.2291
24118DOPC   NC330091  11.200   0.610  10.878 -0.1866  0.0049 -0.2405
24118DOPC   PO430092  11.379   0.943  10.718 -0.1149 -0.1264  0.2284
24118DOPC   GL130093  11.224   1.359  10.982 -0.0605  0.2952  0.1127
24118DOPC   GL230094  11.099   1.082  11.030  0.1156  0.1362  0.0592
24118DOPC   C1A30095  11.362   1.608  11.347  0.4556  0.0314 -0.1809
24118DOPC   D2A30096  11.570   1.911  11.675 -0.0549 -0.0993 -0.0431
24118DOPC   C3A30097  11.631   2.169  12.065  0.2207 -0.0666 -0.0367
24118DOPC   C4A30098  11.905   2.305  12.410 -0.2635 -0.2993 -0.3019
24118DOPC   C1B30099  11.208   1.104  11.419  0.0165 -0.0039 -0.0326
24118DOPC   D2B30100  11.333   1.410  11.794 -0.2359 -0.0257  0.1454
24118DOPC   C3B30101  11.329   1.704  12.145  0.1345 -0.0945 -0.3988
24118DOPC   C4B30102  11.390   1.918  12.576 -0.0724 -0.0718  0.2668
24119DOPC   NC330103  26.888   1.215  11.198  0.0807  0.2539  0.0022
24119DOPC   PO430104  26.497   1.135  11.266  0.0464 -0.0446  0.0673
24119DOPC   GL130105  26.336   1.480  11.578 -0.0512 -0.0606  0.3158
24119DOPC   GL230106  26.660   1.396  11.649  0.3643  0.1504  0.0123
24119DOPC   C1A30107  26.163   1.523  11.976 -0.1308 -0.0974 -0.0039
24119DOPC   D2A30108  26.034   1.775  12.414  0.1727 -0.1682 -0.0922
24119DOPC   C3A30109  25.697   1.747  12.700 -0.0759 -0.2119  0.1889
24119DOPC   C4A30110  25.614   1.602  13.135 -0.2360 -0.3901  0.1697
24119DOPC   C1B30111  26.634   1.412  12.044 -0.1714  0.0881 -0.0419
24119DOPC   D2B30112  26.562   1.371  12.555 -0.0164 -0.0157 -0.2840
24119DOPC   C3B30113  26.736   1.311  12.914 -0.1318  0.1418 -0.2910
24119DOPC   C4B30114  27.097   1.594  13.256  0.0826  0.0203 -0.3294
24120DOPC   NC330115   4.589   3.994  10.956 -0.0509  0.0559 -0.2600
24120DOPC   PO430116   4.604   3.620  11.039 -0.2031  0.1716  0.0635
24120DOPC   GL130117   4.449   3.495  11.444  0.1994  0.3887  0.1634
24120DOPC   GL230118   4.630   3.227  11.470 -0.1246  0.0764 -0.2213
24120DOPC   C1A30119   4.082   3.563  11.727 -0.2634  0.2732 -0.1938
24120DOPC   D2A30120   3.818   3.589  12.151  0.1905  0.0433  0.0285
24120DOPC   C3A30121   3.766   3.861  12.473 -0.1301  0.2826 -0.1956
24120DOPC   C4A30122   3.595   4.037  12.907  0.0966 -0.0384  0.0702
24120DOPC   C1B30123   4.570   3.216  11.869  0.0005  0.2747  0.0284
24120DOPC   D2B30124   4.575   3.131  12.372 -0.1134 -0.1264 -0.0893
24120DOPC   C3B30125   4.649   3.288  12.770  0.3902  0.0649  0.2142
24120DOPC   C4B30126   5.001   3.217  13.194  0.0595 -0.0587  0.1989
24121DOPC   NC330127  14.776   1.061  10.797  0.0387  0.1257 -0.0840
24121DOPC   PO430128  14.734   1.418  10.639  0.0602 -0.0774 -0.0490
24121DOPC   GL130129  14.565   1.600  11.038 -0.3541 -0.2641 -0.1774
24121DOPC   GL230130  14.748   1.419  11.158 -0.2817 -0.2100  0.1666
24121DOPC   C1A30131  14.173   1.556  11.231  0.0402 -0.0583  0.2258
24121DOPC   D2A30132  14.166   1.375  11.688 -0.1170 -0.1330  0.1767
24121DOPC   C3A30133  14.025   1.596  12.139 -0.0511 -0.3332  0.1658
24121DOPC   C4A30134  13.855   1.686  12.597 -0.0734 -0.0143 -0.0674
24121DOPC   C1B30135  14.681   1.491  11.535  0.1705 -0.0627  0.0058
24121DOPC   D2B30136  14.558   1.562  12.012  0.0103 -0.1038 -0.2476
24121DOPC   C3B30137  14.478   1.501  12.512  0.4047  0.1277  0.0002
24121DOPC   C4B30138  14.240   1.414  12.914 -0.2573 -0.2935 -0.0781
24122DOPC   NC330139  29.303   5.504  11.357 -0.0838  0.1628 -0.1961
24122DOPC   PO430140  29.061   5.801  11.314  0.1653  0.1342  0.2000
24122DOPC   GL130141  28.636   5.857  11.533 -0.2256 -0.4235 -0.0998
24122DOPC   GL230142  28.740   6.156  11.541 -0.1398 -0.1411 -0.0465
24122DOPC   C1A30143  28.488   5.859  11.883  0.2197  0.1056  0.2540
24122DOPC   D2A30144  28.258   6.034  12.256  0.0650 -0.3059 -0.1848
24122DOPC   C3A30145  28.289   5.623  12.546 -0.1774  0.0654 -0.0925
24122DOPC   C4A30146  28.217   5.225  12.763 -0.2170  0.0472  0.0155
24122DOPC   C1B30147  28.923   6.090  11.925 -0.1781  0.1443  0.1494
24122DOPC   D2B30148  29.089   6.145  12.400 -0.2437  0.1849 -0.2637
24122DOPC   C3B30149  29.364   5.985  12.695 -0.2426 -0.0536 -0.4028
24122DOPC   C4B30150  29.468   5.649  13.059  0.0862  0.0486  0.1521
24123DOPC   NC330151  11.592   4.737  10.344 -0.1869  0.2386  0.0530
24123DOPC   PO430152  11.510   4.480  10.624  0.0773 -0.2541  0.1907
24123DOPC   GL130153  11.560   4.549  11.109  0.3166 -0.4734 -0.0993
24123DOPC   GL230154  11.819   4.439  11.084 -0.4124  0.0951 -0.4565
24123DOPC   C1A30155  11.367   4.733  11.476  0.0667 -0.2031 -0.1265
24123DOPC   D2A30156  11.224   4.741  12.004 -0.0404 -0.2294  0.2933
24123DOPC   C3A30157  11.248   4.498  12.370  0.2705  0.1659 -0.0012
24123DOPC   C4A30158  11.133   4.186  12.727 -0.2361 -0.2745  0.2156
24123DOPC   C1B30159  11.849   4.217  11.433 -0.0309  0.0111 -0.3244
24123DOPC   D2B30160  11.935   4.096  11.944 -0.0383 -0.1074  0.1614
24123DOPC   C3B30161  12.179   4.274  12.314 -0.0461 -0.1436  0.1502
24123DOPC   C4B30162  12.299   4.332  12.771  0.1516  0.2008 -0.3399
24124DOPC   NC330163  19.043   0.660  10.613  0.1043  0.0457 -0.1488
24124DOPC   PO430164  18.699   0.777  10.521  0.1216  0.0804 -0.0218
24124DOPC   GL130165  18.619   1.084  10.849 -0.1927  0.0738  0.1052
24124DOPC   GL230166  18.812   1.262  10.654 -0.1813  0.0425  0.1196
24124DOPC   C1A30167  18.803   1.065  11.310  0.2783  0.1111  0.3433
24124DOPC   D2A30168  18.835   1.192  11.768  0.0508 -0.2489  0.1762
24124DOPC   C3A30169  19.101   1.256  12.155  0.1205 -0.3451 -0.0927
24124DOPC   C4A30170  19.461   1.365  12.440 -0.1200  0.1929  0.1341
24124DOPC   C1B30171  19.083   1.388  11.045  0.2941  0.0682  0.0998
24124DOPC   D2B30172  19.215   1.372  11.509  0.0831 -0.3158 -0.0089
24124DOPC   C3B30173  19.456   1.582  11.904 -0.0195 -0.1211 -0.4523
24124DOPC   C4B30174  19.649   1.825  12.325 -0.0974  0.1764 -0.1328
24125DOPC   NC330175   5.307   0.802  11.604  0.1128 -0.1160  0.0134
24125DOPC   PO430176   5.517   0.511  11.509 -0.1580 -0.2423  0.3230
24125DOPC   GL130177   5.849   0.573  11.894  0.3039 -0.1002  0.5089
24125DOPC   GL230178   5.754   0.333  11.828 -0.1402  0.0711 -0.0099
24125DOPC   C1A30179   5.859   0.818  12.186 -0.0136 -0.2747 -0.1649
24125DOPC   D2A30180   5.965   0.933  12.684  0.4488  0.1589 -0.0315
24125DOPC   C3A30181   5.818   1.102  13.065 -0.2737  0.2065 -0.0973
24125DOPC   C4A30182   5.664   1.331  13.471  0.0628  0.0564 -0.2182
24125DOPC   C1B30183   5.900   0.166  12.203 -0.1620 -0.1575  0.0460
24125DOPC   D2B30184   6.106   0.052  12.661  0.0157 -0.2412 -0.0534
24125DOPC   C3B30185   5.998  -0.038  13.091  0.1519 -0.0677 -0.0438
24125DOPC   C4B30186   5.742  -0.072  13.437 -0.0008 -0.2214 -0.2176
24126DOPC   NC330187   6.680   7.174  10.877  0.2221 -0.1420 -0.0455
24126DOPC   PO430188   7.062   7.092  10.792 -0.1685  0.1146  0.1028
24126DOPC   GL130189   7.285   6.876  11.109  0.3580  0.1003  0.0318
24126DOPC   GL230190   7.133   7.094  11.235 -0.1093 -0.1326  0.0513
24126DOPC   C1A30191   7.055   6.654  11.433 -0.1399 -0.0767  0.2319
24126DOPC   D2A30192   7.042   6.293  11.935 -0.0845  0.0067  0.0440
24126DOPC   C3A30193   7.163   6.509  12.304  0.3302 -0.0202  0.0534
24126DOPC   C4A30194   6.994   6.709  12.763 -0.0788  0.0331 -0.4180
24126DOPC   C1B30195   7.314   7.252  11.592  0.0775  0.1539  0.0174
24126DOPC   D2B30196   7.441   7.255  12.070 -0.2051  0.2356  0.0901
24126DOPC   C3B30197   7.351   7.043  12.477 -0.1444 -0.0647 -0.2276
24126DOPC   C4B30198   7.470   6.777  12.820 -0.0557  0.0534  0.3654
24127DOPC   NC330199  24.932   5.304  11.231 -0.1588  0.1939 -0.0153
24127DOPC   PO430200  25.258   5.485  11.106 -0.1763 -0.1492 -0.0964
24127DOPC   GL130201  25.443   5.637  11.410  0.1495  0.2205  0.3846
24127DOPC   GL230202  25.356   5.387  11.590  0.0372 -0.2086 -0.2057
24127DOPC   C1A30203  25.855   5.572  11.602 -0.1210  0.0932 -0.1287
24127DOPC   D2A30204  26.182   5.463  12.001  0.1905  0.1458 -0.0288
24127DOPC   C3A30205  26.117   5.213  12.413  0.1543 -0.1363 -0.0986
24127DOPC   C4A30206  26.142   4.936  12.783  0.2078  0.0323 -0.0261
24127DOPC   C1B30207  25.522   5.467  12.022  0.1177 -0.0318 -0.1451
24127DOPC   D2B30208  25.829   5.682  12.334  0.0037 -0.1130 -0.1533
24127DOPC   C3B30209  25.684   5.842  12.701 -0.0114 -0.1441  0.2793
24127DOPC   C4B30210  25.592   6.164  13.061 -0.2101 -0.2158 -0.0108
24128DOPC   NC330211   9.497   6.574  10.209 -0.2395 -0.2520 -0.0688
24128DOPC   PO430212   9.363   6.436  10.570 -0.0177 -0.0911  0.1476
24128DOPC   GL130213   9.438   6.197  10.798  0.1259  0.4869 -0.1958
24128DOPC   GL230214   9.325   6.151  11.024  0.5351  0.3788  0.0565
24128DOPC   C1A30215   9.835   6.025  10.951  0.1628  0.0280  0.0092
24128DOPC   D2A30216  10.195   5.710  11.037  0.0329 -0.2167  0.1204
24128DOPC   C3A30217  10.170   5.907  11.509 -0.0880  0.0318  0.0857
24128DOPC   C4A30218  10.211   5.903  11.976 -0.3075 -0.1377 -0.1318
24128DOPC   C1B30219   9.617   6.019  11.369  0.1123  0.1443  0.1186
24128DOPC   D2B30220   9.736   5.987  11.857  0.0440  0.0912 -0.1335
24128DOPC   C3B30221   9.799   5.825  12.310  0.0535 -0.1600  0.0334
24128DOPC   C4B30222   9.376   5.789  12.553  0.1943  0.2592  0.0635
24129DOPC   NC330223   5.371   7.406  11.338  0.0928 -0.0789 -0.0035
24129DOPC   PO430224   5.479   7.030  11.288  0.0627 -0.0158 -0.0651
24129DOPC   GL130225   5.325   6.780  11.623  0.1098 -0.0513  0.0826
24129DOPC   GL230226   5.465   6.943  11.788  0.1237  0.0437 -0.1198
24129DOPC   C1A30227   5.076   6.458  11.805 -0.0183 -0.0468  0.0021
24129DOPC   D2A30228   4.662   6.332  12.011 -0.1740 -0.2178  0.1193
24129DOPC   C3A30229   4.892   6.550  12.338  0.2008  0.1561  0.0146
24129DOPC   C4A30230   5.240   6.847  12.566 -0.0172  0.1753  0.0445
24129DOPC   C1B30231   5.543   6.719  12.175 -0.2646 -0.0259 -0.1086
24129DOPC   D2B30232   5.634   6.521  12.651  0.1560 -0.0177 -0.2236
24129DOPC   C3B30233   5.566   6.384  13.097  0.0299  0.0316 -0.0532
24129DOPC   C4B30234   5.501   6.091  13.458 -0.1025  0.1355  0.0593
24130DOPC   NC330235  23.530   6.109  11.249  0.0448 -0.2401 -0.0183
24130DOPC   PO430236  23.623   6.472  11.203  0.1741 -0.2250  0.3621
24130DOPC   GL130237  23.551   6.679  11.586 -0.1755  0.1773 -0.2149
24130DOPC   GL230238  23.580   6.402  11.745  0.1192 -0.0529  0.0528
24130DOPC   C1A30239  23.134   6.763  11.823  0.4101  0.1752 -0.0927
24130DOPC   D2A30240  22.799   7.073  12.025  0.5047  0.1797 -0.0835
24130DOPC   C3A30241  22.489   7.332  12.278 -0.3133  0.2601 -0.0843
24130DOPC   C4A30242  22.262   7.632  12.511  0.0796 -0.0815 -0.2129
24130DOPC   C1B30243  23.591   6.494  12.142 -0.1353 -0.1742 -0.3692
24130DOPC   D2B30244  23.610   6.668  12.565 -0.1079 -0.1306  0.3080
24130DOPC   C3B30245  23.551   6.248  12.783 -0.2846 -0.0850 -0.1699
24130DOPC   C4B30246  23.269   5.967  12.885 -0.1293  0.0383 -0.1793
24131DOPC   NC330247  15.496   2.310  10.862  0.1609  0.1870 -0.1762
24131DOPC   PO430248  15.429   1.915  10.842  0.1062  0.0779 -0.1801
24131DOPC   GL130249  15.491   1.648  11.157 -0.0408  0.0214  0.1894
24131DOPC   GL230250  15.761   1.753  11.210 -0.0470  0.1876 -0.4252
24131DOPC   C1A30251  15.182   1.416  11.349  0.3097 -0.0536  0.2610
24131DOPC   D2A30252  15.007   1.274  11.829  0.1200  0.1093 -0.3184
24131DOPC   C3A30253  14.942   1.312  12.282  0.2833  0.0519 -0.1343
24131DOPC   C4A30254  14.722   1.110  12.726  0.1654 -0.3297 -0.0068
24131DOPC   C1B30255  15.739   1.834  11.632  0.0140  0.0192 -0.1498
24131DOPC   D2B30256  15.916   2.119  11.960  0.1482  0.2806 -0.1129
24131DOPC   C3B30257  15.948   1.918  12.388 -0.1976 -0.1117  0.2096
24131DOPC   C4B30258  16.107   1.658  12.755 -0.0310  0.1691 -0.2679
24132DOPC   NC330259  15.227   4.047  11.430 -0.0547  0.2384  0.1595
24132DOPC   PO430260  15.350   4.025  11.046 -0.3857 -0.0979  0.1117
24132DOPC   GL130261  15.488   3.630  11.006 -0.3873  0.3391  0.1061
24132DOPC   GL230262  15.720   3.678  10.983  0.3887  0.3260  0.0519
24132DOPC   C1A30263  15.534   3.469  11.421  0.0562  0.1234 -0.0214
24132DOPC   D2A30264  15.409   3.222  11.855 -0.2290  0.0108 -0.1351
24132DOPC   C3A30265  15.601   3.445  12.167 -0.0912  0.1959 -0.0898
24132DOPC   C4A30266  15.960   3.543  12.503 -0.0335  0.1796 -0.0446
24132DOPC   C1B30267  15.956   3.741  11.353  0.3509  0.1614  0.0043
24132DOPC   D2B30268  16.331   3.752  11.640  0.4431 -0.0647  0.3762
24132DOPC   C3B30269  16.269   4.024  11.995 -0.1854  0.2811  0.0310
24132DOPC   C4B30270  16.162   4.328  12.330 -0.1214 -0.0762 -0.0434
24133DOPC   NC330271   5.760   4.569  11.547 -0.1359 -0.1951  0.1114
24133DOPC   PO430272   5.415   4.466  11.411  0.0112 -0.2205 -0.1003
24133DOPC   GL130273   5.192   4.416  11.724 -0.2851  0.2249 -0.2067
24133DOPC   GL230274   5.136   4.181  11.750  0.0124  0.5342  0.0240
24133DOPC   C1A30275   5.240   4.451  12.170 -0.0445 -0.2023  0.2053
24133DOPC   D2A30276   5.021   4.417  12.573  0.0118 -0.2996  0.1862
24133DOPC   C3A30277   5.242   4.003  12.390 -0.0027  0.3049  0.0933
24133DOPC   C4A30278   5.387   3.567  12.338 -0.1754  0.1382 -0.2483
24133DOPC   C1B30279   4.849   4.078  12.109  0.0286 -0.2536  0.3892
24133DOPC   D2B30280   4.559   4.008  12.470 -0.0764 -0.1108 -0.1247
24133DOPC   C3B30281   4.454   4.196  12.872 -0.0338 -0.1279  0.0480
24133DOPC   C4B30282   4.435   4.434  13.278 -0.1459  0.0645 -0.0091
24134DOPC   NC330283  24.713   6.234  11.172 -0.2832  0.0951  0.3882
24134DOPC   PO430284  24.317   6.284  11.134 -0.1547 -0.2216 -0.4126
24134DOPC   GL130285  24.028   6.481  11.436  0.2891 -0.2688 -0.1156
24134DOPC   GL230286  23.933   6.215  11.453  0.2887 -0.1015 -0.1096
24134DOPC   C1A30287  24.041   6.794  11.733  0.3981 -0.5025  0.2684
24134DOPC   D2A30288  23.999   7.213  12.036 -0.0537 -0.1521 -0.1417
24134DOPC   C3A30289  23.742   7.452  12.352 -0.0083 -0.0917 -0.1918
24134DOPC   C4A30290  23.579   7.712  12.711 -0.0581 -0.3140 -0.1678
24134DOPC   C1B30291  23.967   6.262  11.907 -0.2407 -0.0824  0.0458
24134DOPC   D2B30292  24.012   6.382  12.384  0.0384  0.0259  0.0723
24134DOPC   C3B30293  24.021   6.361  12.819  0.1522  0.1329  0.2632
24134DOPC   C4B30294  24.382   6.537  12.994  0.2311 -0.1891 -0.0675
24135DOPC   NC330295  26.620   3.492  10.897  0.1832  0.0028 -0.2821
24135DOPC   PO430296  26.337   3.744  10.961 -0.2731  0.2546  0.0803
24135DOPC   GL130297  26.190   3.590  11.296  0.2406  0.2141 -0.6222
24135DOPC   GL230298  26.423   3.395  11.352 -0.2187  0.2444  0.0276
24135DOPC   C1A30299  25.876   3.662  11.624 -0.2423  0.0773 -0.2948
24135DOPC   D2A30300  25.500   3.485  11.844 -0.0718 -0.0222  0.1018
24135DOPC   C3A30301  25.587   3.056  11.890 -0.3502  0.1410  0.0493
24135DOPC   C4A30302  25.968   2.776  11.893  0.0361  0.0599  0.0871
24135DOPC   C1B30303  26.488   3.676  11.725 -0.1874 -0.3832 -0.2744
24135DOPC   D2B30304  26.709   3.703  12.127  0.0618  0.0731 -0.1767
24135DOPC   C3B30305  26.807   3.933  12.484  0.0579  0.1483 -0.0507
24135DOPC   C4B30306  26.851   3.993  12.925 -0.2162  0.1613 -0.4765
24136DOPC   NC330307  13.378   7.589  10.388  0.2164 -0.1682 -0.0363
24136DOPC   PO430308  13.732   7.493  10.480  0.0020  0.2659 -0.0620
24136DOPC   GL130309  13.825   7.332  10.931  0.0587  0.0868 -0.1335
24136DOPC   GL230310  13.667   7.532  10.944 -0.0084  0.1089  0.0690
24136DOPC   C1A30311  13.774   7.097  11.268 -0.0789  0.2061  0.1564
24136DOPC   D2A30312  13.693   6.965  11.702 -0.2258  0.0009 -0.2263
24136DOPC   C3A30313  13.810   6.662  12.023 -0.1589 -0.1610 -0.1468
24136DOPC   C4A30314  13.819   6.322  12.386  0.0737 -0.0757  0.1495
24136DOPC   C1B30315  13.273   7.566  11.236  0.0278 -0.0181  0.1769
24136DOPC   D2B30316  12.986   7.860  11.546 -0.0087 -0.3257  0.0031
24136DOPC   C3B30317  12.800   7.640  11.866  0.1488  0.0151 -0.2285
24136DOPC   C4B30318  12.501   7.493  12.277 -0.4686  0.3996  0.0178
24137DOPC   NC330319  23.128   6.684  11.292 -0.3745 -0.1770 -0.1823
24137DOPC   PO430320  23.094   6.307  11.320 -0.3072  0.2476 -0.3554
24137DOPC   GL130321  23.151   6.076  11.763 -0.0994  0.0534 -0.2018
24137DOPC   GL230322  23.075   6.312  11.830 -0.2200 -0.1636  0.2833
24137DOPC   C1A30323  23.017   5.758  12.018 -0.0217 -0.1948  0.0198
24137DOPC   D2A30324  23.103   5.706  12.482  0.1862 -0.0328  0.1302
24137DOPC   C3A30325  23.296   5.486  12.820  0.1530  0.2842  0.1627
24137DOPC   C4A30326  23.440   5.135  13.141 -0.0112 -0.1610  0.0549
24137DOPC   C1B30327  22.992   6.511  12.229  0.3913 -0.0286  0.1452
24137DOPC   D2B30328  23.017   6.585  12.705 -0.2001 -0.2432  0.0768
24137DOPC   C3B30329  22.564   6.645  12.843 -0.0973  0.0426 -0.2173
24137DOPC   C4B30330  22.369   6.913  13.282 -0.2268 -0.1076  0.0232
24138DOPC   NC330331  20.839   0.118  10.588  0.1160  0.1151  0.2333
24138DOPC   PO430332  20.432   0.117  10.571 -0.3075  0.1508  0.1487
24138DOPC   GL130333  20.351   0.330  10.823  0.0639 -0.4518  0.0224
24138DOPC   GL230334  20.526   0.277  11.052 -0.1780  0.3267  0.1487
24138DOPC   C1A30335  19.986   0.516  10.969  0.0068  0.0563  0.1451
24138DOPC   D2A30336  19.800   0.609  11.429 -0.3107  0.4958  0.1084
24138DOPC   C3A30337  19.935   0.726  11.837  0.0494  0.0855  0.1374
24138DOPC   C4A30338  20.073   0.614  12.318  0.0744 -0.3383  0.1741
24138DOPC   C1B30339  20.379   0.628  11.327  0.1621  0.1122 -0.1541
24138DOPC   D2B30340  20.534   0.974  11.750  0.0851  0.0843 -0.0402
24138DOPC   C3B30341  20.495   0.858  12.174 -0.0091  0.1887  0.1243
24138DOPC   C4B30342  20.379   0.722  12.655  0.0134  0.0446 -0.2584
24139DOPC   NC330343  26.514   4.548  10.383  0.2742  0.1025 -0.0824
24139DOPC   PO430344  26.324   4.704  10.721 -0.0683  0.1269 -0.0832
24139DOPC   GL130345  26.363   4.549  11.131  0.0730 -0.1831  0.1346
24139DOPC   GL230346  26.081   4.534  11.142  0.2451  0.2048  0.2527
24139DOPC   C1A30347  26.460   4.669  11.512 -0.4001  0.0276  0.0928
24139DOPC   D2A30348  26.421   4.772  11.973  0.1461  0.0110 -0.1685
24139DOPC   C3A30349  26.482   4.854  12.429  0.3099 -0.0040 -0.0773
24139DOPC   C4A30350  26.643   4.904  12.868  0.1501 -0.0958  0.0844
24139DOPC   C1B30351  25.967   4.515  11.564  0.1964  0.0642  0.1755
24139DOPC   D2B30352  26.054   4.474  12.021 -0.3456  0.0764  0.2014
24139DOPC   C3B30353  25.888   4.737  12.373 -0.0199  0.3059 -0.3159
24139DOPC   C4B30354  25.444   4.698  12.558  0.1099 -0.0291  0.1712
24140DOPC   NC330355  24.151   4.793  11.063 -0.1441 -0.0901 -0.1029
24140DOPC   PO430356  23.790   4.873  10.969  0.1770  0.1170  0.3093
24140DOPC   GL130357  23.682   5.058  11.370 -0.1945  0.1992 -0.2584
24140DOPC   GL230358  23.974   5.140  11.319 -0.2239  0.1813  0.0971
24140DOPC   C1A30359  23.678   5.007  11.851 -0.0469  0.1574  0.3506
24140DOPC   D2A30360  23.610   4.980  12.331 -0.0714  0.1190 -0.1324
24140DOPC   C3A30361  23.349   4.702  12.659  0.1550 -0.0384  0.0949
24140DOPC   C4A30362  23.336   4.551  13.131 -0.1731 -0.0064  0.0572
24140DOPC   C1B30363  24.111   5.257  11.684  0.2500 -0.2596 -0.1628
24140DOPC   D2B30364  23.896   5.518  12.013 -0.0358  0.0181 -0.2775
24140DOPC   C3B30365  24.225   5.393  12.426  0.4607  0.0061 -0.1123
24140DOPC   C4B30366  24.664   5.233  12.559  0.1827 -0.0593 -0.0376
24141DOPC   NC330367   2.403   2.884  11.370  0.1663 -0.1354 -0.2602
24141DOPC   PO430368   2.182   2.577  11.476  0.0333 -0.0901 -0.0601
24141DOPC   GL130369   1.942   2.393  11.788 -0.1726  0.1252 -0.3281
24141DOPC   GL230370   2.066   2.714  11.863 -0.1203 -0.0528 -0.2797
24141DOPC   C1A30371   2.041   2.263  12.165 -0.0172  0.3578  0.1994
24141DOPC   D2A30372   1.942   2.144  12.594 -0.0562  0.1330 -0.1502
24141DOPC   C3A30373   1.563   2.255  12.817 -0.1949 -0.2248  0.0588
24141DOPC   C4A30374   1.429   2.382  13.310 -0.2118  0.0138 -0.3901
24141DOPC   C1B30375   2.212   2.749  12.262 -0.2651  0.1692 -0.2868
24141DOPC   D2B30376   2.360   2.455  12.622  0.0064  0.0172  0.2666
24141DOPC   C3B30377   2.808   2.486  12.815 -0.2397  0.0800  0.1069
24141DOPC   C4B30378   3.078   2.539  13.209 -0.0672 -0.0962 -0.1706
24142DOPC   NC330379  11.151   6.092  10.737  0.1975  0.1463  0.0596
24142DOPC   PO430380  10.932   6.426  10.628  0.0603 -0.0596 -0.2090
24142DOPC   GL130381  10.739   6.395  11.025  0.0718  0.2619 -0.1193
24142DOPC   GL230382  10.891   6.210  11.089  0.1852  0.4477 -0.1795
24142DOPC   C1A30383  10.350   6.297  11.279  0.2479 -0.1163  0.0945
24142DOPC   D2A30384  10.373   6.549  11.686  0.0408  0.0431 -0.0377
24142DOPC   C3A30385  10.476   6.352  12.127 -0.0838 -0.1626 -0.0717
24142DOPC   C4A30386  10.599   6.253  12.605 -0.2869 -0.0426 -0.2428
24142DOPC   C1B30387  10.810   6.420  11.473 -0.1074  0.1826 -0.1768
24142DOPC   D2B30388  10.878   6.553  11.963  0.1358 -0.2785  0.1140
24142DOPC   C3B30389  10.985   6.289  12.303 -0.0987  0.0198 -0.0505
24142DOPC   C4B30390  11.050   6.264  12.764  0.2902 -0.0002 -0.0698
24143DOPC   NC330391   4.735   6.189  11.516 -0.1690  0.1646 -0.2499
24143DOPC   PO430392   4.967   6.031  11.202 -0.1999 -0.2629  0.0120
24143DOPC   GL130393   5.215   5.931  11.585  0.0261 -0.0377 -0.2912
24143DOPC   GL230394   5.506   6.006  11.464 -0.3374  0.2020 -0.0175
24143DOPC   C1A30395   5.238   5.737  12.012 -0.2670 -0.0735 -0.2233
24143DOPC   D2A30396   5.306   5.751  12.485  0.0176  0.1958 -0.1589
24143DOPC   C3A30397   5.199   6.224  12.674 -0.3137  0.1487  0.3373
24143DOPC   C4A30398   5.090   6.626  12.957  0.0471 -0.2138 -0.0624
24143DOPC   C1B30399   5.907   6.023  11.752 -0.0367  0.0126  0.0369
24143DOPC   D2B30400   6.135   6.084  12.148  0.0910  0.0311  0.1923
24143DOPC   C3B30401   6.299   6.011  12.531 -0.3843  0.0143  0.0141
24143DOPC   C4B30402   6.356   6.002  13.006 -0.0497 -0.1922 -0.0880
24144DOPC   NC330403  18.774   1.631  10.374 -0.0221 -0.0139  0.1097
24144DOPC   PO430404  18.410   1.706  10.459  0.0950  0.2427 -0.0039
24144DOPC   GL130405  18.279   1.457  10.750  0.2889 -0.0484 -0.2213
24144DOPC   GL230406  18.128   1.238  10.827  0.1935  0.0146  0.0338
24144DOPC   C1A30407  18.518   1.477  11.086  0.1232  0.2052  0.1579
24144DOPC   D2A30408  18.718   1.609  11.504 -0.0955  0.3025 -0.1323
24144DOPC   C3A30409  18.944   1.791  11.900 -0.1444  0.2727 -0.0389
24144DOPC   C4A30410  19.128   1.751  12.338  0.0206 -0.2428 -0.3394
24144DOPC   C1B30411  18.289   0.977  11.126 -0.1773  0.1050  0.0615
24144DOPC   D2B30412  18.416   0.782  11.645  0.0882  0.2631 -0.2255
24144DOPC   C3B30413  18.229   0.704  12.018 -0.2496 -0.0256 -0.0363
24144DOPC   C4B30414  17.909   0.591  12.307  0.1162  0.2500 -0.3441
24145DOPC   NC330415  25.827   0.409  11.156  0.4405 -0.0756 -0.0868
24145DOPC   PO430416  25.446   0.345  11.224  0.5532 -0.2046  0.3556
24145DOPC   GL130417  25.370   0.487  11.665 -0.1797 -0.0677 -0.2408
24145DOPC   GL230418  25.088   0.475  11.584  0.1385 -0.1049  0.3246
24145DOPC   C1A30419  25.517   0.687  12.009 -0.3429  0.3093 -0.0599
24145DOPC   D2A30420  25.611   0.909  12.483  0.0670  0.4942  0.5005
24145DOPC   C3A30421  25.850   0.715  12.746 -0.0343 -0.1584  0.0607
24145DOPC   C4A30422  26.265   0.534  12.924 -0.2808 -0.4161  0.0442
24145DOPC   C1B30423  25.004   0.397  11.991 -0.0286  0.0274 -0.0784
24145DOPC   D2B30424  25.127   0.390  12.448  0.2274  0.0384 -0.3602
24145DOPC   C3B30425  25.338   0.590  12.821  0.1099  0.1797 -0.0555
24145DOPC   C4B30426  25.662   0.499  13.199  0.0523  0.0445 -0.1131
24146DOPC   NC330427  27.083   0.461  10.978 -0.0990  0.1441  0.0311
24146DOPC   PO430428  26.855   0.762  11.022  0.0786  0.2864  0.1184
24146DOPC   GL130429  26.786   0.783  11.449  0.0107  0.2487 -0.0353
24146DOPC   GL230430  26.587   0.611  11.438 -0.1619  0.2446  0.1348
24146DOPC   C1A30431  26.813   0.911  11.827  0.0987  0.0976 -0.1502
24146DOPC   D2A30432  26.833   0.978  12.335 -0.0299  0.1815 -0.0495
24146DOPC   C3A30433  26.813   0.840  12.766 -0.1532 -0.2769  0.2809
24146DOPC   C4A30434  27.079   0.993  13.168 -0.0180 -0.2021  0.3482
24146DOPC   C1B30435  26.536   0.479  11.823  0.0841 -0.0738 -0.1564
24146DOPC   D2B30436  26.366   0.315  12.247 -0.0049  0.0081  0.0141
24146DOPC   C3B30437  26.188   0.125  12.608  0.1414  0.0871 -0.2136
24146DOPC   C4B30438  25.830   0.126  12.909 -0.0057 -0.1416 -0.1515
24147DOPC   NC330439  26.099   7.407  11.020 -0.0370 -0.0529  0.1034
24147DOPC   PO430440  25.918   7.794  11.067  0.0354  0.2240  0.1673
24147DOPC   GL130441  25.786   7.862  11.407  0.1449 -0.2006 -0.1680
24147DOPC   GL230442  26.060   7.628  11.458 -0.1385 -0.0829  0.0591
24147DOPC   C1A30443  25.886   8.115  11.771  0.1900  0.1248 -0.2422
24147DOPC   D2A30444  26.049   8.466  12.078  0.1457 -0.3260  0.1186
24147DOPC   C3A30445  26.315   8.590  12.455 -0.2214  0.1846 -0.0322
24147DOPC   C4A30446  26.328   8.844  12.858 -0.1185  0.0277  0.1595
24147DOPC   C1B30447  26.304   7.762  11.809  0.3029  0.2053 -0.1271
24147DOPC   D2B30448  26.646   7.750  12.171 -0.0981 -0.1959 -0.1912
24147DOPC   C3B30449  26.815   7.729  12.651 -0.1394 -0.5067 -0.3464
24147DOPC   C4B30450  26.959   7.710  13.131  0.0384  0.1818 -0.0606
24148DOPC   NC330451   5.010   6.842  11.127 -0.3234 -0.0782  0.2004
24148DOPC   PO430452   4.733   6.726  11.356 -0.0965  0.1703 -0.0501
24148DOPC   GL130453   4.868   6.871  11.768  0.0849  0.4328 -0.0061
24148DOPC   GL230454   4.584   6.752  11.767 -0.0035 -0.2964 -0.1866
24148DOPC   C1A30455   4.971   7.029  12.109  0.3636  0.0073 -0.0060
24148DOPC   D2A30456   4.957   7.260  12.553 -0.0676 -0.0176 -0.1459
24148DOPC   C3A30457   4.917   7.129  13.009 -0.2084  0.0588 -0.1634
24148DOPC   C4A30458   4.801   6.861  13.445  0.0779 -0.2737 -0.1135
24148DOPC   C1B30459   4.496   6.810  12.189  0.2809 -0.0144  0.1922
24148DOPC   D2B30460   4.692   6.880  12.658 -0.3539  0.3283  0.1210
24148DOPC   C3B30461   4.319   6.662  12.855  0.0137 -0.2833  0.1367
24148DOPC   C4B30462   3.961   6.448  13.218 -0.4020 -0.1249  0.0615
24149DOPC   NC330463  25.823   3.716  10.979  0.0417 -0.0410 -0.3015
24149DOPC   PO430464  25.678   4.063  10.925  0.0171 -0.0319 -0.0414
24149DOPC   GL130465  25.806   4.188  11.280  0.0906 -0.4748 -0.2439
24149DOPC   GL230466  26.082   4.083  11.165 -0.1209 -0.3197  0.1481
24149DOPC   C1A30467  25.578   4.117  11.723  0.1142  0.0091  0.2355
24149DOPC   D2A30468  25.739   3.828  12.094 -0.0968 -0.0083  0.0596
24149DOPC   C3A30469  25.637   3.442  12.306  0.2810 -0.1287  0.0845
24149DOPC   C4A30470  25.634   3.110  12.735  0.1043 -0.0078 -0.0681
24149DOPC   C1B30471  26.181   4.051  11.542 -0.1177  0.0138  0.2040
24149DOPC   D2B30472  26.250   4.013  11.997 -0.0672  0.1943 -0.3325
24149DOPC   C3B30473  26.078   4.122  12.419 -0.1693 -0.3135 -0.2440
24149DOPC   C4B30474  25.565   4.232  12.372  0.3558 -0.2353  0.1187
24150DOPS   CNO30475  13.436   4.288  10.852  0.0677 -0.0026 -0.2243
24150DOPS   PO430476  13.349   4.647  10.920  0.1889 -0.1462 -0.0984
24150DOPS   GL130477  13.269   4.724  11.275  0.1397  0.1808 -0.2978
24150DOPS   GL230478  12.994   4.843  11.251  0.2674  0.4286  0.2191
24150DOPS   C1A30479  13.225   4.672  11.677  0.2259 -0.2624  0.1252
24150DOPS   D2A30480  13.180   4.802  12.154 -0.0075 -0.2158 -0.3010
24150DOPS   C3A30481  13.107   4.547  12.528 -0.1512  0.0736 -0.2264
24150DOPS   C4A30482  12.822   4.402  12.925 -0.3360  0.0357 -0.1538
24150DOPS   C1B30483  12.586   4.738  11.448 -0.0396  0.0466 -0.0407
24150DOPS   D2B30484  12.209   4.485  11.668  0.1314  0.1393  0.0422
24150DOPS   C3B30485  12.273   4.702  12.056 -0.0150 -0.1039 -0.0817
24150DOPS   C4B30486  12.178   4.791  12.505 -0.0849  0.3378  0.0099
24151DOPS   CNO30487  15.873   5.244  10.625  0.3223  0.0069  0.0207
24151DOPS   PO430488  15.830   5.057  10.932 -0.0445 -0.3485  0.1641
24151DOPS   GL130489  15.890   5.096  11.392 -0.2180 -0.4164  0.1273
24151DOPS   GL230490  15.719   5.308  11.474  0.1341 -0.1809 -0.0037
24151DOPS   C1A30491  15.881   4.731  11.633 -0.0896 -0.2045 -0.0222
24151DOPS   D2A30492  15.808   4.339  11.990 -0.2570 -0.0022  0.1991
24151DOPS   C3A30493  15.606   4.370  12.462 -0.0668 -0.2535 -0.1161
24151DOPS   C4A30494  15.398   4.416  12.947 -0.0139 -0.0494 -0.0611
24151DOPS   C1B30495  16.007   5.300  11.809  0.1788 -0.2263 -0.1144
24151DOPS   D2B30496  16.166   5.318  12.325  0.2027  0.0290 -0.0270
24151DOPS   C3B30497  16.386   5.433  12.752 -0.0220  0.0668 -0.1667
24151DOPS   C4B30498  16.434   5.771  13.095  0.2018  0.0641  0.1117
24152DOPS   CNO30499  26.967   4.813  10.526 -0.0317  0.0372  0.2534
24152DOPS   PO430500  27.197   4.878  10.819 -0.2754  0.0172 -0.1017
24152DOPS   GL130501  27.154   4.640  11.140 -0.2937 -0.1015 -0.0647
24152DOPS   GL230502  27.422   4.875  11.252  0.1260  0.0999 -0.2827
24152DOPS   C1A30503  26.880   4.454  11.399 -0.1951 -0.1120 -0.0396
24152DOPS   D2A30504  26.620   4.222  11.723 -0.1705 -0.3662 -0.0113
24152DOPS   C3A30505  26.509   4.353  12.188 -0.1244  0.1709  0.0833
24152DOPS   C4A30506  26.488   4.340  12.688  0.0087  0.0433 -0.1211
24152DOPS   C1B30507  27.493   4.911  11.738 -0.0194 -0.0752 -0.0356
24152DOPS   D2B30508  27.474   4.874  12.262  0.3362 -0.1513  0.1367
24152DOPS   C3B30509  27.606   4.493  12.514 -0.0702 -0.0383 -0.2589
24152DOPS   C4B30510  27.947   4.177  12.460  0.1546  0.0126  0.0360
24153DOPS   CNO30511   3.121   3.227  10.697 -0.2913 -0.0579  0.1132
24153DOPS   PO430512   2.885   3.434  10.896  0.2387  0.2651 -0.3199
24153DOPS   GL130513   2.684   3.292  11.330 -0.4657 -0.1169 -0.0062
24153DOPS   GL230514   2.806   3.544  11.455  0.3144 -0.2081  0.3114
24153DOPS   C1A30515   2.854   3.029  11.654 -0.0531  0.1162 -0.0999
24153DOPS   D2A30516   3.111   2.788  11.979  0.1828 -0.1308 -0.0190
24153DOPS   C3A30517   3.516   2.672  12.259 -0.2225 -0.1803 -0.1766
24153DOPS   C4A30518   3.804   2.625  12.614  0.2080 -0.0873 -0.0698
24153DOPS   C1B30519   2.964   3.509  11.844  0.2566  0.2850 -0.0326
24153DOPS   D2B30520   2.993   3.307  12.328  0.4531 -0.0678 -0.0008
24153DOPS   C3B30521   2.944   3.277  12.800  0.1129 -0.0733  0.1260
24153DOPS   C4B30522   2.823   3.292  13.257  0.1521 -0.1059 -0.0221
24154DOPS   CNO30523  26.913   1.696  10.887  0.0060 -0.2181 -0.0850
24154DOPS   PO430524  27.252   1.805  10.730  0.0190 -0.0381  0.2123
24154DOPS   GL130525  27.394   1.846  11.175 -0.1979  0.0813 -0.0222
24154DOPS   GL230526  27.216   1.583  11.200 -0.0291 -0.1839 -0.1066
24154DOPS   C1A30527  27.350   1.964  11.647 -0.2584 -0.1160  0.2306
24154DOPS   D2A30528  27.070   2.120  12.093  0.1540 -0.2564  0.2151
24154DOPS   C3A30529  27.239   1.926  12.478  0.2377 -0.0428 -0.1084
24154DOPS   C4A30530  27.435   1.691  12.906 -0.1838 -0.0382 -0.1275
24154DOPS   C1B30531  27.306   1.367  11.573 -0.0228 -0.1084 -0.0382
24154DOPS   D2B30532  27.317   1.178  12.046 -0.0220  0.0108 -0.1417
24154DOPS   C3B30533  27.626   1.027  12.348 -0.0492 -0.0397  0.1061
24154DOPS   C4B30534  28.081   0.867  12.527 -0.0214 -0.2974  0.0086
24155DOPS   CNO30535   9.998   7.796  10.834  0.2054 -0.1882 -0.0575
24155DOPS   PO430536  10.221   7.558  10.681 -0.0081 -0.0471  0.2620
24155DOPS   GL130537  10.259   7.339  10.980 -0.1361  0.2481  0.0197
24155DOPS   GL230538  10.020   7.089  10.857  0.0133 -0.0687  0.1560
24155DOPS   C1A30539  10.174   7.430  11.394 -0.0853 -0.2928 -0.0225
24155DOPS   D2A30540  10.221   7.400  11.906 -0.1590  0.1603  0.0825
24155DOPS   C3A30541   9.973   7.299  12.269 -0.1766  0.3120  0.0394
24155DOPS   C4A30542   9.650   7.185  12.667 -0.0241  0.2616 -0.0569
24155DOPS   C1B30543   9.735   6.978  11.165  0.0403 -0.1119 -0.1099
24155DOPS   D2B30544   9.390   6.847  11.561 -0.2455 -0.1022 -0.2689
24155DOPS   C3B30545   9.255   7.014  11.991 -0.1562  0.3175 -0.0241
24155DOPS   C4B30546   9.232   7.244  12.414 -0.0191  0.0106 -0.2124
24156DOPS   CNO30547  26.250   6.415  10.940 -0.0841  0.1342  0.1052
24156DOPS   PO430548  26.629   6.392  11.038 -0.1523 -0.2231  0.2601
24156DOPS   GL130549  26.488   6.158  11.339  0.1191  0.1496 -0.0172
24156DOPS   GL230550  26.329   5.957  11.221 -0.2182  0.2948  0.0831
24156DOPS   C1A30551  26.575   6.212  11.772 -0.0969  0.2367 -0.0745
24156DOPS   D2A30552  26.617   6.329  12.316 -0.0570 -0.3232 -0.2152
24156DOPS   C3A30553  26.775   6.474  12.732 -0.1706 -0.1467  0.3213
24156DOPS   C4A30554  26.974   6.321  13.121 -0.3205  0.0856 -0.1888
24156DOPS   C1B30555  26.393   5.748  11.600  0.0020  0.0618  0.0796
24156DOPS   D2B30556  26.535   5.815  12.081 -0.1253  0.1176  0.0081
24156DOPS   C3B30557  26.390   5.596  12.435  0.0446 -0.0804 -0.2162
24156DOPS   C4B30558  26.104   5.425  12.826 -0.1953  0.0735  0.2792
24157DOPS   CNO30559  12.212   1.350  10.917 -0.3454  0.1220 -0.0268
24157DOPS   PO430560  12.537   1.468  10.777  0.2976 -0.2461 -0.2650
24157DOPS   GL130561  12.686   1.291  11.071 -0.0704  0.2643  0.1620
24157DOPS   GL230562  12.513   1.102  11.144  0.2904 -0.3867 -0.4461
24157DOPS   C1A30563  12.838   1.441  11.411 -0.1274  0.1725  0.4173
24157DOPS   D2A30564  12.651   1.439  11.875  0.2486 -0.0613 -0.0659
24157DOPS   C3A30565  12.386   1.375  12.265 -0.0401 -0.1259 -0.0181
24157DOPS   C4A30566  12.143   1.311  12.613  0.0660  0.1203  0.2819
24157DOPS   C1B30567  12.338   1.179  11.521  0.0586 -0.1790  0.2538
24157DOPS   D2B30568  12.102   1.188  11.893 -0.1070  0.2566  0.1796
24157DOPS   C3B30569  11.705   1.217  12.092 -0.0487  0.0008 -0.0451
24157DOPS   C4B30570  11.514   1.078  12.497  0.5008  0.2247  0.1025
24158DOPS   CNO30571  20.929   7.752  10.018 -0.0974 -0.0550  0.1317
24158DOPS   PO430572  20.993   7.351  10.037  0.1320 -0.1736 -0.2494
24158DOPS   GL130573  21.264   7.334  10.448 -0.1629  0.1437 -0.0898
24158DOPS   GL230574  21.175   7.603  10.454 -0.1930  0.0993 -0.2421
24158DOPS   C1A30575  21.468   7.410  10.794 -0.2368  0.0145  0.2275
24158DOPS   D2A30576  21.623   7.490  11.286 -0.0987  0.3971  0.5430
24158DOPS   C3A30577  21.258   7.652  11.555 -0.0684 -0.1556 -0.4267
24158DOPS   C4A30578  21.088   7.373  11.804 -0.0207 -0.0900  0.2219
24158DOPS   C1B30579  20.837   7.475  10.698 -0.0305  0.0087 -0.0991
24158DOPS   D2B30580  20.578   7.085  10.930  0.2388 -0.3283 -0.1092
24158DOPS   C3B30581  20.658   6.871  11.326 -0.0784 -0.0164 -0.3032
24158DOPS   C4B30582  20.529   6.631  11.788  0.0327  0.1291  0.0261
24159DOPS   CNO30583   1.391   4.398  11.306 -0.3835  0.1999  0.0234
24159DOPS   PO430584   1.441   4.020  11.398  0.1935  0.0587  0.0926
24159DOPS   GL130585   1.667   3.919  11.672 -0.0979 -0.1384 -0.4602
24159DOPS   GL230586   1.435   3.753  11.807 -0.3159  0.0055  0.2169
24159DOPS   C1A30587   1.771   4.103  12.070  0.0117  0.0311 -0.0456
24159DOPS   D2A30588   2.084   4.307  12.378  0.2824  0.1391 -0.0249
24159DOPS   C3A30589   2.299   4.428  12.776 -0.1164  0.0952  0.1987
24159DOPS   C4A30590   2.242   4.730  13.164 -0.0041 -0.1627  0.0156
24159DOPS   C1B30591   1.263   3.827  12.182  0.0435 -0.0283 -0.3988
24159DOPS   D2B30592   0.981   3.859  12.576  0.2922 -0.2116  0.1707
24159DOPS   C3B30593   1.008   4.191  12.852 -0.3386 -0.0280 -0.2730
24159DOPS   C4B30594   0.964   4.394  13.259  0.1038 -0.1613 -0.1802
24160DOPS   CNO30595   5.152   5.185  11.062  0.2587 -0.1499  0.1505
24160DOPS   PO430596   5.407   5.035  11.277 -0.0784  0.1072  0.2053
24160DOPS   GL130597   5.320   4.894  11.694  0.1561  0.0961  0.1977
24160DOPS   GL230598   5.623   5.008  11.631  0.0244  0.0375  0.2869
24160DOPS   C1A30599   5.489   4.852  12.092  0.1863 -0.3325  0.1781
24160DOPS   D2A30600   5.479   4.719  12.572 -0.1497  0.0428  0.0687
24160DOPS   C3A30601   5.289   4.559  12.979 -0.2702  0.2152 -0.1232
24160DOPS   C4A30602   5.360   4.419  13.418 -0.1650 -0.0416 -0.1043
24160DOPS   C1B30603   5.913   5.110  11.908  0.1639 -0.0915 -0.1921
24160DOPS   D2B30604   6.235   5.137  12.281 -0.1498  0.1672  0.0694
24160DOPS   C3B30605   6.384   5.130  12.740 -0.0729  0.1840 -0.2250
24160DOPS   C4B30606   6.764   5.063  13.048 -0.1715  0.0401 -0.1024
24161DOPS   CNO30607  24.813   4.809  11.025 -0.2441 -0.1117  0.1399
24161DOPS   PO430608  24.592   4.557  11.186  0.0761  0.3045 -0.3167
24161DOPS   GL130609  24.552   4.771  11.547 -0.2413  0.1284 -0.2068
24161DOPS   GL230610  24.256   4.743  11.614 -0.2649  0.0152  0.0580
24161DOPS   C1A30611  24.705   5.179  11.719  0.1920 -0.0351  0.1079
24161DOPS   D2A30612  25.068   5.502  11.927  0.0390  0.1148 -0.0285
24161DOPS   C3A30613  25.132   5.669  12.384  0.0276 -0.2285 -0.0367
24161DOPS   C4A30614  25.221   5.739  12.807 -0.2860 -0.0223 -0.2386
24161DOPS   C1B30615  24.067   4.685  11.939  0.0886 -0.1996 -0.1004
24161DOPS   D2B30616  24.043   4.752  12.450  0.0354 -0.3693  0.1939
24161DOPS   C3B30617  24.245   4.920  12.815  0.4974 -0.3431 -0.1480
24161DOPS   C4B30618  24.242   5.407  12.997 -0.1896 -0.2177  0.1109
24162DOPS   CNO30619  14.825   2.267  10.347  0.2148 -0.0679  0.1165
24162DOPS   PO430620  15.011   2.237  10.710  0.0107  0.0145 -0.0255
24162DOPS   GL130621  14.902   2.466  11.073 -0.2691  0.0403  0.0532
24162DOPS   GL230622  15.171   2.261  11.189  0.1868  0.1112  0.0754
24162DOPS   C1A30623  14.703   2.535  11.404 -0.1243 -0.1783 -0.1576
24162DOPS   D2A30624  14.491   2.950  11.629 -0.3180 -0.2931  0.1068
24162DOPS   C3A30625  14.460   3.439  11.744 -0.1866  0.2188 -0.1340
24162DOPS   C4A30626  14.542   3.575  12.238  0.0827  0.2735 -0.1418
24162DOPS   C1B30627  15.176   1.942  11.499 -0.0112  0.1701 -0.0862
24162DOPS   D2B30628  15.000   1.725  11.907 -0.0806  0.0395  0.0086
24162DOPS   C3B30629  15.001   1.944  12.269 -0.0880 -0.0274  0.0422
24162DOPS   C4B30630  15.019   2.142  12.766 -0.0616 -0.0577  0.0228
24163DOPS   CNO30631  12.608   5.304  10.452  0.2894  0.1689  0.3990
24163DOPS   PO430632  12.685   5.289  10.829  0.0849  0.1271 -0.0125
24163DOPS   GL130633  12.696   5.516  11.266  0.0564 -0.2871  0.1005
24163DOPS   GL230634  12.723   5.214  11.340  0.0180 -0.1129  0.4266
24163DOPS   C1A30635  12.462   5.638  11.586 -0.1643 -0.0268  0.1763
24163DOPS   D2A30636  12.282   5.934  11.948  0.2662  0.0788 -0.1242
24163DOPS   C3A30637  12.415   5.892  12.428  0.0603 -0.0578 -0.1610
24163DOPS   C4A30638  12.749   5.968  12.855  0.3999  0.1647 -0.0798
24163DOPS   C1B30639  12.930   5.221  11.721 -0.1718 -0.0331 -0.5879
24163DOPS   D2B30640  13.126   5.343  12.188  0.0412 -0.1831 -0.2052
24163DOPS   C3B30641  13.097   5.109  12.567  0.2241  0.2091  0.1090
24163DOPS   C4B30642  13.050   5.111  13.038  0.0224 -0.1254 -0.0544
24164DOPS   CNO30643  11.024   2.571  11.016 -0.0425 -0.1188 -0.0321
24164DOPS   PO430644  11.017   2.943  11.010 -0.2288  0.1234 -0.2365
24164DOPS   GL130645  10.957   3.117  11.403  0.0088  0.2527  0.1244
24164DOPS   GL230646  10.950   2.828  11.448  0.0706 -0.3254 -0.0389
24164DOPS   C1A30647  10.961   3.452  11.695 -0.2259  0.0896  0.0422
24164DOPS   D2A30648  11.010   3.727  12.148 -0.1837  0.0794  0.1577
24164DOPS   C3A30649  11.259   3.776  12.522  0.2399 -0.0421  0.0650
24164DOPS   C4A30650  11.465   3.802  12.962  0.0598 -0.1124 -0.0782
24164DOPS   C1B30651  11.111   2.485  11.621 -0.0521 -0.1172  0.0379
24164DOPS   D2B30652  11.136   2.161  12.015 -0.1722 -0.0554 -0.0612
24164DOPS   C3B30653  11.296   2.460  12.352  0.0460  0.0835 -0.1272
24164DOPS   C4B30654  11.528   2.637  12.762 -0.1237  0.0486  0.1164
24165DOPS   CNO30655  14.022   5.764  10.561  0.1026  0.1135  0.2255
24165DOPS   PO430656  13.859   5.695  10.904 -0.0902 -0.1009 -0.2244
24165DOPS   GL130657  13.992   5.822  11.260  0.1446  0.0210  0.1670
24165DOPS   GL230658  14.191   5.708  11.337  0.2781 -0.1350 -0.2792
24165DOPS   C1A30659  13.636   5.990  11.513  0.2489  0.3368  0.1077
24165DOPS   D2A30660  13.331   6.258  11.822  0.0484 -0.2357 -0.2634
24165DOPS   C3A30661  13.287   6.334  12.309 -0.0265 -0.0290  0.1012
24165DOPS   C4A30662  13.046   6.335  12.705 -0.0574 -0.1642  0.0928
24165DOPS   C1B30663  14.014   5.608  11.689  0.0791 -0.0542  0.0849
24165DOPS   D2B30664  14.021   5.319  12.068  0.1813 -0.0219 -0.1380
24165DOPS   C3B30665  14.393   5.076  12.122  0.0367 -0.2217 -0.1142
24165DOPS   C4B30666  14.622   5.059  12.573  0.4233  0.0461 -0.1691
24166DOPS   CNO30667  24.948   5.379  10.718  0.0419 -0.2615 -0.0673
24166DOPS   PO430668  24.879   5.730  10.871  0.1828  0.2072  0.3379
24166DOPS   GL130669  24.955   5.782  11.270  0.1322 -0.0874  0.2295
24166DOPS   GL230670  25.155   5.940  11.285  0.1530  0.1247  0.0031
24166DOPS   C1A30671  24.730   5.715  11.679 -0.1841 -0.0455  0.1142
24166DOPS   D2A30672  24.529   5.472  12.058  0.0236 -0.1273 -0.0037
24166DOPS   C3A30673  24.553   5.727  12.467 -0.0570  0.1195  0.2134
24166DOPS   C4A30674  24.501   6.161  12.700  0.2424  0.1204 -0.1572
24166DOPS   C1B30675  25.232   5.885  11.686  0.0985  0.0678 -0.0006
24166DOPS   D2B30676  25.455   5.953  12.112  0.1946 -0.0553  0.0054
24166DOPS   C3B30677  25.373   6.145  12.482 -0.1553  0.0701  0.1634
24166DOPS   C4B30678  24.977   6.146  12.794 -0.2761  0.0908 -0.0096
24167DOPS   CNO30679   9.069   4.863  10.330  0.2049  0.1107 -0.1759
24167DOPS   PO430680   8.830   4.766  10.604  0.0430  0.0071  0.1597
24167DOPS   GL130681   9.023   4.860  10.993  0.3866  0.1599 -0.0416
24167DOPS   GL230682   8.834   4.840  11.127  0.0611  0.0112  0.1032
24167DOPS   C1A30683   9.363   4.733  11.287 -0.0569 -0.3506 -0.1695
24167DOPS   D2A30684   9.688   5.021  11.392 -0.1975 -0.0473 -0.0116
24167DOPS   C3A30685   9.771   5.034  11.855 -0.0783 -0.1089 -0.1096
24167DOPS   C4A30686   9.838   4.966  12.321 -0.0914  0.1264 -0.0407
24167DOPS   C1B30687   8.974   5.009  11.549  0.2328  0.2846  0.0181
24167DOPS   D2B30688   8.904   5.246  11.974 -0.0625 -0.0686  0.1332
24167DOPS   C3B30689   9.301   5.072  12.059  0.0560  0.0594 -0.0240
24167DOPS   C4B30690   9.477   4.731  11.749 -0.1391  0.0595  0.0216
24168DOPS   CNO30691   9.647   7.051  10.290  0.1481  0.0717  0.1690
24168DOPS   PO430692   9.278   6.944  10.385  0.2385 -0.1239 -0.1561
24168DOPS   GL130693   9.230   6.871  10.738 -0.1138  0.5795 -0.2312
24168DOPS   GL230694   9.009   6.641  10.746  0.1789 -0.1132 -0.0210
24168DOPS   C1A30695   9.163   7.145  11.104  0.0451  0.1265  0.1262
24168DOPS   D2A30696   9.284   7.362  11.526 -0.2695 -0.1302 -0.1632
24168DOPS   C3A30697   8.943   7.372  11.893  0.0017 -0.0059  0.0795
24168DOPS   C4A30698   8.590   7.523  12.188  0.4130  0.1083 -0.1205
24168DOPS   C1B30699   8.941   6.407  11.138  0.0346 -0.0225  0.0063
24168DOPS   D2B30700   9.223   6.302  11.525  0.0164 -0.2872 -0.2100
24168DOPS   C3B30701   9.470   6.484  11.904 -0.2226 -0.0380 -0.0255
24168DOPS   C4B30702   9.562   6.285  12.369 -0.0213  0.1606  0.0988
24169DOPS   CNO30703   2.097   6.221  11.414 -0.2142 -0.2265  0.0310
24169DOPS   PO430704   1.821   6.337  11.669  0.1548 -0.0880 -0.3584
24169DOPS   GL130705   2.001   6.626  11.957  0.1989 -0.0242 -0.0122
24169DOPS   GL230706   2.164   6.436  12.086 -0.0342 -0.2621 -0.0935
24169DOPS   C1A30707   1.974   6.831  12.355  0.2959  0.2034  0.0335
24169DOPS   D2A30708   1.866   7.229  12.694  0.1664 -0.0100  0.0759
24169DOPS   C3A30709   1.965   7.322  13.115 -0.0515 -0.0761 -0.0942
24169DOPS   C4A30710   1.999   7.145  13.588  0.1716  0.0636 -0.0749
24169DOPS   C1B30711   1.989   6.276  12.438 -0.3409  0.0298  0.0940
24169DOPS   D2B30712   1.811   6.195  12.881 -0.0200  0.1897 -0.1964
24169DOPS   C3B30713   1.688   6.100  13.353  0.0887  0.2351  0.3348
24169DOPS   C4B30714   1.576   6.017  13.800 -0.2105 -0.1397  0.3243
24170DOPS   CNO30715  22.151   0.361  10.131 -0.1507 -0.0901 -0.1610
24170DOPS   PO430716  22.171  -0.045  10.220 -0.0069 -0.0924 -0.0685
24170DOPS   GL130717  22.088  -0.046  10.693  0.2925  0.3936 -0.1697
24170DOPS   GL230718  21.915  -0.315  10.625 -0.0392 -0.2199  0.2758
24170DOPS   C1A30719  21.787   0.006  10.950 -0.0673  0.3651  0.0874
24170DOPS   D2A30720  21.739   0.141  11.423 -0.2259  0.1147 -0.2424
24170DOPS   C3A30721  21.621   0.057  11.909  0.0540 -0.0326 -0.2965
24170DOPS   C4A30722  21.382   0.237  12.321 -0.0978  0.5540 -0.0226
24170DOPS   C1B30723  21.973  -0.613  10.971  0.0437 -0.0388  0.3028
24170DOPS   D2B30724  22.004  -0.719  11.454  0.0873  0.0518  0.0505
24170DOPS   C3B30725  22.253  -0.786  11.889  0.2272  0.0988  0.0103
24170DOPS   C4B30726  22.417  -1.049  12.290  0.3330 -0.2531  0.0302
24171DOPS   CNO30727  24.465   0.443  10.553 -0.1702 -0.0341 -0.4303
24171DOPS   PO430728  24.629   0.327  10.894 -0.1134  0.0641  0.3712
24171DOPS   GL130729  24.629   0.564  11.265 -0.2687 -0.3912  0.3505
24171DOPS   GL230730  24.452   0.361  11.386  0.1314 -0.0532 -0.0907
24171DOPS   C1A30731  24.709   0.764  11.643 -0.2288 -0.2082 -0.1367
24171DOPS   D2A30732  24.589   0.735  12.110 -0.1282  0.1797 -0.0681
24171DOPS   C3A30733  24.738   0.875  12.532 -0.2070  0.0501  0.0536
24171DOPS   C4A30734  24.902   1.059  12.971  0.3018 -0.2508  0.2264
24171DOPS   C1B30735  24.366   0.440  11.802  0.2188  0.0194 -0.1271
24171DOPS   D2B30736  24.077   0.420  12.249 -0.1206  0.2304 -0.1501
24171DOPS   C3B30737  23.930   0.365  12.720  0.1018 -0.0544 -0.1432
24171DOPS   C4B30738  23.607   0.231  13.064 -0.1075  0.1418  0.0975
24172DOPS   CNO30739  23.793   3.180  11.136 -0.0553 -0.0036  0.2924
24172DOPS   PO430740  23.571   2.906  11.015  0.1385  0.0659 -0.0561
24172DOPS   GL130741  23.540   2.679  11.405  0.0514 -0.0201 -0.4021
24172DOPS   GL230742  23.433   2.923  11.504 -0.2323 -0.1072  0.1472
24172DOPS   C1A30743  23.324   2.564  11.875  0.0461  0.0954  0.1852
24172DOPS   D2A30744  23.294   2.759  12.360 -0.2010  0.2044  0.2912
24172DOPS   C3A30745  23.348   2.683  12.825  0.1944  0.3377  0.0314
24172DOPS   C4A30746  23.375   2.756  13.302  0.2305  0.0721 -0.1420
24172DOPS   C1B30747  23.631   2.991  11.973 -0.2841 -0.0797  0.2338
24172DOPS   D2B30748  23.831   2.792  12.373 -0.0797  0.0280  0.4371
24172DOPS   C3B30749  23.904   2.800  12.836  0.0721 -0.1432  0.0153
24172DOPS   C4B30750  24.200   2.995  13.125  0.0198 -0.2181  0.1346
24173DOPS   CNO30751  12.288   4.991  10.212  0.1906 -0.1368  0.0664
24173DOPS   PO430752  12.096   4.730  10.381 -0.0478  0.0168  0.0441
24173DOPS   GL130753  11.816   4.819  10.736 -0.1242  0.2233  0.1415
24173DOPS   GL230754  12.056   4.805  10.899 -0.1993  0.0047 -0.2876
24173DOPS   C1A30755  11.764   5.197  10.975 -0.0094 -0.1549  0.0359
24173DOPS   D2A30756  11.533   5.665  11.164 -0.2486 -0.1691  0.2066
24173DOPS   C3A30757  11.510   5.677  11.647  0.2036  0.2486  0.0512
24173DOPS   C4A30758  11.561   5.514  12.140  0.1930  0.1717  0.1744
24173DOPS   C1B30759  11.920   4.824  11.355  0.0176  0.0143 -0.0120
24173DOPS   D2B30760  11.833   4.772  11.816 -0.3110 -0.2365  0.1358
24173DOPS   C3B30761  11.667   5.019  12.132 -0.1151 -0.3085  0.2019
24173DOPS   C4B30762  11.387   5.051  12.430  0.1203 -0.0212  0.1342
24174DOPS   CNO30763  17.630   7.247  10.220  0.1270 -0.1225  0.1863
24174DOPS   PO430764  17.903   7.155  10.458  0.0840 -0.1508 -0.2419
24174DOPS   GL130765  17.881   7.114  10.935  0.1958  0.3050 -0.1917
24174DOPS   GL230766  18.103   6.935  10.864  0.3606  0.0746  0.0553
24174DOPS   C1A30767  17.821   6.845  11.334  0.3129  0.0822  0.0894
24174DOPS   D2A30768  17.776   6.633  11.777 -0.0186  0.2241  0.2276
24174DOPS   C3A30769  17.878   6.769  12.272  0.1113  0.2014 -0.0530
24174DOPS   C4A30770  17.968   7.054  12.617  0.1697 -0.0862  0.1899
24174DOPS   C1B30771  18.318   6.806  11.185 -0.3697  0.2709  0.3698
24174DOPS   D2B30772  18.618   6.514  11.419  0.2000  0.0061  0.4267
24174DOPS   C3B30773  18.761   6.204  11.807  0.0493 -0.3040  0.0056
24174DOPS   C4B30774  18.765   5.937  12.199  0.2174  0.1155  0.1615
24175W        W30775  13.457   6.535  18.124 -0.1837  0.0842  0.1837
24176W        W30776  23.499   5.271  24.089 -0.3465 -0.1198 -0.0170
24177W        W30777  22.975   2.293   3.552  0.1116  0.1700  0.0989
24178W        W30778   7.843   5.462  22.237 -0.0418 -0.4297 -0.1245
24179W        W30779   3.637   4.265  26.127 -0.1345 -0.1806  0.3608
24180W        W30780   0.402   7.497   5.634  0.2774  0.0729 -0.0722
24181W        W30781  14.867   5.390  20.035 -0.1978  0.2201  0.2384
24182W        W30782  23.614   6.279  22.171 -0.0474 -0.2051 -0.0594
24183W        W30783   7.991   7.428  23.494  0.1299 -0.0567 -0.1681
24184W        W30784   5.472   2.824  19.105 -0.5207 -0.1114  0.0351
24185W        W30785  30.293   1.634   1.563  0.2592  0.2017  0.0704
24186W        W30786  16.293   1.532  16.688 -0.0025  0.1896 -0.0556
24187W        W30787   2.219   6.702   6.944 -0.0953  0.0501 -0.2878
24188W        W30788  10.819   6.555   0.775  0.0072  0.0856 -0.1436
24189W        W30789  11.902   1.372   7.152  0.0272  0.0521 -0.0524
24190W        W30790  19.289   5.777  24.133 -0.0343 -0.3770 -0.0927
24191W        W30791   4.620   3.662  24.486 -0.2294 -0.2644 -0.0205
24192W        W30792   7.010   5.258  19.445 -0.1074 -0.1467  0.3351
24193W        W30793  19.049   0.702  24.187  0.1067  0.0242 -0.3167
24194W        W30794  30.142   0.819  23.238  0.0494  0.1888  0.0863
24195W        W30795  25.192   6.250   7.426 -0.5113 -0.0137 -0.0582
24196W        W30796   5.937   0.805   4.617 -0.0012  0.3892 -0.2381
24197W        W30797  24.912   4.034  10.001 -0.0510 -0.1077  0.0236
24198W        W30798  20.014   1.071  24.489 -0.1027 -0.1781 -0.0130
24199W        W30799  30.890   4.700  11.826  0.2199  0.3127  0.0069
24200W        W30800  29.968   0.418   1.155  0.1582  0.1040 -0.0542
24201W        W30801   0.163   6.912  21.794  0.0626 -0.1302 -0.3689
24202W        W30802  12.070   4.692   9.086  0.0537 -0.1514  0.3909
24203W        W30803  24.320   1.521  20.823 -0.3984  0.0112 -0.0841
24204W        W30804   9.160   4.943  17.200 -0.1334 -0.2502 -0.1469
24205W        W30805   1.228   6.861  25.548  0.1145  0.0191  0.3452
24206W        W30806   7.939   3.970   4.692  0.0490  0.0323 -0.1169
24207W        W30807   4.745   6.480   2.585  0.0761 -0.1122  0.2206
24208W        W30808   0.872   4.493   6.470  0.0060 -0.1991  0.1219
24209W        W30809  23.674   6.629  16.847  0.4292  0.1608  0.2046
24210W        W30810  21.467   4.008  10.116  0.0901  0.2688  0.0812
24211W        W30811  12.972   2.998  25.888 -0.1796 -0.0437 -0.2156
24212W        W30812  26.028   3.996   8.175 -0.1402  0.0723 -0.1673
24213W        W30813  18.740   6.634   8.849 -0.1474  0.2115  0.5803
24214W        W30814   7.204   2.472   4.411  0.0641  0.1920 -0.0612
24215W        W30815  11.655   3.628   8.456 -0.0452  0.3171 -0.1357
24216W        W30816  29.404   5.793   4.219 -0.2228  0.2670 -0.0249
24217W        W30817  30.499   4.508   8.908 -0.0954  0.0780 -0.0690
24218W        W30818   5.126   5.817   2.297  0.2219 -0.2054 -0.1395
24219W        W30819  25.453   1.804   4.259 -0.4237 -0.0721 -0.0900
24220W        W30820  21.986   0.391  24.552 -0.0221 -0.0984 -0.0587
24221W        W30821  29.994   0.407   7.041  0.1137 -0.0706  0.2213
24222W        W30822   6.828   5.536   2.846  0.1154 -0.0971  0.2548
24223W        W30823  22.237   3.930  19.883  0.0498  0.1921 -0.2344
24224W        W30824  17.604   0.066   9.651  0.0835 -0.1156 -0.2406
24225W        W30825  17.590   6.890  20.032  0.1324 -0.4494  0.1854
24226W        W30826  28.637   2.130   1.042 -0.1453 -0.0179 -0.2021
24227W        W30827  10.371   6.423  25.794 -0.2102 -0.1244 -0.2318
24228W        W30828   2.639   7.356  19.184 -0.0167 -0.1140  0.0470
24229W        W30829  28.896   5.981   8.055  0.0887  0.2876  0.2264
24230W        W30830  15.073   5.909   4.128 -0.3516 -0.0090 -0.0284
24231W        W30831   9.412   6.042   8.539  0.2380  0.1359  0.1612
24232W        W30832  18.958   4.130  23.730 -0.0881 -0.1799  0.1830
24233W        W30833  13.151   7.077   7.461 -0.2798 -0.2704 -0.1151
24234W        W30834   3.305   6.769   5.096 -0.1593 -0.2321 -0.0587
24235W        W30835  14.286   4.994   0.221  0.0787 -0.0059 -0.1106
24236W        W30836  28.113   4.945   1.943  0.1902 -0.1030  0.0781
24237W        W30837  20.009   4.416  21.909  0.1801 -0.1737  0.1549
24238W        W30838   3.801   3.064   6.195 -0.0109 -0.0205  0.2513
24239W        W30839   4.304   7.684   9.566  0.1550 -0.1110  0.2098
24240W        W30840   4.265   3.354  21.064  0.3600 -0.0700 -0.1376
24241W        W30841  23.257   2.913   6.664  0.0651 -0.1391  0.1945
24242W        W30842  17.733   4.853  24.131  0.0443 -0.1744  0.1117
24243W        W30843  27.986   7.204   5.703  0.3017  0.2326  0.4064
24244W        W30844  28.623   0.146   8.687 -0.1925  0.1222 -0.1920
24245W        W30845   9.628   6.376   8.124  0.1596  0.0257 -0.0086
24246W        W30846   2.550   0.462  11.466  0.2024 -0.1237  0.0233
24247W        W30847  19.410   6.411   4.579  0.3703  0.1845  0.1031
24248W        W30848   3.461   2.360  17.304  0.0663 -0.1499 -0.1883
24249W        W30849   8.936   2.514  22.682 -0.1180  0.0355 -0.1527
24250W        W30850  14.806   3.985  16.645 -0.5041 -0.1997  0.0383
24251W        W30851  12.269   3.690   5.598 -0.0538 -0.1819 -0.3304
24252W        W30852  18.933   6.240  14.530 -0.1319 -0.0434  0.3081
24253W        W30853   7.775   7.104   8.911  0.5046 -0.0108 -0.1038
24254W        W30854   0.554   4.256   6.743  0.1197 -0.3770 -0.1176
24255W        W30855  22.466   2.240   8.480  0.1515  0.1786  0.0910
24256W        W30856   5.482   5.661   9.387 -0.2012 -0.0574 -0.2710
24257W        W30857  21.124   7.501   4.797  0.0438 -0.2815 -0.1067
24258W        W30858  20.089   0.749   7.572 -0.1338 -0.0819 -0.3733
24259W        W30859  26.677   2.492  18.881  0.0533 -0.0576 -0.1127
24260W        W30860  15.560   7.623  18.398  0.1159 -0.2122 -0.0823
24261W        W30861  18.328   6.901  25.719  0.0601 -0.0229  0.0458
24262W        W30862  15.123   6.591   6.967  0.0631  0.0166  0.2461
24263W        W30863  19.581   7.575  17.474 -0.0163  0.0451  0.2821
24264W        W30864   8.134   6.099  15.286  0.1033  0.2395 -0.0041
24265W        W30865  27.452   4.298   3.678 -0.1897 -0.1913 -0.3200
24266W        W30866   7.288   4.156   1.941 -0.0727  0.0653  0.2853
24267W        W30867  19.189   1.713  21.232  0.0230  0.1865 -0.0001
24268W        W30868  28.402   2.155  20.075 -0.4061 -0.1074  0.0125
24269W        W30869  30.903   1.207   3.575 -0.0776  0.1715  0.0236
24270W        W30870   8.775   4.257  18.005  0.1200  0.1584  0.0453
24271W        W30871  20.665   6.444  22.059 -0.3873  0.0492 -0.3468
24272W        W30872  29.911   4.079   4.826 -0.0864  0.3238  0.2346
24273W        W30873   8.944   7.130  19.178  0.2128 -0.0743  0.0867
24274W        W30874   6.470   2.805   6.364  0.1349  0.1257 -0.2470
24275W        W30875  10.604   4.669   0.024 -0.0606  0.4855 -0.0743
24276W        W30876   2.004   7.230  24.886  0.2152 -0.0696 -0.2643
24277W        W30877  22.783   2.975   5.078 -0.3556  0.0936 -0.3172
24278W        W30878   2.884   1.398  22.566 -0.1780  0.1756 -0.1678
24279W        W30879  21.700   5.831  15.432  0.1453  0.2524 -0.1139
24280W        W30880  27.321   6.094  18.666 -0.1995 -0.0182  0.2101
24281W        W30881   2.891   3.566  17.644 -0.1582 -0.1737  0.1096
24282W        W30882  21.514   3.479   9.311 -0.0259 -0.0119  0.0412
24283W        W30883  22.932   4.156  15.390 -0.0675 -0.0876  0.2624
24284W        W30884  30.799   4.371   2.512  0.3129 -0.0420 -0.0642
24285W        W30885   9.411   4.611  18.091 -0.0175 -0.0774  0.3985
24286W        W30886  23.599   7.037   9.369 -0.2012  0.0451 -0.1725
24287W        W30887  21.956   0.147  23.151  0.0260  0.3718 -0.1420
24288W        W30888  10.077   1.062  14.663 -0.0623 -0.1652 -0.2639
24289W        W30889  11.080   4.666   2.841 -0.2560 -0.1279  0.0315
24290W        W30890   5.568   6.071   2.421 -0.1096  0.0966  0.1973
24291W        W30891  10.766   6.110  25.867 -0.1974 -0.1327  0.0134
24292W        W30892   9.803   5.092  23.230  0.1251  0.0462 -0.4232
24293W        W30893  20.146   7.647   4.338  0.3387 -0.1097 -0.1363
24294W        W30894  13.672   0.439  20.081  0.0789 -0.1052 -0.0008
24295W        W30895  22.059   7.534   4.261  0.2422 -0.0005 -0.0405
24296W        W30896  14.468   0.786   1.791 -0.0833  0.1345  0.2663
24297W        W30897   5.509   7.804  25.554  0.4104  0.2371  0.0207
24298W        W30898  30.065   0.331  21.696  0.0685 -0.0647  0.0066
24299W        W30899   6.640   6.824  22.306  0.0726 -0.0046  0.0042
24300W        W30900   3.541   3.074  23.163 -0.1249 -0.0765 -0.0224
24301W        W30901  24.719   3.249  19.369  0.3306 -0.0805  0.2378
24302W        W30902   5.618   5.604   2.727 -0.0021 -0.0097 -0.0582
24303W        W30903  23.940   2.568   1.096  0.1878  0.5059 -0.2207
24304W        W30904  12.283   0.095  25.848 -0.0708 -0.3018  0.0245
24305W        W30905   1.699   1.595  16.530 -0.2228 -0.2272 -0.0410
24306W        W30906  23.018   4.478   6.405  0.0654  0.1768  0.0047
24307W        W30907  12.564   1.600  16.722  0.3850 -0.2230 -0.2476
24308W        W30908  22.082   1.598  18.338 -0.0020  0.1556 -0.1668
24309W        W30909   9.703   6.098  23.106 -0.2517 -0.0430  0.1784
24310W        W30910   2.275   4.760   9.129  0.1814  0.0991 -0.1772
24311W        W30911  15.031   1.545   3.198 -0.0917  0.1315  0.0887
24312W        W30912   4.525   1.370  16.019 -0.0990  0.0253  0.0225
24313W        W30913  20.108   3.735  18.923  0.0010 -0.3944 -0.3216
24314W        W30914  28.030   3.613  24.877 -0.0115  0.0381  0.0459
24315W        W30915  20.131   1.935  25.776  0.0932  0.1233  0.1783
24316W        W30916  31.175   0.322  18.284  0.0478  0.2016  0.0389
24317W        W30917  24.060   6.984  15.662  0.1054  0.1500 -0.1375
24318W        W30918  17.468   5.736  16.252 -0.1475  0.1290 -0.0993
24319W        W30919  19.833   1.838  19.261 -0.1198 -0.1335 -0.0017
24320W        W30920   8.603   0.564   0.108  0.2250 -0.1437  0.0964
24321W        W30921   3.139   6.220  19.328  0.3844  0.0288 -0.3404
24322W        W30922  27.216   2.486  10.165  0.0902  0.1152 -0.0621
24323W        W30923  11.302   5.627  22.052 -0.1537 -0.2492 -0.0489
24324W        W30924   4.528   6.104   4.729 -0.2961 -0.0354  0.1303
24325W        W30925  31.099   5.251   3.203  0.1786 -0.0406  0.1506
24326W        W30926  27.122   4.922   8.296 -0.1465  0.0272 -0.0777
24327W        W30927  30.719   1.740  18.885 -0.1139  0.1866  0.1796
24328W        W30928  16.058   3.861   7.665 -0.0093 -0.3010 -0.0227
24329W        W30929  26.592   1.239   7.252  0.1996 -0.0567  0.1797
24330W        W30930  25.013   2.290  21.023  0.4309 -0.1527 -0.0279
24331W        W30931  25.355   2.232  17.887 -0.1384  0.2640  0.0866
24332W        W30932   1.927   5.115  20.486 -0.0678  0.0842 -0.1556
24333W        W30933   7.864   7.432  21.110 -0.1168  0.0108 -0.0215
24334W        W30934  11.400   2.510   6.321 -0.2645 -0.1115 -0.0367
24335W        W30935  30.923   2.561  17.812 -0.1904  0.2381  0.0433
24336W        W30936  19.179   0.618  16.064  0.0083  0.2844 -0.0881
24337W        W30937   2.818   2.461   4.557  0.1676 -0.2114 -0.0148
24338W        W30938   6.416   5.486   2.590 -0.1508  0.2131  0.0431
24339W        W30939   4.826   3.384  24.033 -0.1422 -0.2244  0.1238
24340W        W30940  15.118   1.639  21.210  0.0735 -0.1522  0.0057
24341W        W30941  19.465   0.218  16.574  0.0460 -0.0743 -0.0137
24342W        W30942  20.039   1.322   3.155  0.3717 -0.4057  0.1590
24343W        W30943   4.820   7.695   0.306  0.0656 -0.2371 -0.0466
24344W        W30944  14.131   7.102   3.437 -0.0161  0.1951  0.0409
24345W        W30945   6.173   5.452   7.140  0.1532 -0.0466  0.0120
24346W        W30946  18.073   2.884   6.272  0.0391 -0.1850 -0.1249
24347W        W30947  19.123   6.385   3.190  0.1437  0.0136 -0.0652
24348W        W30948   1.136   0.500   7.004 -0.0110 -0.0338 -0.2853
24349W        W30949   1.563   0.134   1.610  0.2230 -0.3840 -0.0574
24350W        W30950  21.655   4.116  24.717 -0.1397  0.1130  0.3081
24351W        W30951  20.969   7.496  25.811 -0.3364 -0.1400 -0.4525
24352W        W30952   9.233   7.525  17.915  0.4147 -0.2070 -0.1226
24353W        W30953  24.053   4.949  17.230  0.2204 -0.0362  0.0642
24354W        W30954  30.773   7.333  16.573  0.0727  0.0570 -0.0896
24355W        W30955   3.043   4.112   1.951  0.0529  0.0323  0.0864
24356W        W30956   2.554   5.092  25.995 -0.1526  0.1836  0.2397
24357W        W30957  12.527   6.358  21.979  0.0227 -0.2259  0.0807
24358W        W30958  17.555   2.742  22.123 -0.2637  0.0528  0.0057
24359W        W30959   0.007   7.269   1.561  0.0131 -0.0356  0.1150
24360W        W30960   6.407   0.461  10.591 -0.0452  0.1006  0.1181
24361W        W30961  27.843   6.339  24.015 -0.2677 -0.1278 -0.2021
24362W        W30962  15.461   4.674  21.581  0.0552 -0.0573  0.0534
24363W        W30963  23.010   3.488   1.685 -0.0298 -0.1026 -0.2183
24364W        W30964  12.881   7.550  22.864  0.1129  0.3245 -0.0617
24365W        W30965   2.159   2.050  24.202  0.0707 -0.0335 -0.2964
24366W        W30966  16.000   1.652   8.358  0.0507 -0.1920 -0.0724
24367W        W30967  11.144   2.710   9.899  0.0817 -0.2767 -0.2047
24368W        W30968   0.624   0.628  22.651 -0.1558 -0.3486 -0.1038
24369W        W30969   5.757   2.116  24.158 -0.2048 -0.0153 -0.0061
24370W        W30970  10.213   5.637   0.226  0.1922 -0.4372 -0.1078
24371W        W30971   5.360   7.279   7.583  0.0367  0.1146 -0.3530
24372W        W30972  12.503   5.585   9.033 -0.1736  0.2967 -0.1552
24373W        W30973  12.423   7.558  24.499  0.0195  0.0349 -0.3073
24374W        W30974   2.659   4.220   0.864 -0.1132 -0.3143 -0.0023
24375W        W30975  15.116   4.372  23.313  0.0919 -0.0629 -0.1300
24376W        W30976  21.308   7.531  15.825  0.0546  0.0132  0.2057
24377W        W30977  12.720   4.243  26.116  0.0896  0.3460 -0.0623
24378W        W30978   7.286   4.025   2.867 -0.1290  0.1341 -0.0814
24379W        W30979   0.272   3.681  23.192  0.3059 -0.0680 -0.1866
24380W        W30980   8.679   7.230  10.956  0.1528 -0.0242  0.2657
24381W        W30981  27.116   7.559  23.853 -0.0856 -0.2105 -0.2197
24382W        W30982   9.322   0.407  25.146 -0.0618 -0.0162  0.1586
24383W        W30983  19.282   2.519  23.276 -0.2571 -0.2069 -0.2608
24384W        W30984   1.786   2.606   4.801 -0.0969 -0.1241  0.1412
24385W        W30985   3.311   6.247  25.842  0.2028 -0.3314  0.0540
24386W        W30986   4.717   6.216  15.563  0.1504 -0.1138  0.2683
24387W        W30987  16.772   2.624  21.976 -0.1160  0.0206 -0.2368
24388W        W30988  13.947   3.665   2.817 -0.1409 -0.1875 -0.2042
24389W        W30989  24.964   6.630  17.462  0.1246  0.2130 -0.0720
24390W        W30990   5.884   6.090  15.581  0.1749  0.0116  0.1194
24391W        W30991  26.036   2.982  10.762  0.0750 -0.0343  0.0778
24392W        W30992   7.146   5.911   8.167  0.0346  0.1467  0.0541
24393W        W30993   1.231   1.933  22.757 -0.0306  0.0670  0.1558
24394W        W30994  11.498   6.566  19.654 -0.0425  0.0123 -0.1620
24395W        W30995  24.910   6.016   1.786  0.0014 -0.0656 -0.2499
24396W        W30996  25.104   0.235  25.056  0.0163 -0.1013  0.1145
24397W        W30997   6.666   0.288  26.120 -0.2917  0.1033  0.0032
24398W        W30998  20.531   7.712   7.842  0.1688 -0.0682  0.1497
24399W        W30999  29.586   0.240   3.324  0.0645  0.0896 -0.0110
24400W        W31000  16.777   3.542   2.394 -0.3200  0.3758  0.0679
24401W        W31001   0.255   0.281  20.896 -0.0952  0.0546  0.0730
24402W        W31002   9.954   0.839  10.550 -0.0080 -0.0589 -0.1393
24403W        W31003  14.406   4.001   7.546  0.0517  0.2933  0.1147
24404W        W31004  20.834   7.683  24.757  0.2695 -0.0893  0.0418
24405W        W31005  28.759   0.223  21.630 -0.2104 -0.2980  0.3971
24406W        W31006  10.740   6.441  24.884  0.1687 -0.0231  0.0790
24407W        W31007   2.045   3.644  11.841 -0.1268 -0.0220 -0.2541
24408W        W31008  18.349   5.080  19.817 -0.0588 -0.1771  0.0837
24409W        W31009   7.938   2.993   4.221 -0.0456  0.0151 -0.1063
24410W        W31010  23.645   4.094   8.086 -0.0256  0.2258  0.2354
24411W        W31011  16.484   1.073   7.747  0.1290  0.1072 -0.1124
24412W        W31012  21.511   6.052   8.472 -0.2178  0.0603 -0.0686
24413W        W31013  11.744   2.335   3.997 -0.4219  0.1394  0.0998
24414W        W31014  13.369   6.094  20.829  0.2394 -0.2978 -0.0318
24415W        W31015   0.592   2.542  24.867 -0.1461  0.2161  0.1103
24416W        W31016   8.211   4.888  16.374  0.1675 -0.0222 -0.0884
24417W        W31017   2.772   1.028   1.147 -0.0961 -0.2189  0.0423
24418W        W31018   1.879   1.033  11.158 -0.1504  0.0669 -0.1855
24419W        W31019  27.988   1.251   0.150 -0.0934 -0.2400 -0.3811
24420W        W31020  19.268   2.978  26.147  0.0985  0.3341  0.1403
24421W        W31021  26.270   3.055   4.281  0.2499 -0.3201  0.1860
24422W        W31022  11.405   6.322  23.617 -0.1201 -0.3116  0.0605
24423W        W31023  12.396   6.208   5.608  0.1824 -0.1437 -0.0883
24424W        W31024  17.134   0.951   7.255  0.0765 -0.0534 -0.0968
24425W        W31025   2.735   6.024  20.618  0.1969 -0.0188 -0.0401
24426W        W31026  30.641   0.833  19.987 -0.1878  0.4881  0.0548
24427W        W31027  28.508   7.569  10.825 -0.0235  0.1155  0.3136
24428W        W31028   3.773   4.644  20.001  0.0140  0.1588 -0.1423
24429W        W31029   7.776   7.246   3.161  0.1009  0.1663 -0.1058
24430W        W31030  28.566   2.934  20.036 -0.1369 -0.2663 -0.2987
24431W        W31031  10.194   4.635  18.467  0.0034 -0.0962 -0.1295
24432W        W31032  20.855   3.287  19.188  0.1040  0.4283 -0.1702
24433W        W31033   7.206   6.223   9.024  0.0765  0.0462 -0.2350
24434W        W31034   0.342   2.763   3.040  0.0837 -0.0410 -0.0688
24435W        W31035  20.234   5.303   6.754 -0.0143 -0.1269  0.2463
24436W        W31036  18.476   5.875  17.046  0.4257  0.1076  0.1754
24437W        W31037  30.927   4.414  25.909 -0.0049  0.0087  0.2645
24438W        W31038  20.329   0.325  15.185  0.2017  0.4226 -0.1765
24439W        W31039  14.288   4.219  17.863 -0.0419  0.1990 -0.3493
24440W        W31040   8.189   3.640   9.619  0.1723  0.2120 -0.1959
24441W        W31041   4.691   1.604   5.649 -0.3824 -0.1384 -0.1453
24442W        W31042  22.802   1.983   8.254 -0.0577  0.1039  0.0191
24443W        W31043  24.056   3.970  18.405 -0.4764 -0.0517 -0.0552
24444W        W31044   9.101   3.417  17.838  0.1807 -0.2427  0.4658
24445W        W31045   8.344   1.385   6.660  0.0246 -0.0048 -0.0422
24446W        W31046   2.563   7.085   5.167  0.1232  0.1057 -0.0871
24447W        W31047   8.526   1.022   5.131 -0.2413  0.0130 -0.0156
24448W        W31048  21.176   1.609   3.657 -0.2490  0.2044 -0.1321
24449W        W31049  16.753   0.035  20.467  0.1057 -0.1757 -0.3256
24450W        W31050  25.652   2.472  24.452 -0.1021 -0.2574 -0.0640
24451W        W31051  22.673   6.100   8.922 -0.3651 -0.0291 -0.1259
24452W        W31052  19.998   2.707   3.297 -0.1073  0.1584  0.2055
24453W        W31053   9.160   6.284  25.628 -0.1547 -0.1801 -0.2352
24454W        W31054  24.217   6.248  16.140  0.0511 -0.1086 -0.2307
24455W        W31055   1.105   5.553  25.810 -0.0186  0.0732  0.0120
24456W        W31056  10.468   0.008  11.026  0.0573 -0.1068 -0.3359
24457W        W31057  19.909   1.387  15.858  0.1456 -0.1525  0.1916
24458W        W31058  13.777   2.661   0.284 -0.0744  0.0364 -0.1846
24459W        W31059  26.954   6.428   8.412  0.0548 -0.1569 -0.0019
24460W        W31060   5.459   0.495   3.796 -0.1382  0.0933  0.2438
24461W        W31061  20.644   0.196  26.019 -0.0248 -0.2564 -0.2129
24462W        W31062  13.642   0.802   5.197  0.0089 -0.2675  0.1326
24463W        W31063   5.766   5.476  20.327  0.2419  0.0616 -0.0710
24464W        W31064   5.000   0.529   1.480 -0.1904 -0.0745  0.3033
24465W        W31065   7.293   4.587  10.479 -0.2221 -0.0435  0.2020
24466W        W31066   1.923   7.798   1.886 -0.2322  0.2156  0.3344
24467W        W31067  31.178   5.385   0.325 -0.0174  0.0023  0.0317
24468W        W31068  29.501   0.649  22.764  0.1466  0.0525 -0.1103
24469W        W31069  13.539   6.707  16.064  0.2500 -0.2365 -0.0442
24470W        W31070  31.032   0.541  21.702  0.0776 -0.2141 -0.0185
24471W        W31071  22.934   6.455   4.322 -0.2323 -0.0827  0.1525
24472W        W31072  12.675   3.984   2.264 -0.0557 -0.1476 -0.0669
24473W        W31073  10.669   3.150   9.568  0.2560  0.0872  0.2907
24474W        W31074  22.441   1.165   5.516 -0.0525  0.0071 -0.1784
24475W        W31075  27.258   7.016  24.073 -0.0223 -0.5668  0.0176
24476W        W31076   8.647   5.285  23.868  0.0482  0.2272  0.0416
24477W        W31077  28.142   2.560   2.358  0.1344 -0.0469  0.1759
24478W        W31078  22.546   0.730   4.320  0.2025  0.0694 -0.1077
24479W        W31079  28.301   0.306   1.945 -0.1896  0.0849 -0.0674
24480W        W31080   0.466   2.512   7.270  0.1255 -0.0202  0.4926
24481W        W31081  30.860   6.243   3.840 -0.3014 -0.0416 -0.0134
24482W        W31082  15.967   0.987  26.113  0.2185 -0.2775 -0.0156
24483W        W31083   3.465   4.699  20.476 -0.1139 -0.3410 -0.0159
24484W        W31084   1.146   4.530  17.274 -0.2098  0.1094  0.1366
24485W        W31085   1.215   7.701   8.729 -0.0424 -0.1366 -0.2152
24486W        W31086   2.640   7.480   7.795  0.0606  0.0608 -0.0921
24487W        W31087  22.795   6.445  15.741 -0.0460 -0.0350  0.1323
24488W        W31088  13.028   6.007   2.647 -0.0314  0.1000  0.0660
24489W        W31089   6.418   4.634   3.827  0.1969 -0.1513  0.1137
24490W        W31090   1.012   0.058  16.119  0.1802 -0.1542 -0.2148
24491W        W31091  23.922   1.311  20.465  0.1051 -0.0028  0.1740
24492W        W31092  24.356   1.055  18.608  0.1248  0.1448  0.0605
24493W        W31093  23.091   7.015   8.953 -0.2407 -0.2972  0.0924
24494W        W31094  29.120   6.203  22.418  0.2206 -0.2050 -0.2013
24495W        W31095  14.769   5.365  20.614  0.0743  0.0654  0.1659
24496W        W31096  20.911   2.120   5.569 -0.0752  0.3269 -0.1476
24497W        W31097   0.364   5.756   0.715  0.0753  0.1408 -0.0997
24498W        W31098  22.723   0.419  25.686 -0.1182  0.0227 -0.1268
24499W        W31099  23.700   5.389   4.043 -0.1737  0.1046  0.0366
24500W        W31100   1.844   5.510   5.572  0.0203 -0.0378  0.0487
24501W        W31101  15.500   2.910  18.079  0.0495 -0.0184 -0.4262
24502W        W31102  15.286   2.442  24.841  0.0688 -0.1130 -0.0613
24503W        W31103  26.180   0.721  22.677  0.1038 -0.1411  0.1688
24504W        W31104  15.502   6.885   1.718 -0.1382  0.0550  0.3346
24505W        W31105  10.699   6.532  25.462 -0.1640 -0.0535  0.1815
24506W        W31106  17.927   7.258  16.866  0.1611 -0.1291 -0.2582
24507W        W31107  12.899   0.885  23.811  0.0318  0.1829 -0.0500
24508W        W31108  25.576   1.076   8.633  0.1972  0.1373 -0.0157
24509W        W31109  17.978   7.561  21.580 -0.1553  0.1125 -0.1623
24510W        W31110  20.654   0.334  10.173  0.1778  0.0821  0.0379
24511W        W31111  13.382   6.631   8.825 -0.1284  0.2146 -0.0816
24512W        W31112  12.842   0.011  18.085 -0.1431  0.0577  0.0388
24513W        W31113  16.124   0.880  16.947  0.0450 -0.0255  0.1207
24514W        W31114   7.320   3.609  24.053  0.2266  0.3270  0.3236
24515W        W31115  24.754   5.394   2.317 -0.3129  0.0164 -0.1776
24516W        W31116  14.629   1.185  19.037 -0.0190  0.1852  0.3749
24517W        W31117  28.339   0.327  24.324 -0.0660 -0.1569 -0.0122
24518W        W31118  25.027   4.819   6.978 -0.1741 -0.1010 -0.1975
24519W        W31119  22.454   4.825  23.354 -0.0915 -0.0507  0.0171
24520W        W31120  12.381   6.728   6.950 -0.1152 -0.0693 -0.2870
24521W        W31121  11.889   7.298   7.251 -0.1476 -0.0393 -0.0570
24522W        W31122  17.783   0.749   0.539 -0.0816 -0.0626  0.1338
24523W        W31123   4.606   0.011  20.622 -0.1013 -0.3755  0.0544
24524W        W31124   1.390   2.743   2.721 -0.0363  0.3102  0.0163
24525W        W31125  20.130   5.475   9.554 -0.1455  0.1030 -0.0992
24526W        W31126  24.919   2.722  23.158  0.0502  0.0031  0.1193
24527W        W31127  16.142   5.867   9.456 -0.1501 -0.0799  0.3373
24528W        W31128   3.917   5.901   9.759 -0.0218  0.3789  0.0523
24529W        W31129  20.447   4.094   3.793  0.2517  0.2055 -0.3829
24530W        W31130  16.291   4.467  20.375  0.0478  0.0213  0.2545
24531W        W31131  19.348   1.335   2.740 -0.0866 -0.2161 -0.0913
24532W        W31132  26.813   4.273   3.015 -0.1010  0.1854  0.1841
24533W        W31133   4.248   6.744  20.700 -0.2507 -0.0417 -0.3332
24534W        W31134   9.357   4.465   4.657  0.2205 -0.3504 -0.0250
24535W        W31135  23.721   5.460   5.069 -0.2209 -0.1548 -0.1169
24536W        W31136  18.556   0.265   2.917  0.1762 -0.0950 -0.0291
24537W        W31137   0.257   3.110  18.628 -0.1608 -0.2844 -0.3310
24538W        W31138  12.795   7.064   9.963  0.1658  0.0374 -0.3313
24539W        W31139  25.998   2.125  20.762 -0.0896  0.0466  0.1026
24540W        W31140   0.249   0.632  18.463 -0.1222  0.0522 -0.1826
24541W        W31141  17.577   6.636  25.194  0.3058  0.0083  0.0352
24542W        W31142   9.670   0.174  22.822  0.1179  0.1311 -0.1907
24543W        W31143  10.157   0.559  19.773  0.3573  0.0520 -0.1667
24544W        W31144  18.988   3.406   4.237 -0.2446  0.0360  0.0790
24545W        W31145  13.627   3.854  23.359  0.0298 -0.0127  0.1245
24546W        W31146  30.135   4.640  17.174 -0.1228  0.0598  0.0102
24547W        W31147  19.831   6.826  21.847  0.2166 -0.2095  0.1836
24548W        W31148   3.259   7.520  21.258  0.1819  0.2395 -0.1175
24549W        W31149  21.847   3.626  16.844  0.0899 -0.2273  0.1719
24550W        W31150  24.787   7.666   2.487  0.2498 -0.0832  0.3143
24551W        W31151   0.918   1.570  24.027 -0.1789 -0.1836  0.0023
24552W        W31152  16.717   6.695  15.941 -0.1467  0.0554 -0.2222
24553W        W31153  28.027   4.953  25.984  0.0904  0.1391  0.2552
24554W        W31154   9.440   0.497  15.383  0.2573  0.2069 -0.2226
24555W        W31155  12.682   6.747   8.263  0.1615 -0.4747 -0.1972
24556W        W31156  31.207   5.665   2.511  0.3128 -0.0437 -0.1094
24557W        W31157  14.271   3.052  21.345  0.1607  0.0938 -0.3210
24558W        W31158  25.018   1.576   1.307  0.1270  0.1114  0.1551
24559W        W31159  20.599   2.503  15.611  0.1048  0.2507 -0.1241
24560W        W31160   4.191   6.482  21.879  0.0377 -0.0185  0.0875
24561W        W31161  30.039   7.072   5.429 -0.1887 -0.2038  0.1172
24562W        W31162  11.527   1.796  10.856  0.2441  0.0902  0.1855
24563W        W31163  12.104   5.945   4.311  0.2194  0.0450  0.1657
24564W        W31164  12.718   4.256  18.874  0.0542 -0.0734  0.1503
24565W        W31165   8.360   0.390  20.233  0.0361 -0.3488 -0.3798
24566W        W31166   6.573   6.477  24.796  0.0349 -0.2326  0.1045
24567W        W31167   2.088   4.753  17.545 -0.2871  0.0186 -0.0269
24568W        W31168   3.448   3.857   7.527 -0.3902 -0.1863 -0.2502
24569W        W31169  21.871   0.156   4.483  0.0088  0.0208 -0.1551
24570W        W31170  30.172   2.271   3.930  0.1312 -0.0108 -0.1928
24571W        W31171   8.580   6.113  24.475 -0.2233  0.1172  0.0567
24572W        W31172  23.288   2.009   6.926 -0.4177  0.2068 -0.1263
24573W        W31173  21.261   3.632   3.374 -0.3435  0.3150  0.3696
24574W        W31174  16.270   0.211   3.111  0.2607  0.1836 -0.0628
24575W        W31175   5.909   7.686   3.967 -0.0684  0.1388  0.0528
24576W        W31176   7.913   5.924  23.366 -0.0937 -0.0140 -0.0371
24577W        W31177  23.769   3.195  23.705 -0.0418  0.0139 -0.2343
24578W        W31178  30.001   7.241   3.006 -0.1551  0.0754 -0.2032
24579W        W31179   0.056   6.302   7.802  0.0036 -0.0363 -0.0083
24580W        W31180  30.331   5.332   1.719  0.2468  0.1996 -0.0461
24581W        W31181   9.310   2.011   1.006  0.1762 -0.0107 -0.0329
24582W        W31182  11.131   6.435  25.228 -0.1106 -0.2551  0.2774
24583W        W31183   9.090   0.499   0.310 -0.0803 -0.1867 -0.0449
24584W        W31184  21.497   0.687   2.430  0.0231 -0.0951  0.2477
24585W        W31185  23.588   2.408  20.888 -0.2131 -0.1016 -0.1405
24586W        W31186  28.373   4.041  23.898  0.1800  0.0836  0.0443
24587W        W31187   0.025   5.800   7.154  0.1450 -0.2966  0.0570
24588W        W31188   0.992   4.199  24.078 -0.1001 -0.0637  0.1115
24589W        W31189  28.948   7.507  19.105  0.0328  0.0599 -0.2445
24590W        W31190   8.899   3.821   4.226  0.2036  0.0456  0.1305
24591W        W31191  26.071   7.152  19.482  0.1059 -0.3361  0.1027
24592W        W31192   6.684   3.715  19.482  0.2392  0.4913  0.0738
24593W        W31193   0.985   1.826   3.583  0.0291 -0.0021  0.1323
24594W        W31194   5.530   3.434   6.295  0.1857 -0.2887 -0.0161
24595W        W31195  13.559   3.532  17.108  0.0952  0.1132  0.0576
24596W        W31196   9.610   5.968  20.795  0.3183  0.1615 -0.0749
24597W        W31197   8.129   0.718   6.031 -0.0933 -0.3707 -0.2833
24598W        W31198  28.537   7.168  23.762 -0.1322 -0.0379  0.0480
24599W        W31199   8.477   0.451  10.195  0.0109  0.0271  0.0381
24600W        W31200  25.928   5.990  22.134 -0.0134 -0.0017 -0.2490
24601W        W31201   0.020   4.220   8.260  0.2112  0.1582 -0.1250
24602W        W31202   6.871   6.697  19.467  0.1331 -0.0518 -0.2135
24603W        W31203  20.749   6.506  18.193 -0.1426  0.0661 -0.0145
24604W        W31204  29.487   0.030   9.348 -0.2600  0.2148  0.2727
24605W        W31205  22.860   7.051   7.624 -0.2124  0.4656  0.1229
24606W        W31206  25.141   2.285  23.183  0.4910  0.1577 -0.0761
24607W        W31207  29.601   3.019   7.532 -0.2119 -0.0507 -0.2539
24608W        W31208  29.077   2.740   9.418 -0.0571  0.1618 -0.0908
24609W        W31209  23.450   5.339   2.740  0.1184  0.1634 -0.1059
24610W        W31210  28.191   5.602   3.344 -0.0396  0.1083  0.1176
24611W        W31211  20.656   2.332   0.300 -0.3212 -0.1418 -0.2627
24612W        W31212  17.864   0.912  22.729  0.0204 -0.0249 -0.2476
24613W        W31213  27.258   3.302   3.955 -0.0075  0.0941 -0.0275
24614W        W31214   0.764   5.185  22.831  0.3203 -0.2384 -0.0643
24615W        W31215  24.907   5.919   5.985  0.1383 -0.0877 -0.3772
24616W        W31216  22.297   0.244  19.147  0.0344  0.0229 -0.2194
24617W        W31217  14.209   6.563  20.220  0.4018 -0.0609  0.1667
24618W        W31218  17.682   5.810   3.186  0.0125 -0.2887 -0.1222
24619W        W31219  18.658   7.274   0.192 -0.0291  0.0972  0.0097
24620W        W31220  15.077   4.170  19.535  0.0392  0.1715 -0.2553
24621W        W31221  10.204   4.146  16.694  0.0649  0.2485 -0.1623
24622W        W31222   6.768   0.431  17.977 -0.0344  0.0856 -0.1894
24623W        W31223   7.193   0.286   8.448  0.1186 -0.4485  0.1685
24624W        W31224  23.603   7.262   2.851 -0.0526 -0.0789  0.0351
24625W        W31225   0.160   3.563   1.443  0.0553  0.2558 -0.4658
24626W        W31226  31.230   3.339   0.526  0.0809  0.2674 -0.0559
24627W        W31227  10.585   1.088   1.344 -0.2411 -0.1545 -0.3443
24628W        W31228  24.536   6.636  10.907 -0.0868  0.0156  0.1067
24629W        W31229   1.138   7.033  15.684  0.1859  0.0090  0.7052
24630W        W31230  29.070   6.763   8.902  0.4788 -0.2960  0.1303
24631W        W31231   4.054   6.980  24.781 -0.0033 -0.1593  0.2139
24632W        W31232   0.718   0.286  23.026  0.4448 -0.4706 -0.0125
24633W        W31233   5.627   1.812  25.940  0.0264  0.1969 -0.0422
24634W        W31234  16.786   1.839  20.846  0.0535  0.1979 -0.2307
24635W        W31235  24.692   2.206  24.919  0.1494  0.3181  0.1224
24636W        W31236   3.290   6.604  18.486  0.0194 -0.0652  0.1404
24637W        W31237  14.112   7.046  25.691  0.3300  0.1703  0.2563
24638W        W31238  13.680   5.021   0.242 -0.0129  0.1729  0.3453
24639W        W31239  18.770   1.813  18.016  0.0036  0.1339  0.1435
24640W        W31240   7.006   2.478  25.902  0.2061  0.1964  0.0867
24641W        W31241  23.440   6.003  21.223 -0.0465  0.1544 -0.2324
24642W        W31242   3.932   6.823   4.164 -0.2264  0.0543  0.1958
24643W        W31243  14.398   4.003  25.075  0.3393  0.1142  0.0368
24644W        W31244   7.352   7.746   5.602 -0.1335  0.2140 -0.1193
24645W        W31245  30.033   0.359   2.776  0.1028  0.4756  0.0793
24646W        W31246   2.112   5.170  22.193 -0.0115 -0.1984  0.4718
24647W        W31247   6.508   5.116   7.311 -0.0184 -0.0315  0.1562
24648W        W31248  24.370   1.979   1.609 -0.0168 -0.3972 -0.0487
24649W        W31249   4.521   3.797  26.166  0.0131 -0.2568  0.1781
24650W        W31250  13.877   5.520   8.606  0.0543 -0.1690  0.0571
24651W        W31251  10.445   1.680   6.314  0.1892  0.1817 -0.3841
24652W        W31252  23.105   2.981   3.711 -0.1684  0.0692  0.0328
24653W        W31253   3.644   5.363  11.752  0.0664  0.0475 -0.0473
24654W        W31254  27.936   6.738   2.806  0.0396  0.2476  0.1217
24655W        W31255   2.190   2.049  19.977 -0.1243 -0.1265 -0.1786
24656W        W31256  21.163   0.750  16.034 -0.1320  0.1463  0.2731
24657W        W31257   2.496   1.238  16.163 -0.2099 -0.0770  0.0551
24658W        W31258  16.277   4.521   4.531 -0.0345 -0.1389 -0.3008
24659W        W31259   6.993   4.069   3.571 -0.1654 -0.0943 -0.0844
24660W        W31260   4.907   1.252  22.645 -0.0108  0.1367 -0.0029
24661W        W31261   3.350   2.038  10.015  0.1167  0.0183  0.1396
24662W        W31262  18.042   6.059   9.828  0.0181  0.1761 -0.1546
24663W        W31263  11.314   4.651  16.274 -0.1441  0.1697 -0.1552
24664W        W31264  25.909   7.029  19.972  0.0550  0.1209 -0.0921
24665W        W31265   9.876   1.642   5.839 -0.1157  0.1114  0.0216
24666W        W31266   3.121   4.866   0.467 -0.1924  0.1572 -0.1844
24667W        W31267   0.719   7.000  23.218 -0.5131  0.1281 -0.1319
24668W        W31268  29.905   1.023   5.728 -0.0943 -0.2013  0.3209
24669W        W31269   6.552   3.051   7.618 -0.3528  0.4259 -0.0232
24670W        W31270  13.778   6.135  18.157 -0.0546 -0.1197 -0.1539
24671W        W31271   4.978   2.041  16.471 -0.1465  0.0269  0.0387
24672W        W31272  16.792   5.739  21.348  0.1157 -0.2185  0.3180
24673W        W31273  15.975   4.774  22.789  0.1510  0.3301  0.4796
24674W        W31274  20.927   0.838   7.903  0.0255 -0.1302 -0.0352
24675W        W31275  20.819   7.021  17.565 -0.0393 -0.4139  0.2816
24676W        W31276  20.773   4.593   6.272  0.1082 -0.1216 -0.0576
24677W        W31277  16.793   0.556  20.295 -0.0146 -0.3288  0.0553
24678W        W31278  16.133   3.578   4.978  0.0979  0.2661 -0.0692
24679W        W31279  28.057   0.143   9.418  0.2005 -0.1023  0.0865
24680W        W31280   4.120   3.097   6.563 -0.0316  0.2674 -0.0295
24681W        W31281  17.637   7.184  21.829 -0.1380  0.1016 -0.3970
24682W        W31282  14.184   6.972  16.714  0.0176  0.2156  0.1132
24683W        W31283  29.885   7.078  11.018  0.0302  0.0599  0.1460
24684W        W31284  20.570   6.455  15.263 -0.2143  0.2613  0.1146
24685W        W31285   3.704   6.286   7.696 -0.0182 -0.0932  0.0239
24686W        W31286   2.914   0.714  10.115  0.0237 -0.1510  0.4000
24687W        W31287  19.928   2.004   3.923  0.0296 -0.1917 -0.0496
24688W        W31288   3.812   0.308  24.664  0.0386  0.2454 -0.1852
24689W        W31289  16.376   4.362   0.127 -0.1572  0.0951  0.1251
24690W        W31290  12.875   0.464   1.112  0.0593 -0.2782 -0.1688
24691W        W31291  12.974   1.444   3.131  0.0714 -0.0234  0.1604
24692W        W31292  29.931   7.117  16.777  0.1783 -0.1963  0.0057
24693W        W31293  13.663   1.234   1.898 -0.1914 -0.1436  0.0891
24694W        W31294   1.940   1.557  24.272  0.3461 -0.0199 -0.0046
24695W        W31295  31.094   5.427   5.021 -0.0551 -0.3683  0.1038
24696W        W31296  20.579   5.058  20.388  0.0172  0.2840 -0.0701
24697W        W31297  18.950   5.127  17.333 -0.2880 -0.1408 -0.1930
24698W        W31298  26.620   3.001  18.354 -0.0783 -0.2056 -0.2118
24699W        W31299  24.641   1.046  15.960 -0.1569 -0.1335  0.1170
24700W        W31300  25.734   7.789   2.775  0.2043 -0.0205 -0.0082
24701W        W31301  11.270   7.457  26.156  0.2930  0.0623 -0.1603
24702W        W31302   7.829   6.596  16.214  0.0071 -0.2049 -0.1248
24703W        W31303  24.321   7.754  15.152 -0.0470  0.0721  0.0799
24704W        W31304  30.078   7.465   3.950 -0.1413 -0.0709  0.2928
24705W        W31305  24.611   7.277   1.665 -0.1056  0.0716 -0.0872
24706W        W31306  21.250   4.423   3.996 -0.1912 -0.1844 -0.0739
24707W        W31307  10.435   4.602  23.913  0.0287  0.0153  0.0723
24708W        W31308   7.064   4.186  16.632  0.1380  0.3140 -0.0111
24709W        W31309  16.692   7.669   1.771 -0.0674 -0.1901 -0.0428
24710W        W31310  28.953   0.279   8.193 -0.0633  0.0823 -0.0098
24711W        W31311  26.145   7.099  10.030 -0.5737  0.0260 -0.0352
24712W        W31312  31.299   1.458   5.053  0.1241 -0.1026  0.0468
24713W        W31313   0.785   6.244   1.619  0.1559  0.4034 -0.1277
24714W        W31314  14.327   2.098   9.944  0.1337  0.0786  0.2824
24715W        W31315  17.563   0.031   0.053  0.0222  0.1549  0.3437
24716W        W31316   4.514   3.392   1.932 -0.0957 -0.1564 -0.3188
24717W        W31317  12.894   6.924   7.022  0.0460 -0.0199 -0.1427
24718W        W31318   4.484   4.385  19.561 -0.0329 -0.0847  0.3964
24719W        W31319   7.073   7.647  25.422 -0.0535 -0.1211  0.0129
24720W        W31320   8.507   6.639   5.023  0.0286 -0.1643  0.0982
24721W        W31321  15.880   6.861  24.947  0.1039 -0.2734  0.0550
24722W        W31322  30.831   6.279  11.460 -0.0777 -0.1014  0.1601
24723W        W31323   2.393   2.255   5.340 -0.0096 -0.1079  0.1864
24724W        W31324   3.588   0.891   5.312 -0.1095 -0.1121 -0.3345
24725W        W31325   5.679   2.918   6.154  0.0330 -0.1751  0.2961
24726W        W31326  27.858   2.430  22.490 -0.1489 -0.2035  0.0520
24727W        W31327   8.476   0.997  18.678  0.4188 -0.1882 -0.0292
24728W        W31328  19.097   2.216  22.463 -0.3203 -0.1204  0.2081
24729W        W31329   9.603   6.350  24.883  0.0772 -0.1244 -0.3621
24730W        W31330  20.932   2.556   4.275 -0.0618  0.0998  0.0021
24731W        W31331  28.411   0.692   0.316 -0.0221  0.4702  0.2356
24732W        W31332  24.796   2.093  15.657 -0.2066  0.2788  0.0574
24733W        W31333  14.662   2.758   7.763 -0.0560 -0.2093 -0.0575
24734W        W31334  21.058   4.086   9.836 -0.2039 -0.0686  0.0127
24735W        W31335  18.966   2.335  16.035  0.2998 -0.0748  0.0272
24736W        W31336  14.854   4.843  23.396 -0.0878 -0.1986 -0.0263
24737W        W31337   5.888   7.034   5.626  0.3953  0.2018 -0.3203
24738W        W31338  30.474   2.405   2.731  0.0182 -0.1649 -0.4277
24739W        W31339   0.075   1.154  16.080 -0.1811  0.0555  0.0118
24740W        W31340  22.753   3.414  16.564  0.0352 -0.1289  0.1359
24741W        W31341  11.881   2.782  20.191 -0.0232  0.2366  0.2044
24742W        W31342   3.870   3.698  18.530  0.2376 -0.0601  0.0750
24743W        W31343   3.980   0.466   7.058 -0.1479  0.2512  0.1307
24744W        W31344   4.755   6.581  19.670  0.1995  0.0731  0.1608
24745W        W31345  20.206   7.340  16.060  0.0632  0.1526 -0.0006
24746W        W31346  23.345   1.404  20.990 -0.0700 -0.0431  0.1735
24747W        W31347  26.702   5.018   2.457  0.0140  0.0012 -0.1573
24748W        W31348  21.676   6.048  25.355  0.1372  0.0407 -0.1843
24749W        W31349   7.290   7.120  16.872  0.2061 -0.0970  0.1657
24750W        W31350   7.116   7.435  17.793 -0.1803  0.0437  0.0189
24751W        W31351  15.470   7.436  25.684  0.1992 -0.2136  0.0924
24752W        W31352   0.242   1.285  21.386  0.2324  0.0052 -0.0734
24753W        W31353   6.773   5.319   4.213  0.2046 -0.0879  0.0932
24754W        W31354  15.925   6.039  16.131 -0.0846  0.1056  0.2009
24755W        W31355  28.473   0.156   7.994  0.0786 -0.2271 -0.0367
24756W        W31356  18.233   6.851  14.247 -0.0134 -0.1984 -0.0768
24757W        W31357  20.142   2.526   2.647 -0.2226  0.3011  0.0820
24758W        W31358   7.789   4.331  23.855 -0.1614  0.1457  0.0461
24759W        W31359  13.583   1.391  16.351  0.2240  0.3102  0.2788
24760W        W31360   0.120   7.087   5.247 -0.0214 -0.1653  0.0737
24761W        W31361  15.415   2.072  21.576 -0.0760 -0.0880 -0.2883
24762W        W31362   4.926   6.936  20.062 -0.0762  0.1698 -0.1149
24763W        W31363   5.228   6.519   4.074  0.0359  0.2399 -0.2509
24764W        W31364  11.210   0.618  15.908 -0.1218 -0.1765  0.2004
24765W        W31365   6.556   0.670  18.504  0.1855  0.2473 -0.0822
24766W        W31366   4.743   2.423  21.143 -0.2814 -0.1806 -0.1731
24767W        W31367   6.923   6.838  17.678 -0.3277  0.1032  0.0020
24768W        W31368  22.965   6.931  19.664 -0.1484 -0.1702  0.2308
24769W        W31369  15.744   5.084   9.811 -0.0781  0.1081  0.2510
24770W        W31370  12.096   5.348   5.120 -0.2503  0.1256  0.0614
24771W        W31371  18.864   1.856   5.628 -0.2728  0.0657  0.1148
24772W        W31372   4.146   7.418  22.386  0.1727 -0.1466  0.2299
24773W        W31373  16.498   4.998  15.427 -0.2825  0.3115 -0.1011
24774W        W31374  25.557   0.387   4.436 -0.0261 -0.0273 -0.0596
24775W        W31375   1.720   5.706   0.971 -0.1237  0.0182  0.0096
24776W        W31376   8.662   6.468   0.627  0.1727  0.0881 -0.1318
24777W        W31377   0.264   0.398   1.689  0.1118  0.1230  0.1042
24778W        W31378  11.906   5.694   9.293 -0.0416  0.3575 -0.2642
24779W        W31379  26.945   6.337  21.112  0.0198 -0.0568  0.0586
24780W        W31380  22.906   5.626   8.096 -0.1126 -0.3114 -0.2492
24781W        W31381  19.668   1.418   5.335  0.2831  0.1337  0.1715
24782W        W31382   0.312   0.798  25.294  0.0863 -0.3649 -0.1287
24783W        W31383  22.586   5.064  25.121  0.1051  0.0017 -0.1928
24784W        W31384  30.652   1.876  25.823 -0.2726  0.0820 -0.0525
24785W        W31385  31.087   4.815  23.638 -0.1000  0.3615  0.2405
24786W        W31386  14.271   7.753  15.608  0.1602 -0.3235 -0.5334
24787W        W31387  28.603   1.596   8.687 -0.0319 -0.1454  0.2896
24788W        W31388  29.046   0.583   1.546 -0.0070  0.0910 -0.1796
24789W        W31389  12.648   0.638  16.737  0.0390  0.2685 -0.0538
24790W        W31390   1.646   7.131   3.685 -0.0619 -0.2838  0.0383
24791W        W31391  28.237   6.105   8.755  0.0282  0.1549 -0.0890
24792W        W31392   5.460   6.170  16.976 -0.0286  0.1422 -0.0655
24793W        W31393  27.736   4.214  10.825  0.3280  0.0967  0.1210
24794W        W31394  21.242   1.945   2.203  0.0549  0.1893  0.0054
24795W        W31395   5.177   0.105   2.920  0.2850  0.1087 -0.2859
24796W        W31396   2.949   2.163   1.925 -0.1023  0.2332  0.0257
24797W        W31397  26.765   0.778   9.093 -0.0730  0.4066 -0.1472
24798W        W31398   5.652   5.587   5.223  0.0375 -0.0384 -0.0812
24799W        W31399  29.094   5.430  16.477 -0.2282 -0.0711  0.0152
24800W        W31400  25.883   1.973  24.635 -0.0944 -0.3472 -0.1444
24801W        W31401   2.802   5.158   8.790  0.1484  0.0363 -0.1098
24802W        W31402  27.290   2.972  24.789 -0.0820 -0.1237 -0.3900
24803W        W31403  25.472   0.870  25.490  0.0493 -0.0591  0.0993
24804W        W31404  30.352   2.377   0.378 -0.1576 -0.2074  0.2806
24805W        W31405  13.032   4.480  17.934  0.0652 -0.2529  0.0766
24806W        W31406   3.115   5.344  20.122 -0.0156 -0.0051 -0.1070
24807W        W31407  29.608   6.240  21.088  0.0680 -0.3276 -0.1295
24808W        W31408  27.277   0.740  20.050 -0.0802 -0.0890 -0.3414
24809W        W31409  19.924   0.082  18.028  0.1840 -0.1213  0.3612
24810W        W31410   4.122   5.613  11.710 -0.2383 -0.1683  0.0343
24811W        W31411   4.547   1.404  10.244  0.0410 -0.1685  0.2658
24812W        W31412  18.688   6.652  16.756  0.0341 -0.0965  0.3621
24813W        W31413  26.885   3.410  21.734 -0.2319  0.2813 -0.1503
24814W        W31414   4.616   2.793  19.326 -0.0303  0.1306 -0.0267
24815W        W31415  11.087   2.790  22.182 -0.0919  0.0135  0.2339
24816W        W31416  28.881   2.633   9.879  0.0821 -0.1034 -0.1047
24817W        W31417  24.538   7.401  21.712  0.0324  0.5224  0.3296
24818W        W31418  28.789   1.467   2.981 -0.0779 -0.0527  0.0736
24819W        W31419  16.178   2.863  25.622  0.0448 -0.1088  0.3583
24820W        W31420   2.525   2.788   9.410 -0.0918 -0.2181 -0.1723
24821W        W31421  11.011   1.059   6.982  0.2188  0.0823  0.2768
24822W        W31422   0.007   5.191  18.823 -0.0584 -0.1002 -0.1470
24823W        W31423   0.691   7.560  11.192  0.0421  0.0804  0.2243
24824W        W31424  25.132   2.906  19.279  0.1344 -0.1041 -0.1413
24825W        W31425   9.770   7.123  21.697  0.2252 -0.2569 -0.0534
24826W        W31426  28.983   5.382   7.157  0.2355  0.0353 -0.2516
24827W        W31427  26.387   3.568   4.203  0.0037  0.3062  0.1021
24828W        W31428  22.360   1.814  20.146  0.0484  0.1182  0.0928
24829W        W31429   9.845   1.162  10.063  0.0098 -0.0015 -0.0659
24830W        W31430  28.741   7.740  10.052  0.0410  0.0211 -0.3502
24831W        W31431   4.176   3.171   4.019 -0.3522  0.0114  0.3379
24832W        W31432  27.235   5.368   1.456  0.0487 -0.1163 -0.5443
24833W        W31433   3.118   3.960   7.916  0.2195 -0.3539 -0.1867
24834W        W31434  15.135   2.521  16.705 -0.2552 -0.1432 -0.0171
24835W        W31435   1.660   6.148   0.059  0.3528 -0.1233 -0.0430
24836W        W31436   6.548   7.227   4.212 -0.0528 -0.1031  0.2352
24837W        W31437  11.858   2.354  17.311 -0.2840 -0.3517 -0.1804
24838W        W31438  21.275   3.566  22.130 -0.0551  0.0600 -0.0603
24839W        W31439  24.892   5.666  18.249 -0.0205 -0.1403  0.2427
24840W        W31440  23.295   2.386  16.000  0.0434  0.0807 -0.2636
24841W        W31441  22.176   2.594  25.285 -0.1303  0.0587 -0.0928
24842W        W31442  17.923   2.052  25.490  0.1256 -0.2649 -0.1136
24843W        W31443  26.396   2.594   3.579  0.2229 -0.1988  0.3547
24844W        W31444  14.474   4.403  16.017 -0.1515  0.3805 -0.0072
24845W        W31445  13.855   1.223  18.970 -0.0091 -0.0790 -0.1330
24846W        W31446  16.813   0.349  14.727 -0.0148 -0.1220 -0.0165
24847W        W31447   0.045   7.743   3.855 -0.1522  0.2850  0.0019
24848W        W31448   0.865   4.252   8.985  0.0012  0.0445  0.3454
24849W        W31449  16.376   0.892   8.191  0.1305 -0.0214  0.3543
24850W        W31450  11.910   2.230   0.200  0.2354  0.0493 -0.1285
24851W        W31451  12.824   3.359   2.174 -0.3007  0.0321 -0.1208
24852W        W31452   5.562   1.051  15.110 -0.0652 -0.0680  0.0270
24853W        W31453   0.873   3.465   1.939 -0.0653 -0.0294  0.2433
24854W        W31454   4.983   0.756   0.367 -0.1332 -0.1371 -0.0924
24855W        W31455  12.967   0.061  18.721  0.1049  0.0489 -0.0727
24856W        W31456   3.674   5.880  25.696  0.0799  0.0884 -0.0053
24857W        W31457   7.552   5.018  19.959 -0.0045  0.2067  0.0446
24858W        W31458   6.552   4.757   5.512 -0.0014 -0.4063  0.0155
24859W        W31459   8.175   5.912   8.918 -0.2742 -0.0380  0.0766
24860W        W31460   3.194   0.726  23.360 -0.0985  0.0744 -0.0463
24861W        W31461  22.920   3.436   2.785 -0.0886  0.0953  0.1627
24862W        W31462  14.997   7.615   5.545  0.1082  0.0662  0.2435
24863W        W31463   7.798   1.097   2.200  0.0271 -0.0014  0.0652
24864W        W31464  19.695   6.825   2.266  0.1386  0.2383  0.0070
24865W        W31465  25.018   6.137  23.530  0.0896  0.1264  0.3967
24866W        W31466  26.392   2.302  10.609 -0.0378  0.0361 -0.3637
24867W        W31467  23.593   4.239   0.134 -0.1990 -0.0396  0.0719
24868W        W31468   7.444   5.861   7.455  0.1397  0.3774 -0.0824
24869W        W31469  29.579   0.904  17.174 -0.1189 -0.0952  0.1037
24870W        W31470   4.433   3.048  10.617  0.0553  0.0626 -0.1504
24871W        W31471   1.229   6.998   0.778  0.0617 -0.0151 -0.0276
24872W        W31472   8.442   3.369   7.195  0.0863 -0.1305 -0.1872
24873W        W31473   9.025   4.915   9.814  0.0742 -0.0928 -0.0873
24874W        W31474  16.439   1.365  21.003 -0.1715 -0.1610 -0.0092
24875W        W31475   4.883   3.443  16.044 -0.0578 -0.1864 -0.3388
24876W        W31476  13.246   6.366  15.768 -0.0742  0.0040 -0.0160
24877W        W31477   6.953   6.259   8.610 -0.1865 -0.1266 -0.1358
24878W        W31478  22.040   4.345  21.142 -0.0081  0.1213  0.3119
24879W        W31479   5.252   5.161  21.867  0.1895  0.2937  0.0679
24880W        W31480   7.764   3.174  17.156  0.2530  0.0810 -0.2012
24881W        W31481  14.212   4.440   0.837  0.0539 -0.0900  0.0262
24882W        W31482   7.108   4.751   4.026 -0.1371  0.0322  0.1118
24883W        W31483  17.180   7.699   4.568  0.1526  0.0047  0.0412
24884W        W31484   0.501   4.564   3.586  0.0908 -0.4158  0.0041
24885W        W31485  11.902   0.596  24.207 -0.1802 -0.1324 -0.2658
24886W        W31486  10.882   1.999   1.750 -0.2487 -0.5489  0.1212
24887W        W31487   6.426   5.917  20.515 -0.0892 -0.0497  0.1398
24888W        W31488  27.348   1.012  20.994 -0.2340 -0.0252  0.0882
24889W        W31489   2.944   1.051  11.282  0.4085 -0.4098  0.0630
24890W        W31490  27.690   5.480  19.678  0.0137  0.5297  0.4203
24891W        W31491  24.542   2.474   3.101  0.4963 -0.0983  0.0540
24892W        W31492   8.912   6.431  15.383 -0.2353 -0.3652  0.1454
24893W        W31493  28.008   7.354   8.125  0.0641  0.1586  0.1819
24894W        W31494   0.362   5.110   4.409 -0.1352 -0.0042  0.0569
24895W        W31495  20.180   7.116   9.045 -0.1419 -0.1721 -0.1983
24896W        W31496  22.843   3.102  23.881  0.0569  0.0002  0.0734
24897W        W31497   8.577   2.279   9.612 -0.3362 -0.0460 -0.1634
24898W        W31498  12.400   7.324  15.376 -0.1098  0.0482  0.0358
24899W        W31499  18.627   7.540   9.078  0.0751 -0.4227  0.0073
24900W        W31500  23.230   3.159   1.433 -0.0718  0.0455 -0.0377
24901W        W31501  19.167   7.191   6.200  0.3198 -0.1016 -0.2079
24902W        W31502  21.591   4.352   8.969  0.1621 -0.1906 -0.0717
24903W        W31503  15.724   5.446   6.730 -0.1343  0.1097 -0.1104
24904W        W31504  15.956   5.758  26.028 -0.2029  0.1337 -0.3006
24905W        W31505  20.288   6.094   9.619 -0.0407  0.2153  0.0795
24906W        W31506   0.982   2.036   7.971  0.1050  0.1939 -0.0835
24907W        W31507  29.861   7.180  21.150 -0.1744 -0.2138 -0.1536
24908W        W31508   6.497   7.820  16.740 -0.0436  0.0325  0.0082
24909W        W31509  15.799   5.511   5.530  0.2715 -0.1746 -0.0764
24910W        W31510  20.743   4.274   9.492  0.1116  0.0686 -0.0407
24911W        W31511  16.649   4.744   5.064  0.1640 -0.1390  0.0647
24912W        W31512  14.811   7.325  25.950  0.1390 -0.1522  0.2569
24913W        W31513  27.397   1.424  15.701 -0.1008  0.0743  0.0824
24914W        W31514  13.757   0.926   0.837 -0.0533  0.1653  0.4094
24915W        W31515  16.839   5.837   8.559 -0.0885 -0.2032  0.0920
24916W        W31516  19.486   4.331   5.951 -0.2748  0.1976 -0.0135
24917W        W31517  29.605   1.184   0.589 -0.0978 -0.0140  0.0398
24918W        W31518   8.084   5.083   0.058  0.1111  0.1862  0.0557
24919W        W31519  17.725   0.356  18.265 -0.0029 -0.1308  0.5211
24920W        W31520  23.921   2.677  21.679 -0.2777  0.4086  0.1142
24921W        W31521  20.229   1.769  18.068  0.1325  0.2569 -0.0054
24922W        W31522   1.778   2.324  17.805 -0.4741  0.0710  0.1258
24923W        W31523  22.360   2.764   1.158 -0.4094  0.0601  0.0112
24924W        W31524  11.787   6.357  23.183  0.3172 -0.4942 -0.2006
24925W        W31525  21.331   6.273  18.274  0.1169  0.0991 -0.1877
24926W        W31526  10.853   0.489   9.685 -0.0560 -0.0612  0.0837
24927W        W31527  26.635   7.819  20.268  0.4673 -0.0133  0.0350
24928W        W31528   8.520   2.654  17.717 -0.2558  0.0930 -0.0046
24929W        W31529  24.333   0.328  22.334  0.0815 -0.2412  0.0504
24930W        W31530   0.730   2.996   6.661 -0.2979 -0.1558  0.2019
24931W        W31531  30.644   4.243  16.037  0.4272 -0.1874 -0.0005
24932W        W31532   1.668   1.630  26.145  0.0534 -0.2517  0.2013
24933W        W31533  26.098   5.683  16.050  0.1635  0.0603  0.1618
24934W        W31534   3.974   4.861   1.943  0.2666 -0.2863  0.0397
24935W        W31535  25.201   7.112   4.414  0.0142 -0.0522  0.1422
24936W        W31536  12.661   0.147  21.953  0.0422 -0.2433  0.0482
24937W        W31537  29.058   6.725  25.090  0.0657 -0.2465  0.2664
24938W        W31538  18.766   0.644   6.243  0.3822  0.1138 -0.0131
24939W        W31539  11.357   1.252  24.178 -0.0110  0.2472 -0.0313
24940W        W31540  30.616   7.608  24.674  0.3141 -0.1057 -0.0599
24941W        W31541  29.979   6.343  18.748  0.2130  0.1092 -0.1534
24942W        W31542  13.766   3.507  25.395 -0.1044  0.1010  0.1324
24943W        W31543  26.860   1.232   6.575 -0.3216  0.0335  0.0540
24944W        W31544  20.867   5.505  18.140 -0.2731 -0.1291 -0.1322
24945W        W31545  29.003   4.903  22.447  0.0474  0.1823  0.2836
24946W        W31546   9.458   3.606   5.327 -0.1430 -0.1574  0.0148
24947W        W31547  16.138   2.540  19.459 -0.4428 -0.0525 -0.1748
24948W        W31548  31.115   1.550  23.384 -0.0993  0.1053  0.0855
24949W        W31549  14.148   3.947  15.863 -0.3218 -0.1801  0.0947
24950W        W31550  19.208   3.138  21.264  0.0611  0.1181  0.0440
24951W        W31551  10.424   4.493   9.547 -0.1594 -0.0503 -0.2443
24952W        W31552  19.248   3.597  19.092 -0.1132  0.1395 -0.0001
24953W        W31553   1.858   2.090   0.245  0.1042 -0.0785  0.0277
24954W        W31554  23.395   4.103   4.473  0.0282  0.1787  0.0275
24955W        W31555   1.109   1.552   6.815  0.1867 -0.0399  0.4026
24956W        W31556   1.878   5.631  21.949 -0.3940  0.2190  0.0074
24957W        W31557   4.810   4.314   1.943 -0.0043  0.0428 -0.0737
24958W        W31558  26.808   3.701   8.077 -0.3699 -0.1172 -0.1149
24959W        W31559  19.387   6.535  19.316 -0.1392 -0.0241  0.2094
24960W        W31560   6.198   3.213   7.315 -0.0185 -0.1567  0.0049
24961W        W31561  24.580   7.088  24.714  0.0774 -0.1322 -0.1324
24962W        W31562  24.084   6.079   1.626  0.0359 -0.1852 -0.0971
24963W        W31563  18.992   6.867  21.647 -0.3089  0.3070  0.3793
24964W        W31564   4.206   6.950  22.159  0.1349  0.1071  0.0622
24965W        W31565  20.115   6.227  19.114  0.0663 -0.2967 -0.0054
24966W        W31566   0.862   6.584  25.801 -0.2183  0.0419  0.1943
24967W        W31567  22.504   6.297   7.453 -0.2387 -0.1454  0.1446
24968W        W31568  20.552   5.195  15.885  0.0290  0.2883 -0.1323
24969W        W31569   2.218   3.053  15.362  0.0524  0.0737 -0.2593
24970W        W31570  27.652   3.248   9.740 -0.3411 -0.0337  0.1799
24971W        W31571  27.036   7.656  17.402 -0.2601 -0.0613 -0.0305
24972W        W31572   8.689   3.836   1.911 -0.2538 -0.1267  0.0746
24973W        W31573  16.177   3.838  17.071 -0.3020  0.2618 -0.2186
24974W        W31574  16.068   3.036  21.546  0.1353 -0.0540 -0.0745
24975W        W31575  23.365   5.175   5.240 -0.1793  0.1047 -0.0879
24976W        W31576  23.632   0.801  17.565  0.0749 -0.0989  0.0441
24977W        W31577  21.588   7.171   1.961 -0.0256 -0.2359 -0.0590
24978W        W31578   9.547   4.330   9.587 -0.1170  0.4683  0.3490
24979W        W31579  30.702   3.545   3.529 -0.3443  0.0503  0.2036
24980W        W31580   5.799   2.933   1.518 -0.0104  0.0402 -0.0306
24981W        W31581   7.332   4.674   7.049  0.1623 -0.2403 -0.0497
24982W        W31582  28.322   2.546   8.943  0.0684  0.0019 -0.0358
24983W        W31583   3.202   0.521  18.476  0.0383 -0.0074  0.0699
24984W        W31584  26.029   2.688  25.427 -0.0827  0.0810  0.0316
24985W        W31585   4.541   4.464   2.898  0.1217 -0.0656  0.1509
24986W        W31586   1.416   0.842  19.621 -0.2772  0.2464  0.3758
24987W        W31587  10.970   5.768   6.693  0.2208 -0.1471  0.1757
24988W        W31588  11.292   6.110  24.060  0.0123  0.2986  0.0909
24989W        W31589  19.597   7.463  20.380 -0.2117 -0.2295 -0.1172
24990W        W31590  31.306   5.820  20.014 -0.0208 -0.0885  0.0110
24991W        W31591  29.811   4.704   5.991 -0.0401  0.2072 -0.1140
24992W        W31592  14.796   1.033   7.677  0.3920 -0.1196 -0.0275
24993W        W31593   4.427   2.660  10.940 -0.0340  0.1017 -0.1017
24994W        W31594   8.365   0.585  25.811  0.1282  0.0866 -0.1942
24995W        W31595   7.428   4.191  22.799  0.0175  0.0376  0.1729
24996W        W31596   4.127   3.737  11.118  0.0305 -0.1825 -0.0686
24997W        W31597  15.981   6.314  16.912 -0.1235  0.1894  0.1603
24998W        W31598  21.579   1.004   4.312  0.2167  0.3247 -0.1518
24999W        W31599   1.819   3.115   1.958  0.0232  0.0231  0.1714
25000W        W31600  21.267   1.262  15.913  0.0949 -0.0511 -0.0867
25001W        W31601   1.378   0.531   8.903 -0.3981 -0.1109  0.0176
25002W        W31602  26.813   1.833   3.300 -0.2648 -0.2207 -0.2847
25003W        W31603  24.776   6.571  15.354 -0.0769  0.3709 -0.0087
25004W        W31604  29.653   1.556   5.518 -0.2810 -0.3220  0.1126
25005W        W31605  27.887   2.666   7.574 -0.1748  0.1722 -0.1781
25006W        W31606   9.582   1.429  21.651 -0.0588  0.3710  0.0983
25007W        W31607  15.495   7.351  20.886 -0.0578 -0.0454  0.0541
25008W        W31608  27.106   5.662  18.850  0.2581 -0.0605 -0.0613
25009W        W31609  23.794   6.935   8.403  0.0357 -0.1228 -0.1345
25010W        W31610   8.711   0.039  16.311  0.0837 -0.1729  0.0999
25011W        W31611   2.616   7.477   4.747 -0.1362 -0.2168 -0.0233
25012W        W31612  27.274   2.236   5.716  0.0326  0.1200  0.0073
25013W        W31613  23.930   5.117  24.284  0.3839  0.0597 -0.2628
25014W        W31614   7.977   1.476   6.367 -0.2009 -0.0435 -0.0864
25015W        W31615  28.517   6.605  16.576  0.0970  0.1427 -0.3542
25016W        W31616  14.066   3.076  22.704 -0.1193  0.1161  0.1173
25017W        W31617  18.777   2.591  10.039 -0.4103 -0.0351  0.3586
25018W        W31618  26.794   3.652   0.920 -0.4220 -0.1055  0.1279
25019W        W31619   0.168   4.314  18.477  0.0511 -0.0504 -0.1306
25020W        W31620  26.224   5.105   1.121  0.1033 -0.1205 -0.2244
25021W        W31621   7.400   2.914   4.274  0.0491  0.2698  0.0854
25022W        W31622  24.682   1.652   0.312  0.0665  0.1420 -0.0485
25023W        W31623   8.605   6.424   1.597  0.0694  0.0617  0.0704
25024W        W31624   7.815   4.691   0.349  0.2493  0.3105 -0.0530
25025W        W31625  11.819   1.895   5.206  0.0017  0.0188 -0.0500
25026W        W31626   7.684   6.491  17.935  0.1349 -0.3522  0.5531
25027W        W31627   9.776   6.431   8.663 -0.0501  0.3451  0.1936
25028W        W31628  29.102   0.166   4.181 -0.0380  0.0540 -0.0517
25029W        W31629   5.041   2.608   9.277  0.1517 -0.0518 -0.0824
25030W        W31630  25.902   1.599  17.469  0.0614  0.0041 -0.0353
25031W        W31631  17.522   3.400   7.885 -0.2513 -0.2091  0.2219
25032W        W31632  24.039   0.845  20.234  0.1651 -0.1469  0.1069
25033W        W31633  27.097   6.369  10.682 -0.5619 -0.1071  0.2643
25034W        W31634  24.615   3.301  20.798  0.2206  0.2628 -0.2327
25035W        W31635   5.640   1.225   0.496  0.3251  0.0023 -0.0697
25036W        W31636  14.103   0.300   0.932 -0.2942  0.0056  0.2080
25037W        W31637   9.753   6.578  22.557  0.0358 -0.0140 -0.1307
25038W        W31638  25.738   5.360   2.466 -0.0162  0.1414  0.2334
25039W        W31639  26.406   2.863  20.008 -0.1358 -0.0925  0.1991
25040W        W31640   9.493   2.555  15.392 -0.0334  0.1413  0.0274
25041W        W31641  30.790   2.537  16.880 -0.1546  0.1915  0.1563
25042W        W31642   8.674   2.969   6.750 -0.0262 -0.0312  0.3525
25043W        W31643  26.976   2.914  19.980 -0.1332 -0.2062 -0.2213
25044W        W31644   4.245   1.903  21.262 -0.1815 -0.0774 -0.4028
25045W        W31645  30.264   0.001  18.707 -0.3409 -0.0828  0.3231
25046W        W31646  18.404   1.258   3.524  0.0773  0.0896 -0.0304
25047W        W31647  14.391   0.453  17.416  0.4458  0.2222  0.0694
25048W        W31648  20.734   1.953   8.402  0.2511  0.1293 -0.2297
25049W        W31649  28.775   7.233  16.440  0.2995 -0.3930 -0.1302
25050W        W31650  25.065   1.168  23.456  0.1212  0.0392  0.2872
25051W        W31651   1.299   3.668  16.154 -0.2720  0.0568  0.0498
25052W        W31652  11.729   0.664   4.259  0.1588  0.2374 -0.0185
25053W        W31653   1.999   3.344   1.071  0.3175  0.0852 -0.3168
25054W        W31654   0.537   3.024  21.901  0.2256  0.0314 -0.1204
25055W        W31655  21.283   0.150   4.953 -0.1209 -0.0166 -0.2701
25056W        W31656   9.066   0.950  16.109 -0.0446 -0.2508 -0.0431
25057W        W31657   1.134   0.936   9.754  0.1445  0.2496  0.0434
25058W        W31658  13.398   6.299  10.183  0.1845  0.3389 -0.2924
25059W        W31659   9.646   0.042  24.384 -0.1973  0.2912  0.0650
25060W        W31660  14.390   2.197  20.712  0.2193  0.1173 -0.0646
25061W        W31661  18.767   5.538   4.870  0.0209  0.0502  0.0415
25062W        W31662  16.119   0.015  17.645 -0.0271 -0.1730 -0.2778
25063W        W31663  15.868   6.144  20.597 -0.2002 -0.1302  0.2609
25064W        W31664   2.065   7.051   5.280  0.1019  0.0855 -0.2236
25065W        W31665  29.835   5.791   0.994  0.0040  0.0113 -0.0934
25066W        W31666  15.006   4.180   6.687 -0.2024 -0.1304 -0.3544
25067W        W31667  30.045   0.103   4.236 -0.3118  0.0345  0.4410
25068W        W31668  22.322   1.173  16.201 -0.1785  0.2145  0.1369
25069W        W31669  18.006   5.839   3.548 -0.0293 -0.4117  0.2890
25070W        W31670  20.118   0.693  17.539 -0.0482  0.0872 -0.3456
25071W        W31671  27.378   2.593  22.330  0.0294 -0.0962  0.0024
25072W        W31672  19.435   5.384   0.499 -0.2228 -0.0879  0.4349
25073W        W31673  14.614   2.604   6.027 -0.3214  0.2753  0.2558
25074W        W31674   2.958   4.636   6.938 -0.0991  0.1608  0.2902
25075W        W31675  23.889   4.598  24.340 -0.1163  0.2508 -0.1008
25076W        W31676   3.406   7.326  19.393 -0.1660 -0.0153  0.0501
25077W        W31677  26.663   7.819   5.221  0.0604  0.1222 -0.0377
25078W        W31678  20.717   6.963   0.218 -0.0148 -0.2524 -0.3597
25079W        W31679   8.126   1.872   8.738  0.1985 -0.0611  0.0099
25080W        W31680   8.647   2.400  18.724 -0.1841 -0.2672  0.0349
25081W        W31681   5.695   4.921  19.167 -0.2613  0.0060 -0.0436
25082W        W31682   3.275   1.284   2.488  0.3617 -0.0569 -0.0841
25083W        W31683  18.839   3.442   2.986  0.1477 -0.1456 -0.1717
25084W        W31684   6.166   0.253  19.143 -0.0286  0.0147  0.1052
25085W        W31685  11.229   6.935   1.305 -0.0022 -0.0686  0.1227
25086W        W31686  16.230   7.603  16.844  0.0946 -0.2605  0.3209
25087W        W31687  11.418   0.497  21.369  0.1426  0.1508  0.0482
25088W        W31688   3.377   5.953  23.038 -0.0655  0.0989  0.0507
25089W        W31689   4.851   0.692   3.143 -0.1292  0.0394  0.2580
25090W        W31690  27.636   0.142   3.120 -0.1301  0.0385 -0.0063
25091W        W31691  22.814   1.665  20.994  0.4736 -0.2900 -0.0606
25092W        W31692   4.225   0.194   9.934 -0.1128  0.2643 -0.2173
25093W        W31693  28.219   1.772  22.868  0.1595 -0.0258 -0.1340
25094W        W31694  14.682   6.992  18.247 -0.1158 -0.0271  0.2044
25095W        W31695  11.659   7.604   0.208 -0.4166 -0.0160 -0.0817
25096W        W31696  26.784   0.984   7.703 -0.0536 -0.1686  0.1356
25097W        W31697  24.473   4.386  24.988 -0.0164 -0.2935  0.2069
25098W        W31698   6.918   6.283  25.607 -0.0279  0.2691 -0.0626
25099W        W31699   5.977   2.019  10.110 -0.1868 -0.1453 -0.0414
25100W        W31700  11.234   5.152  16.610  0.0078  0.0505  0.1474
25101W        W31701   8.405   2.145   9.072 -0.1235 -0.1530 -0.0559
25102W        W31702  15.440   1.544  19.813  0.0845  0.3662  0.1483
25103W        W31703   0.937   5.164   5.548  0.0283  0.4050  0.1671
25104W        W31704  24.941   4.720   2.553  0.2541  0.0358  0.0951
25105W        W31705   3.442   6.007   8.833  0.2669  0.1911  0.3598
25106W        W31706  27.239   6.753  19.223  0.1093 -0.2338  0.3246
25107W        W31707  23.749   3.874   7.131  0.1878 -0.0859  0.0230
25108W        W31708  24.742   6.270  22.781  0.0905 -0.0249 -0.1649
25109W        W31709  21.680   6.084   6.426  0.2539  0.5078  0.0846
25110W        W31710  28.183   2.997   1.462 -0.0376  0.2413 -0.0996
25111W        W31711  15.867   1.694  20.840  0.3494 -0.1180 -0.0430
25112W        W31712   2.730   7.338  10.021 -0.2951 -0.0463 -0.2636
25113W        W31713  17.531   7.402  21.297  0.0103  0.2626 -0.0915
25114W        W31714  11.368   2.358  19.702 -0.3155 -0.0056 -0.1871
25115W        W31715   7.685   0.985  20.564 -0.1154  0.2545  0.3614
25116W        W31716   0.829   5.186   0.735 -0.2890 -0.1515 -0.0483
25117W        W31717   9.774   1.252  25.299 -0.0876  0.0604  0.1112
25118W        W31718   4.458   0.063  20.160 -0.2513 -0.0091 -0.1553
25119W        W31719  15.654   5.838   2.811 -0.3540 -0.0910 -0.1470
25120W        W31720   6.405   5.011  24.688  0.2308 -0.0581  0.0018
25121W        W31721  23.087   2.972  22.376  0.0698  0.2139  0.3868
25122W        W31722  25.565   2.022  23.831 -0.0022  0.3769  0.1749
25123W        W31723   9.142   5.654  23.206 -0.0958  0.0351 -0.0619
25124W        W31724  31.279   4.513   4.824 -0.3253 -0.1244 -0.1032
25125W        W31725   3.119   4.309  18.246  0.0375  0.4089  0.1916
25126W        W31726   2.663   1.677  23.610  0.0153 -0.1286 -0.0588
25127W        W31727  23.240   0.176   4.875  0.0784  0.3063 -0.1297
25128W        W31728  11.985   5.235  20.078  0.3534 -0.0402 -0.0891
25129W        W31729  18.801   2.059   2.994  0.1968 -0.2688  0.0577
25130W        W31730   6.262   6.516  22.087 -0.0474  0.2031  0.2371
25131W        W31731  18.783   1.987   7.361 -0.2660  0.2331  0.0966
25132W        W31732  23.139   6.220  17.481 -0.3365  0.2775 -0.2034
25133W        W31733  30.377   5.990   3.724  0.1904  0.1242  0.1231
25134W        W31734   5.652   1.265   6.663 -0.0675  0.0055 -0.0515
25135W        W31735  24.935   2.263   9.737 -0.1621 -0.1142 -0.0549
25136W        W31736  18.934   0.570  21.102  0.0091 -0.0330  0.2326
25137W        W31737  22.166   6.772  23.086  0.2664 -0.0769  0.1007
25138W        W31738  20.776   0.658  23.712  0.3894  0.0056 -0.1612
25139W        W31739  23.649   3.781  17.787 -0.0397  0.3925 -0.0448
25140W        W31740  19.670   0.290   8.303 -0.1020  0.2584  0.0551
25141W        W31741   2.341   3.607  23.214 -0.3414  0.0863  0.0515
25142W        W31742  21.021   0.291   4.112 -0.1835 -0.0552  0.1887
25143W        W31743  28.862   1.318  10.596 -0.0009  0.1455 -0.0671
25144W        W31744  13.727   4.427   9.231  0.0666 -0.0543  0.1629
25145W        W31745  12.499   4.526  19.266  0.0642  0.2643 -0.0604
25146W        W31746  10.070   3.990  10.317 -0.3227 -0.0951  0.0569
25147W        W31747   4.206   6.150   5.627 -0.0374  0.0422 -0.1725
25148W        W31748   4.814   3.904  18.941 -0.3105  0.0317 -0.0070
25149W        W31749   7.550   5.389   0.178 -0.1707  0.2269  0.1985
25150W        W31750   4.722   0.735   8.152  0.1313 -0.0643 -0.1120
25151W        W31751   8.978   1.547  25.165  0.0663 -0.2956  0.0220
25152W        W31752  19.880   7.813   7.169  0.0035  0.0641  0.0559
25153W        W31753  22.729   0.418   7.252 -0.0143 -0.0196 -0.2601
25154W        W31754  12.181   6.707  17.794 -0.2423  0.0159 -0.1023
25155W        W31755  11.595   2.216   3.478  0.0908  0.0239  0.2546
25156W        W31756  18.502   4.689   6.872  0.2739 -0.0419 -0.2332
25157W        W31757  18.342   6.139  17.948 -0.1893 -0.1605  0.2229
25158W        W31758  14.075   1.146   1.556 -0.1862 -0.5902 -0.0000
25159W        W31759  29.298   6.609   0.636 -0.1267  0.0079  0.0013
25160W        W31760   4.307   3.384  17.659 -0.0741 -0.1413 -0.1235
25161W        W31761   7.916   5.967   4.617 -0.0921  0.0972 -0.3754
25162W        W31762  11.364   1.637  20.724 -0.3535  0.1366 -0.0718
25163W        W31763  17.269   1.091  17.691 -0.0505  0.0016  0.1795
25164W        W31764  29.889   5.164   1.065 -0.0965 -0.1002  0.2586
25165W        W31765   2.375   0.418  23.711  0.0964  0.0158 -0.2562
25166W        W31766   6.400   4.798   7.705  0.0627 -0.0390  0.2191
25167W        W31767   7.703   0.913  21.041  0.1425 -0.0252 -0.1556
25168W        W31768  23.397   5.613  10.530  0.1033 -0.0975  0.0903
25169W        W31769   9.565   2.364   8.531  0.0521  0.4746  0.2147
25170W        W31770  12.895   5.672  19.976  0.3471 -0.1936  0.1673
25171W        W31771  23.373   4.705  18.037 -0.0609 -0.0530 -0.0763
25172W        W31772  21.157   7.662  22.592  0.1914 -0.0035 -0.0494
25173W        W31773   6.041   3.981   1.323 -0.1743 -0.2483  0.1764
25174W        W31774  14.139   3.569   6.795 -0.0584 -0.1135 -0.1976
25175W        W31775   0.583   1.924  19.451  0.0525 -0.0469  0.1278
25176W        W31776  23.163   0.617   0.319  0.1276  0.0877 -0.1048
25177W        W31777  30.407   0.473   3.628  0.0562 -0.2334 -0.0772
25178W        W31778   3.779   0.894   4.090  0.1428 -0.1545  0.3372
25179W        W31779   3.455   6.634   5.663  0.2428 -0.1392  0.2765
25180W        W31780  28.059   4.772  20.220 -0.2251  0.1588 -0.1947
25181W        W31781  15.838   5.622   4.357 -0.1944  0.0550 -0.1740
25182W        W31782  22.664   6.777  23.066 -0.0763  0.0182  0.0180
25183W        W31783  11.041   0.058   6.807  0.0013  0.3043 -0.1213
25184W        W31784  21.527   0.165  22.501  0.2261 -0.1631  0.1128
25185W        W31785   0.357   0.994   5.053 -0.1411 -0.0202  0.1239
25186W        W31786  29.281   5.461   3.887  0.0370  0.0583  0.0416
25187W        W31787   4.352   5.813   6.919 -0.0057 -0.1899 -0.1287
25188W        W31788  20.422   2.123   4.111 -0.0588 -0.2607 -0.0419
25189W        W31789  26.663   4.687   9.275 -0.0194 -0.2680 -0.3190
25190W        W31790   1.964   5.559   4.178  0.0561 -0.1075 -0.2361
25191W        W31791  16.749   5.676   3.850  0.1920 -0.0200 -0.1080
25192W        W31792  30.583   3.194  17.323  0.3093  0.0007  0.1506
25193W        W31793   8.052   2.585  22.105  0.1347  0.1781 -0.2409
25194W        W31794   0.436   7.731   4.230 -0.0910  0.1245  0.2849
25195W        W31795  18.228   2.278  15.508 -0.1384 -0.2354 -0.0821
25196W        W31796  23.525   5.564   8.438  0.0050  0.1608  0.2626
25197W        W31797  13.999   4.287   5.461 -0.0775  0.1079 -0.1760
25198W        W31798  16.836   1.183  25.667  0.0902 -0.2672  0.0400
25199W        W31799  18.649   4.396   6.034 -0.4453 -0.1037 -0.1472
25200W        W31800  10.008   5.871   3.365  0.0152  0.0922  0.0208
25201W        W31801  28.393   4.761   3.263  0.3499 -0.3506  0.2026
25202W        W31802  24.249   2.272  15.596 -0.0863  0.0012 -0.3461
25203W        W31803  28.095   1.015  25.805  0.1304  0.1406  0.2906
25204W        W31804  10.075   5.090  18.216 -0.1562 -0.1679 -0.0613
25205W        W31805   6.719   2.503   1.546 -0.1789 -0.0538 -0.1354
25206W        W31806  10.215   4.538  15.142  0.1177 -0.0231 -0.3508
25207W        W31807  10.274   1.179  17.579 -0.0169 -0.0061  0.1163
25208W        W31808  19.856   3.319  16.685  0.0937  0.3799 -0.0201
25209W        W31809  27.970   3.782   8.631  0.1578 -0.0861 -0.0381
25210W        W31810   7.068   7.720   9.234  0.2394  0.0677 -0.2480
25211W        W31811  13.430   7.158  22.237  0.0622  0.0955  0.1404
25212W        W31812  29.545   5.182  25.160  0.0338 -0.2236 -0.0074
25213W        W31813  30.018   6.603   0.331  0.1320 -0.1946 -0.2607
25214W        W31814  17.406   0.316  20.159  0.2082  0.1460 -0.1751
25215W        W31815  18.780   6.929  22.095  0.2096  0.1356 -0.0369
25216W        W31816  11.501   7.257  20.362 -0.2153 -0.1958  0.1246
25217W        W31817  31.106   4.648   6.456 -0.3926 -0.1212  0.0080
25218W        W31818   5.508   7.635  19.054 -0.1277 -0.1594  0.0305
25219W        W31819  30.376   6.514   2.252  0.1697  0.0899  0.1026
25220W        W31820  17.309   6.740   0.808  0.2342  0.0257  0.2277
25221W        W31821   9.818   6.654   6.043  0.1065 -0.0006  0.0547
25222W        W31822  19.014   0.735  16.559 -0.1034 -0.1624  0.3751
25223W        W31823   9.907   1.334  21.249 -0.3125  0.1392  0.0016
25224W        W31824   5.592   7.557  25.132 -0.4253 -0.6308  0.3832
25225W        W31825   1.485   6.485  23.785  0.1812 -0.0134  0.1200
25226W        W31826   8.328   4.829   9.784  0.0864 -0.1984  0.3229
25227W        W31827  26.491   3.980   5.250  0.1166  0.2767 -0.1292
25228W        W31828  18.613   2.302   3.474 -0.0480  0.2777  0.0596
25229W        W31829  10.327   1.946  17.264  0.1431 -0.2806 -0.3246
25230W        W31830   0.963   1.016  15.897  0.2805  0.2721  0.2048
25231W        W31831  12.407   7.684   6.809 -0.0736  0.1252  0.1000
25232W        W31832   2.167   6.666  19.321 -0.1216 -0.3298 -0.1735
25233W        W31833   0.649   5.994  16.876 -0.1093  0.2117  0.0687
25234W        W31834   7.895   7.599  24.859 -0.2111 -0.0178  0.2110
25235W        W31835  11.380   0.362   3.871 -0.1382 -0.1000 -0.0080
25236W        W31836   6.946   4.632   6.699 -0.0580 -0.1709 -0.0839
25237W        W31837  22.541   2.531   3.657 -0.1122 -0.0502 -0.2644
25238W        W31838  18.122   4.630   5.071  0.2504  0.1805  0.2788
25239W        W31839   7.233   2.448  10.440  0.0507  0.0047  0.1593
25240W        W31840  29.819   6.000  22.049  0.2041  0.1110 -0.0653
25241W        W31841  21.168   0.457  16.481  0.2070 -0.0838 -0.0528
25242W        W31842   0.523   6.175  25.867  0.0940 -0.1747  0.1086
25243W        W31843  19.329   1.330   4.001 -0.1183  0.1888  0.2710
25244W        W31844  28.625   7.768  22.116 -0.1088 -0.1012 -0.1316
25245W        W31845   3.078   6.829   6.674 -0.0165 -0.1040 -0.1749
25246W        W31846   2.331   3.765   5.134 -0.2673  0.0727  0.0036
25247W        W31847  29.084   3.362  22.468 -0.1121 -0.1000  0.0439
25248W        W31848  20.804   7.464  16.957 -0.0621 -0.1266  0.1151
25249W        W31849  26.067   3.389  22.056 -0.2448  0.1287 -0.0459
25250W        W31850  15.146   3.468  23.508 -0.5945 -0.1010 -0.0441
25251W        W31851  11.886   2.439  22.616  0.0589  0.2071  0.2988
25252W        W31852   6.966   6.380   4.428 -0.1637  0.1915 -0.0214
25253W        W31853  30.206   7.154  10.670 -0.0420 -0.6009  0.0351
25254W        W31854  26.760   6.283  22.509 -0.1002  0.1166 -0.0698
25255W        W31855  12.338   7.575   3.270 -0.0951  0.0967  0.1649
25256W        W31856   0.368   1.395   6.311  0.0028 -0.1085 -0.0670
25257W        W31857  26.313   3.042  16.761  0.0232 -0.1137  0.2636
25258W        W31858  17.636   3.689  19.559  0.1371 -0.0573  0.2582
25259W        W31859  25.222   1.916   8.382  0.0941  0.2231 -0.3223
25260W        W31860  14.721   4.741  24.302  0.0307 -0.1775  0.3026
25261W        W31861   7.051   4.855   8.770 -0.1826  0.4700 -0.2832
25262W        W31862   6.566   3.412   2.986  0.1931  0.1146 -0.2608
25263W        W31863  23.536   1.303  17.512 -0.0799  0.0216  0.0438
25264W        W31864  18.816   5.693   3.015 -0.1789 -0.0116 -0.0389
25265W        W31865   0.404   4.982   2.611 -0.3242 -0.1775 -0.3100
25266W        W31866   2.002   7.343  17.669  0.2591 -0.2528 -0.0565
25267W        W31867  29.716   7.106  18.680 -0.0828  0.2320  0.4525
25268W        W31868  11.650   2.939   7.895 -0.0684  0.0551 -0.1506
25269W        W31869  23.317   5.690   3.994 -0.0546 -0.0436  0.0794
25270W        W31870  19.571   5.779  16.233 -0.1494  0.1591 -0.1316
25271W        W31871  28.294   2.773   8.424  0.1847  0.2643 -0.3579
25272W        W31872  24.871   7.352   6.993  0.2171 -0.1842 -0.4086
25273W        W31873  10.989   7.719  15.310  0.0777 -0.1411 -0.1585
25274W        W31874  11.282   1.932  20.318 -0.0903 -0.0540 -0.0983
25275W        W31875   1.548   0.692   5.297  0.2849  0.0217  0.0955
25276W        W31876   3.761   5.890   3.217 -0.1858  0.5027 -0.0490
25277W        W31877  22.316   5.852   1.645  0.2380  0.0789 -0.0090
25278W        W31878  10.563   0.815  23.037 -0.0527 -0.1033 -0.1392
25279W        W31879  19.773   5.267  16.391 -0.2806 -0.1014 -0.1199
25280W        W31880  22.648   4.188  15.954 -0.1011 -0.0260  0.2962
25281W        W31881  30.548   4.808   6.366  0.1405  0.0249 -0.1485
25282W        W31882  10.663   3.941  18.541 -0.1686 -0.1890  0.0026
25283W        W31883   9.999   7.685  17.257  0.0614  0.3206 -0.3178
25284W        W31884  25.328   6.314  21.109 -0.1284 -0.0791  0.2331
25285W        W31885   6.203   6.278  25.096 -0.4480  0.0681  0.0918
25286W        W31886  21.549   3.049  17.711 -0.1396  0.2867  0.0825
25287W        W31887  25.380   0.299  19.112  0.0228 -0.1120 -0.1924
25288W        W31888   1.464   1.477  19.850 -0.2420 -0.4075  0.2542
25289W        W31889  28.051   4.722  21.533 -0.0445  0.2075 -0.1277
25290W        W31890   5.694   3.150   0.177 -0.0768  0.1545 -0.0467
25291W        W31891   0.784   5.367   5.996 -0.0989  0.1476 -0.0915
25292W        W31892  25.140   6.886  22.843  0.1294 -0.3461 -0.0977
25293W        W31893   8.962   3.912  23.340 -0.3255  0.0909 -0.2583
25294W        W31894   7.481   0.129  18.433  0.0449  0.1511 -0.0124
25295W        W31895   2.021   2.461  10.236 -0.1621 -0.2964 -0.3294
25296W        W31896  12.064   5.570  25.450  0.0823 -0.0140 -0.1048
25297W        W31897   6.037   0.985   9.740 -0.0455 -0.1125 -0.2364
25298W        W31898  23.172   7.561   2.023 -0.1612 -0.0689 -0.1821
25299W        W31899   2.234   1.874   9.064  0.3372  0.2465 -0.0726
25300W        W31900  16.519   4.577   8.130 -0.2756  0.1772 -0.0972
25301W        W31901   2.328   5.708   0.578 -0.1017  0.1991  0.0911
25302W        W31902  17.849   4.786   5.657  0.0379 -0.1775 -0.0437
25303W        W31903  15.332   6.644  20.235  0.0804 -0.0545  0.2685
25304W        W31904  31.123   1.512  25.094 -0.0379  0.0956  0.1515
25305W        W31905  23.754   7.732   8.020 -0.0767 -0.0942 -0.4280
25306W        W31906  16.183   7.076  16.475 -0.0626 -0.0875  0.2841
25307W        W31907  14.915   6.293  19.600 -0.1815 -0.2155 -0.0710
25308W        W31908   0.886   0.728   8.780  0.3791 -0.0648 -0.2128
25309W        W31909  29.118   5.346   2.008 -0.0725  0.0586 -0.0129
25310W        W31910  22.153   4.396  22.628  0.3907 -0.0075 -0.0751
25311W        W31911   6.584   3.151  10.221 -0.1406  0.3605  0.1833
25312W        W31912  30.043   2.956  25.945 -0.1477  0.1448  0.0401
25313W        W31913   5.806   5.921  19.222  0.0125 -0.0410 -0.2187
25314W        W31914  12.233   1.402  23.066  0.3236  0.0182 -0.0225
25315W        W31915   8.810   1.467  21.308 -0.1078  0.0224 -0.2523
25316W        W31916  29.753   4.669  21.836 -0.2534 -0.2030 -0.3111
25317W        W31917   9.158   0.865  19.608  0.2300 -0.3160 -0.1051
25318W        W31918  22.202   3.218   8.682  0.1854 -0.0364  0.1578
25319W        W31919  13.231   7.495  25.030  0.0032  0.1162 -0.1605
25320W        W31920  17.410   6.795   8.180  0.0547 -0.0964 -0.1534
25321W        W31921  10.907   3.182   8.742 -0.0271  0.2683 -0.0302
25322W        W31922  15.043   4.667   1.470  0.4060 -0.1032 -0.2464
25323W        W31923   9.599   2.746   5.526  0.0255 -0.1923  0.0082
25324W        W31924  31.195   2.827  10.280 -0.0919  0.2371 -0.1108
25325W        W31925  21.989   1.361   4.231  0.3979  0.0628 -0.0562
25326W        W31926  17.563   2.053  24.919  0.1136 -0.3686  0.2390
25327W        W31927   4.754   2.651  20.637  0.0946 -0.0617  0.2579
25328W        W31928  16.715   4.454  20.822 -0.2045 -0.0445 -0.3120
25329W        W31929  17.734   5.654  25.092  0.0579  0.0380  0.0824
25330W        W31930  12.671   1.756   2.207  0.1240  0.1859  0.1416
25331W        W31931  28.749   4.907  15.968 -0.1117  0.1159  0.2331
25332W        W31932  25.891   0.098   8.396 -0.0535  0.0109  0.1625
25333W        W31933  19.626   4.722  21.901  0.0709  0.1790  0.0267
25334W        W31934   1.012   1.273   9.420  0.1721  0.0290 -0.2378
25335W        W31935   7.146   6.782  10.049  0.2345 -0.1209 -0.0886
25336W        W31936  25.943   2.470  22.914  0.0716  0.0659 -0.1294
25337W        W31937  10.847   1.870  24.363 -0.0090 -0.1175  0.3378
25338W        W31938  29.522   3.134  22.597 -0.0476 -0.0836 -0.0450
25339W        W31939  15.813   7.199   4.899 -0.1325 -0.2865 -0.2415
25340W        W31940   5.797   4.746  19.780  0.3786 -0.0791 -0.2983
25341W        W31941  22.000   2.308  17.343  0.1125  0.1577  0.3140
25342W        W31942  15.059   3.641   6.517 -0.0411 -0.3066 -0.1048
25343W        W31943  13.051   4.165  22.990  0.1516 -0.1750 -0.1290
25344W        W31944  23.749   4.878   3.901  0.1595 -0.1231 -0.1282
25345W        W31945   5.352   5.884  23.658 -0.3162 -0.1177 -0.0193
25346W        W31946  17.162   0.166  24.666  0.0382 -0.0517  0.1798
25347W        W31947   5.676   3.845  18.255 -0.1653 -0.2195  0.1308
25348W        W31948  17.726   5.582  16.671 -0.2170 -0.0946 -0.0526
25349W        W31949  22.462   7.489  10.816  0.1412 -0.2755 -0.1479
25350W        W31950   2.918   0.279   6.904  0.5360 -0.1566  0.1486
25351W        W31951   1.210   7.804   8.227 -0.2986  0.1439 -0.1435
25352W        W31952  25.606   2.536   3.947  0.0136  0.2869  0.1281
25353W        W31953  13.353   0.440   9.237 -0.1717 -0.0430 -0.4748
25354W        W31954  12.028   7.632   0.568 -0.2106 -0.0735 -0.0405
25355W        W31955  21.537   6.033  15.979  0.0395 -0.2891  0.0738
25356W        W31956   7.847   4.306   1.143 -0.3233 -0.0516  0.3418
25357W        W31957  16.396   4.908  23.839  0.0447 -0.2429  0.0316
25358W        W31958  16.557   2.395  25.480  0.1840  0.0845  0.0230
25359W        W31959  10.758   3.508  22.049  0.1965 -0.0334  0.0068
25360W        W31960   2.460   6.984  21.689  0.1286  0.0855  0.1334
25361W        W31961   6.770   0.275   2.589 -0.2165  0.5377 -0.2172
25362W        W31962   8.995   5.050   1.075 -0.1410 -0.0608 -0.3003
25363W        W31963   3.157   5.069   3.722  0.0065 -0.0760  0.2251
25364W        W31964  21.368   4.816   8.908  0.0828  0.1313 -0.0454
25365W        W31965  21.771   5.049  22.846 -0.0831 -0.0818 -0.3737
25366W        W31966  23.842   5.972  16.409  0.0251  0.1384 -0.0491
25367W        W31967   4.822   4.565  23.492 -0.1987  0.1358  0.1562
25368W        W31968  13.419   2.769   4.454 -0.2270 -0.2125  0.0203
25369W        W31969  23.477   6.440  22.621  0.1574 -0.1069  0.0129
25370W        W31970  11.697   0.517  10.069 -0.2358 -0.1680  0.4814
25371W        W31971  30.393   5.726  20.888 -0.2247  0.3339 -0.3414
25372W        W31972  14.730   7.499  19.203  0.0126 -0.1608  0.1962
25373W        W31973   0.372   2.321  10.282 -0.1206  0.1096 -0.2507
25374W        W31974   1.661   3.970  20.611  0.1071  0.5361 -0.1146
25375W        W31975  23.229   1.623   2.599  0.0120  0.0040  0.3851
25376W        W31976   6.442   2.984  22.507 -0.6338  0.1288 -0.0568
25377W        W31977  16.590   4.431  19.033 -0.3711 -0.0168 -0.1182
25378W        W31978  19.693   4.332  23.984  0.2406  0.2071  0.0927
25379W        W31979  27.103   5.194  25.543 -0.1594 -0.1299  0.1131
25380W        W31980  23.385   0.391   5.893  0.0798  0.3131 -0.0193
25381W        W31981  31.070   1.852  19.722  0.1563 -0.0026  0.2049
25382W        W31982  19.732   7.191  25.430  0.1089 -0.0506  0.0299
25383W        W31983  20.020   5.737  18.932 -0.1920  0.3062 -0.0823
25384W        W31984   9.281   3.428  19.674 -0.1110 -0.0884  0.2124
25385W        W31985   4.261   5.139  20.669 -0.0626  0.1655 -0.0592
25386W        W31986   3.394   2.561   0.014 -0.1319 -0.1047 -0.0244
25387W        W31987  12.387   0.221  16.805 -0.1181  0.0965 -0.1602
25388W        W31988  21.825   0.128  16.213  0.0348  0.1017  0.2564
25389W        W31989   0.078   5.768  20.499 -0.1288 -0.0975  0.1315
25390W        W31990  26.791   4.233  23.787  0.1363 -0.1366  0.0598
25391W        W31991  27.966   5.487  25.724  0.0656 -0.1172 -0.3492
25392W        W31992  22.840   7.513  20.957 -0.1823  0.0275  0.1380
25393W        W31993   0.865   0.871   5.075 -0.0405 -0.2892 -0.1361
25394W        W31994   7.480   1.964   9.975 -0.4301  0.2166  0.1297
25395W        W31995  16.714   5.598  15.615  0.0628  0.0703 -0.0854
25396W        W31996  21.537   1.583  24.516  0.1248 -0.2723  0.1439
25397W        W31997  28.060   5.855  16.880  0.2020 -0.3717  0.1311
25398W        W31998   4.123   6.435   1.724 -0.1127 -0.4020 -0.1970
25399W        W31999   1.905   2.468  21.886  0.0575  0.0492 -0.2117
25400W        W32000   0.019   2.765   7.309  0.0194 -0.0541 -0.3370
25401W        W32001   6.576   7.801  25.322 -0.0062  0.1128  0.2172
25402W        W32002  10.317   7.520  19.977  0.1649  0.1918  0.0133
25403W        W32003  15.745   5.584   0.293 -0.1090  0.0549 -0.2202
25404W        W32004  11.267   5.941   4.104  0.1209 -0.0560 -0.1431
25405W        W32005  12.305   5.526   9.499  0.0467  0.1636 -0.2157
25406W        W32006  20.759   2.057   3.605 -0.0312  0.1373 -0.0472
25407W        W32007   8.265   0.923  21.123 -0.0585  0.1457 -0.1282
25408W        W32008   5.418   1.026  16.318 -0.1485 -0.1623 -0.1141
25409W        W32009  13.993   1.273  17.544  0.1148 -0.0566 -0.0545
25410W        W32010  25.131   4.133  10.716  0.0571  0.1254 -0.1947
25411W        W32011  11.012   2.559  19.027 -0.0749  0.0100  0.0660
25412W        W32012   6.958   5.890  16.993 -0.3271 -0.2597  0.0981
25413W        W32013  24.801   4.764   7.432  0.1430 -0.0244 -0.0602
25414W        W32014  23.457   3.737  10.418  0.0211 -0.1242  0.0398
25415W        W32015  11.115   3.989   5.564  0.3977  0.0940 -0.1207
25416W        W32016  24.774   0.244   4.991  0.0216 -0.1456 -0.2372
25417W        W32017  14.659   5.951  21.591 -0.3121 -0.0521  0.2778
25418W        W32018   6.692   7.372   9.593  0.1797  0.1209 -0.1358
25419W        W32019   3.208   5.376   1.661  0.3179 -0.0095  0.0335
25420W        W32020   6.990   5.032   6.284 -0.2212  0.2899 -0.1554
25421W        W32021   2.578   4.835  10.456  0.0032  0.3290 -0.2955
25422W        W32022  10.980   6.334   7.835 -0.0073  0.0978  0.1983
25423W        W32023   3.652   4.333  17.343 -0.3300  0.0557 -0.1934
25424W        W32024  24.032   1.472  16.571  0.1342  0.0691  0.0749
25425W        W32025   6.287   1.999   2.171 -0.3885 -0.2184 -0.0832
25426W        W32026  27.360   5.527  20.961  0.2007 -0.1540  0.0375
25427W        W32027  21.081   1.568  10.655  0.3756  0.2174  0.1982
25428W        W32028  11.706   7.736   6.295  0.0317  0.3674 -0.1842
25429W        W32029  26.497   1.676  15.633  0.2114  0.2362 -0.0542
25430W        W32030  11.730   4.369  16.732  0.0166  0.2621 -0.0181
25431W        W32031   2.275   1.524  23.883 -0.0372 -0.0295  0.3094
25432W        W32032  19.384   7.082   7.593 -0.1293  0.0782 -0.0473
25433W        W32033  15.432   4.248   4.906 -0.1599  0.0914 -0.0835
25434W        W32034  14.018   3.753   0.916  0.1712 -0.1907 -0.3868
25435W        W32035   8.968   4.856   5.991 -0.3186 -0.1893  0.0812
25436W        W32036   5.189   4.122  23.262 -0.0633 -0.3432 -0.0821
25437W        W32037  28.709   6.108   7.150 -0.0495 -0.1566 -0.1121
25438W        W32038  23.277   5.352  25.704 -0.2339  0.1205 -0.0311
25439W        W32039  19.819   6.958  26.041  0.0873 -0.1211 -0.0919
25440W        W32040  15.515   1.709  18.417 -0.1633 -0.0114  0.1477
25441W        W32041   4.636   2.596  18.860  0.2789  0.0006  0.3723
25442W        W32042   5.548   4.990  23.279  0.1688  0.1107 -0.2277
25443W        W32043  16.523   6.073   1.846  0.0599 -0.2021  0.0657
25444W        W32044   8.114   0.741   2.301 -0.0124  0.1801  0.2066
25445W        W32045   8.924   5.666   6.485  0.0557 -0.1435 -0.1690
25446W        W32046   0.780   5.042  20.721  0.2235  0.0493 -0.2414
25447W        W32047  11.840   7.517   6.804  0.0027  0.0090  0.0739
25448W        W32048   2.756   4.730   0.193  0.1807  0.0688 -0.0359
25449W        W32049  30.415   4.911  10.101 -0.1927  0.1206 -0.2713
25450W        W32050  13.962   5.437   0.647  0.3006 -0.1965 -0.0374
25451W        W32051   8.922   6.966  16.072  0.0672 -0.2016 -0.3252
25452W        W32052   8.807   4.167   8.744  0.0980 -0.0943 -0.1417
25453W        W32053   5.763   4.653   0.676 -0.0604  0.1947  0.1940
25454W        W32054  14.071   7.410   3.785 -0.1952  0.1358 -0.0791
25455W        W32055  22.573   1.383  18.236 -0.0917  0.2351  0.0563
25456W        W32056  19.986   3.184   3.858  0.1860  0.2230 -0.1150
25457W        W32057  14.640   5.335   7.722  0.0252  0.1919 -0.0218
25458W        W32058   2.762   2.006   0.752  0.0506 -0.0332 -0.0534
25459W        W32059  15.925   5.577  21.396 -0.3481  0.0983 -0.2001
25460W        W32060   8.462   2.271   6.168  0.0564  0.0681  0.0143
25461W        W32061  11.706   4.986  20.502 -0.0696 -0.0804 -0.1075
25462W        W32062  10.475   1.260  23.351 -0.2029 -0.0356  0.1243
25463W        W32063   6.061   2.896   3.096  0.0140 -0.1238  0.0405
25464W        W32064  16.130   0.752   7.390 -0.1462 -0.1419 -0.1175
25465W        W32065  26.241   3.264   2.105 -0.1298 -0.0210  0.0152
25466W        W32066  25.044   3.534  18.477 -0.2927 -0.1156 -0.1303
25467W        W32067  28.639   3.706   5.303  0.3306  0.0698 -0.0748
25468W        W32068  20.925   0.596  25.913  0.0164 -0.1966  0.3422
25469W        W32069  19.215   3.790   1.136 -0.2830 -0.1802  0.3012
25470W        W32070   7.962   2.193  23.475  0.1640  0.0379  0.0992
25471W        W32071  29.994   1.424   2.837 -0.3135  0.0759 -0.2208
25472W        W32072  28.597   1.722   5.585 -0.1783  0.0015  0.1260
25473W        W32073   7.737   3.444  22.680 -0.0431  0.5201 -0.0661
25474W        W32074  24.666   3.813   6.644  0.0082 -0.1428  0.3064
25475W        W32075   7.664   4.280   8.253 -0.0999  0.1320  0.0802
25476W        W32076  10.392   5.434   3.360 -0.1664 -0.0642  0.2230
25477W        W32077  18.117   2.441  18.356 -0.2098  0.4090 -0.0556
25478W        W32078  13.048   0.244   6.264 -0.1767 -0.2631 -0.1008
25479W        W32079  25.102   4.368   7.326  0.1534  0.5823 -0.0935
25480W        W32080  12.533   3.156  23.568 -0.0837  0.0410  0.0878
25481W        W32081  17.349   5.606  21.183 -0.1463  0.0100 -0.1776
25482W        W32082  26.772   2.071  24.258  0.2506 -0.1967 -0.1546
25483W        W32083   8.238   5.911  24.178  0.0573 -0.1481 -0.0530
25484W        W32084  12.133   3.534  16.208  0.1027  0.1385  0.0739
25485W        W32085  29.774   6.414   4.419  0.1104  0.2130 -0.3505
25486W        W32086  27.270   6.867   1.463 -0.1529  0.0060  0.1300
25487W        W32087   5.126   7.413  25.021 -0.0032  0.1101 -0.1945
25488W        W32088  29.653   0.113   1.827  0.0648 -0.2540  0.1816
25489W        W32089  29.220   4.965  21.202  0.0802 -0.1449 -0.0079
25490W        W32090  18.501   0.280  26.141 -0.1372 -0.1285  0.0824
25491W        W32091   9.323   4.671  21.536  0.1365  0.0771 -0.1046
25492W        W32092  16.498   7.347  25.396 -0.1699  0.1548 -0.1120
25493W        W32093  23.455   0.101  15.082 -0.0354 -0.0004 -0.0593
25494W        W32094  24.500   7.058  23.714  0.0778 -0.0179  0.2618
25495W        W32095  22.955   3.553   9.103  0.0687  0.0876 -0.1247
25496W        W32096  16.610   2.280  10.573  0.0287  0.1753  0.0117
25497W        W32097  25.906   2.985  21.765  0.0723  0.0393  0.0293
25498W        W32098  26.079   5.700   2.425  0.0854 -0.0855  0.2244
25499W        W32099  20.338   4.362   1.909 -0.1664 -0.0252 -0.1344
25500W        W32100  20.938   6.473   7.303 -0.1140  0.0364 -0.2957
25501W        W32101  16.324   5.254  23.443  0.3878  0.1227 -0.0342
25502W        W32102  17.119   1.485  18.808  0.2361 -0.0130 -0.2854
25503W        W32103  26.439   5.393  17.997 -0.0933  0.1968 -0.0947
25504W        W32104  18.731   5.002   1.724  0.4754  0.0313  0.2047
25505W        W32105  11.976   1.885   1.800 -0.0150  0.0844  0.1138
25506W        W32106  22.764   5.803   7.624 -0.0222  0.1668 -0.0675
25507W        W32107  13.865   5.439  22.560  0.0638  0.1665 -0.0697
25508W        W32108  22.118   4.123   8.239  0.2030 -0.1898 -0.2100
25509W        W32109   6.778   5.188  20.017 -0.1539  0.1542  0.0051
25510W        W32110  18.732   0.983  25.423 -0.1558 -0.1300  0.2714
25511W        W32111   3.311   7.163  25.510  0.0069 -0.1830  0.0336
25512W        W32112   0.611   2.159  15.211  0.1150 -0.5044 -0.1424
25513W        W32113   0.673   2.437   0.241 -0.1710 -0.1231 -0.0717
25514W        W32114  16.592   3.216  22.787  0.0795 -0.3777  0.2735
25515W        W32115   3.701   6.200   5.613 -0.1279  0.3025 -0.1578
25516W        W32116  23.026   6.661  22.771  0.0987  0.2906  0.1198
25517W        W32117  23.514   5.612   5.446  0.0489 -0.1181 -0.0414
25518W        W32118  12.437   6.546  25.333 -0.0231 -0.2313  0.1026
25519W        W32119  16.065   4.875   7.919 -0.1031  0.0119  0.1346
25520W        W32120   6.034   4.632   2.722 -0.3281  0.1383 -0.0845
25521W        W32121  11.417   7.235   6.926 -0.0632  0.2534 -0.0853
25522W        W32122  23.844   3.723  19.693 -0.2518  0.1658 -0.2013
25523W        W32123   2.761   4.098   3.540 -0.1764  0.1536  0.3345
25524W        W32124  18.206   3.854   6.784  0.1082 -0.2358  0.3026
25525W        W32125  26.977   5.943   6.576  0.0012  0.1825 -0.2131
25526W        W32126  16.041   0.940  15.379 -0.0750  0.0119 -0.0716
25527W        W32127  10.113   7.567  16.295 -0.0970 -0.2618  0.0541
25528W        W32128   9.001   5.158   0.560 -0.0154 -0.0267  0.2322
25529W        W32129  29.450   2.278   5.843  0.0292 -0.1445  0.0820
25530W        W32130  13.194   6.483  16.284  0.0914 -0.0469 -0.0637
25531W        W32131  21.453   3.261  21.722 -0.1785 -0.0414 -0.1977
25532W        W32132   5.584   3.203   7.661  0.1182 -0.0806 -0.0040
25533W        W32133  11.414   3.082   2.079 -0.3254  0.0873 -0.1149
25534W        W32134   9.146   6.122  16.202  0.2386 -0.0035 -0.1775
25535W        W32135  28.994   4.227  11.017 -0.1770  0.1416  0.1636
25536W        W32136  27.548   5.358   4.477  0.2786 -0.1761 -0.0191
25537W        W32137  16.502   7.808   1.346  0.0259  0.0124 -0.0019
25538W        W32138  19.488   5.430   2.219 -0.1114 -0.2902 -0.0058
25539W        W32139   6.689   4.484  15.669 -0.0709  0.0141 -0.1707
25540W        W32140   0.079   5.876  10.030 -0.0868 -0.1423  0.0867
25541W        W32141   8.130   0.112   9.982 -0.0572 -0.0583 -0.1531
25542W        W32142  10.148   5.200  16.634 -0.1692 -0.0004  0.1193
25543W        W32143   6.720   7.598   2.118  0.0156 -0.3486  0.1156
25544W        W32144  21.662   0.458  10.033 -0.1903 -0.0157  0.0804
25545W        W32145  19.876   1.651   8.021 -0.2812  0.1862  0.1109
25546W        W32146  26.222   2.372   7.207  0.1077 -0.2489 -0.1007
25547W        W32147   2.140   4.709   6.357  0.0669  0.4228 -0.0527
25548W        W32148  10.712   0.951   0.883 -0.0041  0.2163  0.1815
25549W        W32149   9.762   2.955  18.410 -0.0532 -0.4371 -0.0331
25550W        W32150  20.088   1.943  16.805 -0.0884  0.3486 -0.1340
25551W        W32151  17.996   3.777  10.816  0.3036  0.0993 -0.3076
25552W        W32152  15.090   5.613  10.335 -0.2448  0.3005  0.4963
25553W        W32153  30.214   0.956   6.101 -0.1649  0.0711  0.1960
25554W        W32154  30.858   3.472   3.045 -0.0078 -0.3796  0.0946
25555W        W32155   6.998   1.972  21.530  0.1107 -0.1891 -0.3690
25556W        W32156  14.476   1.631  18.282  0.1728  0.0526  0.1452
25557W        W32157  22.123   5.645  11.424 -0.1584  0.1382  0.3379
25558W        W32158  25.530   4.931  19.609 -0.2499  0.1392  0.1835
25559W        W32159   0.170   4.616  21.236  0.1595 -0.0168  0.0975
25560W        W32160   7.138   6.783   2.823 -0.2003  0.3032 -0.1651
25561W        W32161   7.682   7.582  19.729 -0.0962 -0.0754  0.0964
25562W        W32162   4.493   4.430   8.257  0.0745  0.1112  0.1593
25563W        W32163   0.144   5.316   0.785 -0.0063  0.2473 -0.0672
25564W        W32164  19.100   0.971  24.604 -0.0553  0.2471 -0.1689
25565W        W32165  22.590   3.112  22.640  0.1750  0.2480  0.2764
25566W        W32166   0.823   2.034   1.940 -0.1007 -0.0178 -0.0623
25567W        W32167   0.540   1.255   5.906 -0.0497 -0.1823  0.1017
25568W        W32168   0.451   4.888  18.799 -0.1066  0.0425  0.0281
25569W        W32169   8.900   1.547   4.762 -0.1102  0.1621 -0.0022
25570W        W32170   5.190   1.998   4.316  0.1142  0.0016 -0.1265
25571W        W32171  17.657   1.968   2.298 -0.0144  0.1870 -0.0194
25572W        W32172   2.671   6.614  23.851 -0.2614 -0.1933 -0.1303
25573W        W32173  21.093   1.019  15.479  0.2833  0.4879  0.0214
25574W        W32174   5.874   6.958   8.152  0.3137  0.0322 -0.1380
25575W        W32175  11.656   0.099  21.480  0.1659 -0.1199 -0.1184
25576W        W32176   8.014   2.406  24.172 -0.0590 -0.1488  0.1614
25577W        W32177   6.276   7.142  24.554  0.0713  0.0240 -0.0741
25578W        W32178   9.050   1.387  26.015  0.0475  0.0629 -0.0622
25579W        W32179  12.347   7.028  21.338  0.0988 -0.2240 -0.1758
25580W        W32180  10.318   5.139  17.102 -0.0436  0.0740 -0.0600
25581W        W32181  28.921   1.526   2.457 -0.0936 -0.0435  0.0506
25582W        W32182  11.492   7.216   2.494 -0.0393 -0.0783 -0.0546
25583W        W32183   8.318   4.889   9.277 -0.0540 -0.0354 -0.0266
25584W        W32184  23.854   0.102  14.747  0.0274 -0.2832  0.0785
25585W        W32185  15.019   4.851  25.707  0.0240  0.0050  0.0045
25586W        W32186  11.183   0.991  16.947  0.1947 -0.0472  0.0657
25587W        W32187  15.209   1.265  14.866  0.0737 -0.0791  0.1146
25588W        W32188  28.781   5.099   9.510 -0.0311 -0.0460  0.7561
25589W        W32189  15.905   1.799   0.498  0.3019  0.1345  0.0856
25590W        W32190   4.866   4.042   2.308 -0.0990  0.2224  0.0560
25591W        W32191  25.176   3.808  21.889 -0.1543 -0.0791 -0.2237
25592W        W32192  21.316   3.684  25.671 -0.0000 -0.0664 -0.1635
25593W        W32193   9.207   5.686   1.289  0.1678 -0.0044 -0.3305
25594W        W32194  11.812   1.942  23.615  0.0987  0.4302  0.0166
25595W        W32195   1.727   3.613   4.494  0.0386 -0.0417 -0.0253
25596W        W32196  14.306   1.637   6.898  0.1652 -0.0404 -0.3326
25597W        W32197  13.489   4.267   0.506 -0.0949 -0.1105  0.2596
25598W        W32198  10.870   1.512   7.741 -0.1152  0.0379  0.0200
25599W        W32199  19.740   1.624   4.736  0.0145  0.0401  0.3631
25600W        W32200  14.040   1.076   3.172 -0.3006 -0.1890 -0.0165
25601W        W32201  29.947   0.416  25.508  0.2181 -0.0935 -0.1834
25602W        W32202  14.898   6.099  22.377 -0.2948 -0.0333  0.0292
25603W        W32203   0.693   7.784  18.712  0.0340 -0.0808 -0.0541
25604W        W32204  14.932   6.538  19.056 -0.1362  0.0148 -0.1311
25605W        W32205   5.447   3.865   4.481  0.1797  0.0431 -0.2597
25606W        W32206  30.671   1.109   6.119  0.1105  0.0257 -0.1836
25607W        W32207  19.774   7.532   6.014  0.2481  0.3902 -0.1306
25608W        W32208  27.553   6.218  23.521  0.0484 -0.1061 -0.3762
25609W        W32209  25.337   4.602  16.327  0.0204  0.0353 -0.2620
25610W        W32210  21.074   1.478   1.779  0.1654  0.1646 -0.0455
25611W        W32211  16.343   6.085  17.671 -0.2468  0.0770  0.2059
25612W        W32212  20.348   1.576  16.658 -0.0085  0.1249 -0.1155
25613W        W32213  16.552   6.323  18.096  0.0208 -0.3601  0.1842
25614W        W32214   8.550   5.608   2.185  0.0239 -0.0321 -0.3034
25615W        W32215  19.000   2.919   4.211 -0.1195  0.1341  0.0233
25616W        W32216  15.079   6.007   4.763 -0.2309  0.0366  0.3083
25617W        W32217  19.040   5.931   8.940 -0.0944  0.1055 -0.1898
25618W        W32218   6.522   4.776   9.864  0.1192 -0.1532  0.2329
25619W        W32219  11.223   3.393  16.663  0.1028 -0.2251 -0.1687
25620W        W32220   5.573   3.209  16.603 -0.1884 -0.0308  0.0147
25621W        W32221  12.054   7.177   3.044 -0.0421  0.3017  0.0306
25622W        W32222  24.048   3.186   3.611 -0.2139  0.0144  0.0597
25623W        W32223  28.803   4.914  10.048 -0.0012 -0.2670 -0.2287
25624W        W32224  28.606   7.638  16.641  0.0262  0.0478  0.3609
25625W        W32225   6.936   0.673  24.833 -0.1196 -0.2177  0.3344
25626W        W32226  27.384   2.115  23.146 -0.4913  0.3244 -0.1931
25627W        W32227   3.621   0.720  26.082  0.2761  0.0268  0.2972
25628W        W32228  17.724   2.875  19.010  0.2296 -0.0469  0.1752
25629W        W32229  27.434   4.740  18.303 -0.1963  0.1266 -0.0187
25630W        W32230  18.252   0.242  23.492 -0.1321  0.1199 -0.0784
25631W        W32231  29.134   7.220  25.126 -0.4125 -0.1389 -0.1522
25632W        W32232  31.209   7.435  19.484  0.1596  0.1932  0.1935
25633W        W32233   2.564   7.205  23.556 -0.1550  0.0482  0.2529
25634W        W32234   4.956   1.925   8.033  0.0361  0.2752  0.0548
25635W        W32235   7.006   1.211   5.271  0.0737 -0.1352  0.0585
25636W        W32236   2.092   6.758  21.482 -0.0932 -0.2188  0.0298
25637W        W32237   5.390   6.625   5.213  0.1435  0.0342 -0.3298
25638W        W32238  15.804   5.427   0.801 -0.0637 -0.3250  0.0376
25639W        W32239   0.933   1.803  17.029 -0.0631  0.0014 -0.3026
25640W        W32240  28.816   6.546   5.922  0.1620 -0.1288  0.0501
25641W        W32241  21.264   2.029  22.991 -0.0749  0.2901 -0.2752
25642W        W32242  16.082   2.083   0.797  0.3097 -0.2960 -0.0413
25643W        W32243  28.050   3.023   9.441 -0.2398  0.0446 -0.0004
25644W        W32244  23.773   3.690   6.588 -0.1884  0.0294 -0.1124
25645W        W32245  23.586   3.581   5.234 -0.1606 -0.1478  0.0151
25646W        W32246  24.416   0.587  16.001  0.2631 -0.0051 -0.0526
25647W        W32247   1.275   0.526  19.994  0.0465  0.1180 -0.4369
25648W        W32248  23.554   3.283  17.042 -0.2824  0.1347  0.0788
25649W        W32249  31.012   7.622  17.493 -0.0162 -0.0083  0.0092
25650W        W32250   6.738   0.668   3.636 -0.0049 -0.1651  0.1585
25651W        W32251  13.112   3.612  18.941 -0.0879  0.0601  0.3872
25652W        W32252   4.661   3.536   9.650  0.1028 -0.3594  0.1632
25653W        W32253   0.271   1.784  25.879  0.1879 -0.3301  0.3053
25654W        W32254  19.192   6.796  17.151 -0.2692 -0.1197 -0.2833
25655W        W32255  18.397   3.671   3.322  0.0118 -0.0203  0.1987
25656W        W32256   6.687   1.436   9.803 -0.1125  0.1994  0.1993
25657W        W32257  19.934   1.390   6.927  0.1378  0.0360 -0.3908
25658W        W32258  11.897   4.060  23.899 -0.0447  0.0154  0.1542
25659W        W32259  14.081   6.064  16.361 -0.3210  0.1924  0.0503
25660W        W32260  29.219   4.697   1.590 -0.0960 -0.1185 -0.1023
25661W        W32261  17.768   2.812  15.092 -0.1691  0.0840 -0.0266
25662W        W32262   1.265   2.054  23.785  0.0222  0.0321  0.2494
25663W        W32263  29.944   3.062  16.237 -0.1161 -0.2149  0.0481
25664W        W32264   1.653   5.178   0.857  0.1489  0.1774 -0.2454
25665W        W32265  11.946   1.085  24.862  0.0838 -0.1646  0.3331
25666W        W32266  29.059   1.969  16.619  0.2328 -0.0580  0.5070
25667W        W32267   5.713   3.105  19.566  0.1111 -0.1839  0.1406
25668W        W32268  11.378   6.607  23.064  0.1911 -0.2082  0.0725
25669W        W32269  12.469   7.253   7.170  0.0361 -0.0070  0.2310
25670W        W32270   3.330   7.188  24.852 -0.0089  0.1161 -0.4352
25671W        W32271   8.594   6.983  17.716  0.3089  0.1112  0.1427
25672W        W32272  27.662   4.027   9.006  0.0517 -0.0754 -0.0367
25673W        W32273  17.808   0.098   2.946 -0.1514 -0.1153 -0.1689
25674W        W32274  24.146   6.057   8.165 -0.2146 -0.1574  0.0523
25675W        W32275   4.936   0.713   6.726  0.1889 -0.0767 -0.0047
25676W        W32276   8.743   4.344   0.054 -0.0345  0.1567  0.2231
25677W        W32277  27.348   2.764   5.824  0.3573 -0.1888 -0.0225
25678W        W32278  18.831   0.370  23.341 -0.2308  0.0270  0.0202
25679W        W32279  13.918   2.221  17.485 -0.2620  0.2034 -0.1217
25680W        W32280   1.015   5.836  11.216  0.0983 -0.0216 -0.0871
25681W        W32281   0.273   4.125   3.571  0.0010  0.0511 -0.0919
25682W        W32282  16.394   1.621  18.224 -0.0784 -0.2659  0.0028
25683W        W32283   6.396   5.885  10.133 -0.0850  0.2389 -0.1352
25684W        W32284   1.705   5.114  22.532 -0.3327 -0.0211  0.0766
25685W        W32285  13.721   2.852   9.057 -0.0292  0.2120 -0.0154
25686W        W32286  17.744   1.917  23.687 -0.1378  0.0868  0.3293
25687W        W32287  16.066   1.066   6.971 -0.0085 -0.2447  0.3212
25688W        W32288  27.991   5.897  24.150  0.0095  0.1739  0.0488
25689W        W32289  18.894   6.216   8.532  0.3259  0.0000 -0.0611
25690W        W32290  13.901   1.986   6.564  0.0260 -0.1323  0.2212
25691W        W32291   8.456   6.509   5.666  0.1926  0.0640 -0.0858
25692W        W32292  25.134   5.136  22.078  0.1945  0.0992 -0.2208
25693W        W32293   1.014   6.415   8.432  0.1018  0.2573  0.0446
25694W        W32294  30.238   6.009   1.104 -0.2218  0.3741  0.0465
25695W        W32295   8.608   7.083  20.526  0.0790 -0.1394  0.0062
25696W        W32296  10.991   1.559  14.776  0.1542 -0.1665 -0.0359
25697W        W32297  22.540   6.013  15.569 -0.2919  0.1526  0.1919
25698W        W32298  22.353   6.751  17.521 -0.0776  0.1260 -0.0485
25699W        W32299  19.032   5.333  22.334 -0.1180 -0.2288 -0.0697
25700W        W32300  18.045   1.955  21.255  0.0347  0.1177 -0.1132
25701W        W32301   0.790   2.940   0.042 -0.1749 -0.0109  0.0409
25702W        W32302  23.206   0.245   8.564 -0.0259  0.1238 -0.3067
25703W        W32303  16.172   2.712  18.958 -0.1819  0.1727  0.1105
25704W        W32304  12.629   1.417  20.159 -0.2557 -0.1100  0.0991
25705W        W32305  10.300   7.624   5.399  0.1624  0.0456  0.2015
25706W        W32306  19.099   1.355   2.347  0.2823 -0.1793  0.3219
25707W        W32307   0.335   4.640   6.529  0.2491  0.2687 -0.0192
25708W        W32308  29.914   2.490   0.589  0.2034  0.1321  0.0333
25709W        W32309  15.870   1.288   2.480  0.1055  0.1238  0.2144
25710W        W32310  26.647   2.115   9.050 -0.2858  0.1724  0.2879
25711W        W32311  22.739   2.283   5.994 -0.1245  0.0129  0.0800
25712W        W32312  21.617   7.368  16.157 -0.2927  0.2789  0.1112
25713W        W32313  20.636   4.781  25.612 -0.0737  0.1397  0.1760
25714W        W32314  27.935   4.931  17.022 -0.3597 -0.2512  0.0147
25715W        W32315  20.583   0.072   2.896  0.2102 -0.0197  0.2359
25716W        W32316  19.889   4.662   3.242 -0.0395  0.1810  0.0676
25717W        W32317   2.349   1.598  20.216 -0.1176  0.1151  0.1475
25718W        W32318  17.518   0.454  24.549 -0.1336  0.0733 -0.1740
25719W        W32319   3.587   5.320  15.888  0.0805  0.0071  0.0752
25720W        W32320   1.990   2.523  24.179 -0.1729  0.0207  0.3292
25721W        W32321  11.949   4.944   5.316  0.0880 -0.2175 -0.0755
25722W        W32322  28.253   4.225   2.956 -0.1357 -0.3473 -0.1328
25723W        W32323  11.741   1.845  24.501  0.0776 -0.0228 -0.0506
25724W        W32324  26.351   3.591   7.378  0.4577 -0.3070 -0.1999
25725W        W32325   9.968   1.496  19.643 -0.1554 -0.1515  0.0957
25726W        W32326  25.561   5.382   6.510  0.0675 -0.0460  0.3521
25727W        W32327  13.189   0.966   2.685  0.0879  0.3020 -0.1378
25728W        W32328   4.493   1.950  24.893  0.0738  0.3912  0.1307
25729W        W32329   8.816   1.313  23.324 -0.3032 -0.1461  0.1221
25730W        W32330   2.521   5.413  18.335  0.3646  0.0047  0.0790
25731W        W32331   1.510   0.972   1.967 -0.2374 -0.0629 -0.1012
25732W        W32332   9.039   0.845   7.726 -0.1317 -0.0552  0.1309
25733W        W32333  11.460   5.105  16.182  0.1071  0.3071  0.1283
25734W        W32334   1.632   5.936  17.046  0.0110  0.0204  0.1172
25735W        W32335  18.028   7.461   6.909 -0.0130 -0.0679 -0.0312
25736W        W32336   2.756   0.246  24.937  0.2073  0.2812 -0.0637
25737W        W32337   5.753   5.533  23.161  0.1635 -0.0876  0.1263
25738W        W32338  27.086   4.567   8.612  0.1353  0.0131  0.1711
25739W        W32339  25.209   0.261   3.288  0.0732  0.2896  0.1254
25740W        W32340  18.653   2.637   4.666 -0.0723 -0.1730 -0.1529
25741W        W32341  16.886   5.133   3.592  0.0844  0.2582 -0.1730
25742W        W32342   7.377   6.403  15.592 -0.1616 -0.1383  0.1911
25743W        W32343   0.408   1.513   3.556 -0.2298  0.3166 -0.0359
25744W        W32344  27.612   3.487  16.680  0.2512 -0.2746  0.0087
25745W        W32345  15.734   2.637  14.414  0.0875 -0.1166  0.0882
25746W        W32346  30.979   4.156   1.599  0.0653  0.0202 -0.0520
25747W        W32347  16.100   7.780  10.748 -0.2207  0.0720 -0.0878
25748W        W32348  20.233   0.170   5.806  0.0782 -0.1518  0.1023
25749W        W32349   4.469   3.489   0.535  0.0636  0.0092  0.0410
25750W        W32350  25.733   3.101   8.103 -0.3244  0.1373  0.4239
25751W        W32351  28.267   7.294   9.291 -0.0516  0.1844 -0.0504
25752W        W32352  20.259   2.143  24.490  0.1312  0.1094  0.0490
25753W        W32353  22.665   5.633  25.013  0.2433  0.0727  0.1119
25754W        W32354  10.269   3.523   5.383 -0.0096 -0.2679 -0.1480
25755W        W32355   2.159   6.968  18.019 -0.3987 -0.1354 -0.0091
25756W        W32356  30.558   1.801   6.687 -0.0913 -0.0851  0.0031
25757W        W32357  11.119   5.427   3.840 -0.1034  0.3394  0.3158
25758W        W32358  13.059   5.110   0.918 -0.3116 -0.0407 -0.1873
25759W        W32359  15.939   0.249  25.325 -0.1298  0.2536 -0.0649
25760W        W32360  16.598   0.793  25.404  0.4012  0.0120 -0.0028
25761W        W32361  13.743   6.556  23.416  0.1529 -0.2153 -0.1619
25762W        W32362   3.773   0.494   9.758 -0.1600 -0.2385  0.1122
25763W        W32363   9.906   5.760   5.693  0.1588 -0.0407  0.2378
25764W        W32364   6.957   5.226  16.180 -0.1752 -0.2598  0.2984
25765W        W32365  24.055   7.676  24.226 -0.0124 -0.1127  0.0737
25766W        W32366  28.459   7.463   8.808  0.1376  0.0451 -0.1608
25767W        W32367  25.708   6.850   1.069 -0.0140  0.2341  0.0297
25768W        W32368  30.890   7.692   4.053 -0.0492  0.0312 -0.1927
25769W        W32369   6.576   7.055  18.522 -0.2998  0.2224  0.3233
25770W        W32370  12.999   6.974   4.578 -0.1028  0.1723 -0.0156
25771W        W32371   2.910   1.204   8.376 -0.0661  0.2574  0.0563
25772W        W32372   6.884   3.381  21.081  0.1210  0.0368  0.0628
25773W        W32373  18.117   0.942   4.546  0.2108 -0.0086 -0.1948
25774W        W32374   8.563   0.954  23.525 -0.0841 -0.1266 -0.1874
25775W        W32375  21.412   7.292   9.149 -0.0551 -0.1421  0.0383
25776W        W32376   3.145   3.483   7.785  0.0117 -0.1068  0.0652
25777W        W32377   4.685   1.367   9.664 -0.2585 -0.0758 -0.1828
25778W        W32378  14.341   4.370  22.242  0.0834 -0.3664 -0.2611
25779W        W32379  18.374   0.963  22.885  0.2494  0.2053 -0.2990
25780W        W32380   2.469   6.016   1.100 -0.0645  0.2439  0.1495
25781W        W32381  11.675   5.272  25.541 -0.1904 -0.1009  0.1932
25782W        W32382   3.981   2.922  21.234  0.0722  0.0558 -0.1051
25783W        W32383  10.939   7.237   8.369  0.2447  0.0362 -0.0680
25784W        W32384   2.120   1.586   4.102 -0.4087  0.0743 -0.1524
25785W        W32385   9.650   2.387  21.075  0.1069 -0.0337 -0.1023
25786W        W32386  29.511   1.251  23.515  0.0968 -0.0253  0.0270
25787W        W32387   7.406   5.964   4.563  0.0904  0.0591  0.0108
25788W        W32388  22.624   0.050  23.714  0.0572  0.0237 -0.0379
25789W        W32389   0.328   1.085  22.816  0.1907 -0.2169  0.0511
25790W        W32390   1.699   7.266  16.193 -0.0605  0.0555  0.3070
25791W        W32391   1.047   0.251  24.928 -0.0111 -0.0659  0.0030
25792W        W32392  12.887   5.710   3.058  0.1080 -0.0882  0.1396
25793W        W32393  16.513   2.466   0.800 -0.0421 -0.1486 -0.1493
25794W        W32394  29.102   3.652   3.077  0.1813 -0.0302 -0.0642
25795W        W32395  13.938   5.416   6.075 -0.1665  0.1284  0.0377
25796W        W32396   1.043   3.879   0.873 -0.0848 -0.1854  0.1644
25797W        W32397   7.262   5.904  10.062 -0.3703 -0.1081 -0.0934
25798W        W32398  30.510   5.507  23.547  0.1575  0.1085 -0.0809
25799W        W32399  13.014   6.194   5.169  0.1103 -0.1157 -0.0082
25800W        W32400   8.959   4.499   3.408 -0.2271 -0.1887 -0.0702
25801W        W32401  30.277   5.377  24.443  0.0039  0.0844  0.2727
25802W        W32402  23.796   0.024  16.178 -0.3841  0.1580 -0.5548
25803W        W32403   5.957   0.875   6.787  0.0267 -0.0934  0.1669
25804W        W32404  16.479   7.173  16.880  0.2109 -0.0531 -0.0932
25805W        W32405   0.041   2.023   2.522  0.1110  0.1713  0.1312
25806W        W32406  20.095   3.770  25.769  0.0355 -0.1415  0.2778
25807W        W32407  30.432   6.276  11.194 -0.3312 -0.0197  0.1833
25808W        W32408   2.057   3.008  21.389 -0.1329 -0.0712 -0.0190
25809W        W32409   7.595   0.786   7.390  0.0870 -0.1784  0.0427
25810W        W32410   7.701   2.042  24.035  0.0474  0.1803 -0.0491
25811W        W32411  17.145   0.321  20.592 -0.2306 -0.1211  0.0092
25812W        W32412  26.576   0.137   2.536 -0.0244  0.1653 -0.0932
25813W        W32413  26.685   7.189   0.017 -0.0580 -0.1047 -0.1825
25814W        W32414  26.240   2.670   9.589  0.1731 -0.1241  0.3560
25815W        W32415  23.260   6.185  19.656  0.2519  0.2456  0.1136
25816W        W32416  31.278   0.201  17.292  0.0794 -0.4500 -0.6619
25817W        W32417  14.228   4.334  19.291 -0.1493  0.1490 -0.2572
25818W        W32418   6.620   2.691  23.379 -0.1238 -0.2486 -0.1541
25819W        W32419  30.958   7.570  22.599 -0.1624 -0.3146 -0.0720
25820W        W32420  17.119   5.640  16.659 -0.2489 -0.1124  0.2131
25821W        W32421  20.587   4.458  26.087  0.0190  0.0635  0.1150
25822W        W32422  28.332   6.714  18.980 -0.3811 -0.2142 -0.3268
25823W        W32423  22.167   6.530   7.737  0.1832 -0.0789 -0.3751
25824W        W32424   8.879   7.434   8.794 -0.2413  0.1098  0.2208
25825W        W32425   4.271   6.964   8.295  0.0016  0.4120  0.1874
25826W        W32426  15.587   6.007  24.658  0.2163 -0.0051  0.0043
25827W        W32427  19.134   1.915  14.452 -0.1409 -0.0187  0.2720
25828W        W32428  10.771   5.513  23.660  0.1820  0.2687 -0.0664
25829W        W32429  19.441   7.772  17.013  0.0420  0.0472  0.0941
25830W        W32430  15.924   6.680   4.184 -0.0370 -0.1204  0.0990
25831W        W32431  17.484   7.697   1.016 -0.1403 -0.3403 -0.0763
25832W        W32432   0.511   0.708  21.185 -0.1815 -0.2683  0.3821
25833W        W32433  20.155   2.031  15.444 -0.1078 -0.1573 -0.2137
25834W        W32434  29.517   2.146   4.892 -0.1260 -0.2257 -0.1524
25835W        W32435  13.988   5.387  25.067 -0.0830 -0.0299  0.0695
25836W        W32436  29.278   2.195  25.586  0.0714 -0.0899  0.2419
25837W        W32437   7.833   1.784  24.903 -0.1078 -0.2003 -0.0980
25838W        W32438  14.686   1.816  10.091 -0.3383 -0.1933  0.1816
25839W        W32439  11.580   4.016  18.423  0.0170  0.3397 -0.0030
25840W        W32440  22.895   4.178  17.386 -0.2379 -0.0187  0.0948
25841W        W32441   1.381   1.334   0.972 -0.0850 -0.1257  0.1227
25842W        W32442  11.857   6.981   6.886  0.2865 -0.0933 -0.0273
25843W        W32443  23.536   5.357  17.018 -0.2102  0.0263  0.0054
25844W        W32444  16.484   2.632  16.077 -0.2131 -0.0826 -0.0922
25845W        W32445  15.672   2.559  20.737  0.0277  0.4155 -0.0925
25846W        W32446  17.252   6.911  22.142 -0.1290  0.1968 -0.2796
25847W        W32447  27.230   3.948   5.772  0.1939  0.1136  0.2038
25848W        W32448  20.228   1.468  18.518 -0.0280 -0.0972  0.4017
25849W        W32449  12.364   2.700  23.520  0.3034 -0.1298 -0.2305
25850W        W32450   3.043   5.941   0.387 -0.1138  0.2560 -0.1579
25851W        W32451   0.476   1.568  20.389 -0.0447 -0.0985  0.2362
25852W        W32452   9.846   6.630  18.689  0.1231 -0.0502  0.0296
25853W        W32453  10.038   1.981  23.624 -0.1753 -0.2392 -0.0466
25854W        W32454  27.574   1.774   8.580  0.0998  0.0149  0.1895
25855W        W32455  15.812   3.024   0.434  0.1401  0.2243 -0.1305
25856W        W32456   4.809   4.514   0.933 -0.3021  0.1080 -0.0196
25857W        W32457  10.900   6.146   0.544  0.3731  0.1399  0.2351
25858W        W32458  15.856   0.350   0.426 -0.0486 -0.0990  0.1297
25859W        W32459   3.027   5.793  17.424 -0.0331  0.1729  0.1900
25860W        W32460   6.265   2.360  21.496  0.0067  0.0234  0.0741
25861W        W32461  15.983   3.923   6.750  0.1419  0.0243 -0.0089
25862W        W32462  17.738   3.885   2.646 -0.0697 -0.2411  0.1908
25863W        W32463  20.634   0.154  15.517  0.0817  0.0256  0.4293
25864W        W32464   9.250   3.851   0.939  0.2912  0.1126 -0.2084
25865W        W32465  25.348   2.553   7.070 -0.1424 -0.2592 -0.0312
25866W        W32466  20.323   2.022  16.339 -0.0935  0.1395 -0.1123
25867W        W32467   6.119   4.098   0.055  0.0934  0.3382  0.2885
25868W        W32468   0.113   4.177  22.920  0.1116  0.0566  0.2277
25869W        W32469   2.444   5.745   3.947  0.0368 -0.3073  0.2250
25870W        W32470   8.352   2.999  22.169  0.0154  0.4860 -0.3458
25871W        W32471   0.994   7.255  11.476  0.2660  0.1176 -0.0705
25872W        W32472   6.463   3.919  16.167  0.1953  0.0402 -0.0738
25873W        W32473   5.954   2.401   9.543 -0.1709  0.3428 -0.0719
25874W        W32474  21.054   5.471   2.999 -0.0428 -0.1460 -0.3132
25875W        W32475  18.398   0.735   2.449 -0.0625 -0.0919  0.0088
25876W        W32476  13.816   0.996  18.499  0.0124 -0.1966 -0.0640
25877W        W32477  18.510   3.914  24.338 -0.0335 -0.2260  0.0086
25878W        W32478  27.804   1.268  18.697  0.1656  0.0984  0.3239
25879W        W32479   6.267   0.121   8.661  0.2394  0.2895 -0.2380
25880W        W32480   3.391   1.290   9.447 -0.2852  0.0524 -0.0518
25881W        W32481  18.381   1.303  25.704 -0.1616 -0.1853 -0.0092
25882W        W32482  21.758   0.363   6.774  0.1534 -0.0390  0.1093
25883W        W32483  21.236   3.663  16.785 -0.0522  0.0878  0.2186
25884W        W32484   5.218   7.361   2.758  0.0171  0.1038 -0.0535
25885W        W32485   4.276   0.926  18.725 -0.0545 -0.0946  0.1973
25886W        W32486  15.953   4.956  23.245 -0.4193 -0.2670 -0.0298
25887W        W32487  10.199   6.845  18.938  0.0321 -0.2162 -0.1867
25888W        W32488  29.069   5.779   2.761 -0.1356  0.1971 -0.3397
25889W        W32489   3.487   3.621  25.388 -0.0156 -0.0729  0.1886
25890W        W32490  25.398   1.388  23.114 -0.0519 -0.0795 -0.0860
25891W        W32491  16.919   1.341  26.139  0.3980  0.0844 -0.0442
25892W        W32492  16.982   1.461  10.145 -0.3941  0.0035  0.1249
25893W        W32493   3.201   3.633  19.604  0.1375  0.0880 -0.3721
25894W        W32494  21.859   4.967  21.960  0.0127 -0.0986  0.3615
25895W        W32495   0.181   4.237  19.310  0.1999  0.2262 -0.1599
25896W        W32496   3.913   7.094  16.165  0.2210  0.2611 -0.1011
25897W        W32497  29.817   4.283   9.890  0.1097  0.0512  0.3248
25898W        W32498   2.170   6.459   2.621 -0.1005 -0.2651 -0.0333
25899W        W32499  17.817   0.687   4.175  0.2141 -0.1856  0.2040
25900W        W32500  14.173   3.305   5.518  0.1153 -0.1810  0.0045
25901W        W32501   4.659   2.412  22.244  0.1654  0.0443 -0.0054
25902W        W32502  30.679   6.695   8.579  0.3630  0.2976  0.0067
25903W        W32503   9.930   3.109  23.554  0.1786  0.3461  0.1921
25904W        W32504   0.976   5.089  10.872 -0.0426  0.3499 -0.2282
25905W        W32505   2.951   3.868  20.980  0.0325 -0.1943  0.1237
25906W        W32506  18.420   5.919  15.737 -0.0606  0.4153 -0.0699
25907W        W32507  19.602   3.621   5.798 -0.0867  0.1074  0.1723
25908W        W32508  24.026   4.998   5.923  0.1176  0.6699  0.0004
25909W        W32509  25.592   1.316   3.072  0.1394  0.0037  0.0313
25910W        W32510   5.287   0.437  25.647 -0.2214 -0.1014  0.1502
25911W        W32511   9.203   5.081  17.681  0.1068  0.2094  0.0153
25912W        W32512   8.839   2.146  18.281 -0.2060  0.0883 -0.0049
25913W        W32513  11.022   3.119  21.783 -0.3751  0.0368  0.0278
25914W        W32514   5.827   0.802  18.192  0.2237 -0.0407  0.3193
25915W        W32515  19.850   3.181  20.686  0.0775 -0.4068 -0.1791
25916W        W32516   8.345   6.637   8.377  0.2815  0.0726 -0.0339
25917W        W32517  17.428   6.632   6.971  0.1160  0.1394  0.1513
25918W        W32518  22.854   6.405   1.178 -0.4717  0.1482 -0.0394
25919W        W32519  21.701   3.654   3.627 -0.1977  0.1370 -0.2016
25920W        W32520  22.073   3.230   8.115  0.0128  0.1745  0.0416
25921W        W32521  11.592   5.698  24.213 -0.1387  0.1523  0.4173
25922W        W32522  27.011   0.054   3.961  0.1127 -0.1378  0.2103
25923W        W32523  23.467   0.172  18.484  0.2692 -0.0972  0.1124
25924W        W32524  22.889   4.449   2.803  0.0196  0.1236 -0.0468
25925W        W32525   7.878   1.819  18.680 -0.1463 -0.2364 -0.2315
25926W        W32526  29.836   7.451  19.406  0.1318  0.0921  0.2424
25927W        W32527  27.796   6.178   9.938  0.2685  0.1262  0.2078
25928W        W32528  20.276   1.554   9.806 -0.1235  0.0090  0.0113
25929W        W32529  25.896   0.062  24.777  0.1251  0.1727 -0.1046
25930W        W32530  27.869   4.086   3.959 -0.2007 -0.1370 -0.2836
25931W        W32531   8.690   5.523  15.281  0.2171  0.3182 -0.3269
25932W        W32532   0.942   0.509  17.591  0.1532  0.1471 -0.0977
25933W        W32533   8.271   5.344  24.736 -0.2383  0.0940  0.2198
25934W        W32534  16.876   3.968   0.808 -0.0119 -0.5449 -0.1954
25935W        W32535  30.107   6.121  20.934 -0.0636 -0.2907  0.0551
25936W        W32536  17.612   7.640   6.830  0.2828  0.0027 -0.0034
25937W        W32537  18.725   6.366   3.477 -0.0677  0.1994 -0.0332
25938W        W32538  29.271   4.195   5.171  0.3541 -0.1398 -0.2483
25939W        W32539   2.662   5.893   2.717  0.1181 -0.0756 -0.0145
25940W        W32540  26.816   6.334  24.685  0.0381  0.1485  0.0588
25941W        W32541   8.385   5.263  21.603  0.0759  0.3107 -0.2562
25942W        W32542  30.193   4.848   8.538  0.0084 -0.3013  0.2552
25943W        W32543   7.430   6.732  18.450 -0.0903 -0.0296  0.1452
25944W        W32544  10.051   0.977  22.278  0.2856 -0.1186  0.0744
25945W        W32545  12.156   1.898   5.900  0.4055  0.1974 -0.0101
25946W        W32546  18.507   7.660   6.758 -0.0924  0.0811 -0.1913
25947W        W32547  21.221   6.959   5.937 -0.1515 -0.0972 -0.0931
25948W        W32548  15.106   2.655  10.164  0.0333  0.2087  0.1055
25949W        W32549   6.784   6.249  18.172  0.1217  0.2107  0.2067
25950W        W32550  15.188   2.167  17.759 -0.1206  0.1134  0.1833
25951W        W32551  17.326   0.676   5.963  0.2439 -0.0931 -0.0644
25952W        W32552   6.068   6.271  23.724 -0.1911  0.0172  0.2408
25953W        W32553  19.284   3.651  20.016 -0.1228  0.2681 -0.0190
25954W        W32554  19.035   5.822   5.233  0.1066 -0.1272 -0.1765
25955W        W32555  25.769   3.016   2.779  0.0240 -0.0154  0.0065
25956W        W32556   3.788   7.290  20.488  0.0628  0.3501  0.0352
25957W        W32557  22.276   3.346   6.222  0.3530 -0.0724  0.0245
25958W        W32558   1.184   6.578  10.559  0.3399  0.1452 -0.0250
25959W        W32559  27.654   3.944   0.552  0.3182 -0.2253  0.0711
25960W        W32560  23.073   2.744   7.834  0.2745 -0.0795 -0.0934
25961W        W32561  15.524   5.569  25.995  0.2293  0.0199  0.1340
25962W        W32562  20.715   4.600   4.823 -0.0954 -0.0491  0.0089
25963W        W32563   2.329   6.832  20.383  0.1301  0.3040 -0.1759
25964W        W32564  26.031   2.303  18.851  0.0176 -0.0840  0.1425
25965W        W32565   1.862   1.026  20.663  0.0861  0.0029  0.0543
25966W        W32566  21.145   2.367  25.477 -0.0815  0.0834  0.0545
25967W        W32567  28.813   7.626   1.569 -0.2561 -0.1145 -0.0128
25968W        W32568   6.564   7.037  19.193 -0.0907  0.3239 -0.2301
25969W        W32569  11.346   4.057   9.311  0.1530 -0.0340  0.0807
25970W        W32570   2.155   5.176  23.373  0.3216 -0.1368 -0.3150
25971W        W32571  26.257   5.936  21.185  0.1239  0.1592  0.1909
25972W        W32572  18.037   7.628   5.503  0.1150 -0.0809 -0.0285
25973W        W32573  19.324   1.897  22.011  0.3369  0.1357  0.3458
25974W        W32574   7.433   2.678   7.704 -0.3273  0.3835  0.2332
25975W        W32575   5.959   5.246  21.649 -0.2125  0.2169  0.0775
25976W        W32576   4.633   3.154   7.855  0.1158 -0.1704 -0.2636
25977W        W32577  10.430   1.399   4.992  0.1339 -0.1444  0.1727
25978W        W32578  13.078   1.087   9.703 -0.2117  0.0028  0.1399
25979W        W32579   1.916   6.400  24.059 -0.0699  0.3839  0.0961
25980W        W32580   7.541   1.072   1.190 -0.1028  0.2151 -0.1268
25981W        W32581   0.208   4.829   9.394  0.1693  0.0885  0.1791
25982W        W32582   3.996   5.500   1.242  0.0020  0.0259  0.2566
25983W        W32583  19.384   2.206  19.707  0.1826 -0.0810 -0.1844
25984W        W32584  28.832   6.664   6.868 -0.1959  0.0130 -0.0122
25985W        W32585   5.088   1.284   2.207  0.1620  0.1727  0.2616
25986W        W32586  29.957   2.046  19.004  0.3074  0.4296  0.0385
25987W        W32587  20.855   5.061  19.025 -0.2206  0.0365  0.2233
25988W        W32588  31.041   6.029   5.875  0.0008  0.0401  0.0095
25989W        W32589  30.769   7.748  10.092 -0.0764  0.3368 -0.0689
25990W        W32590   8.361   7.690   3.244  0.1913 -0.4447  0.2097
25991W        W32591  21.646   1.934  10.110 -0.1740  0.5944  0.1680
25992W        W32592  12.249   3.507  11.009 -0.0987 -0.1397 -0.2655
25993W        W32593  19.854   6.542   9.615  0.1600 -0.3183  0.1103
25994W        W32594  10.281   4.469  10.509 -0.1775  0.1288  0.0351
25995W        W32595  30.892   3.342  24.944 -0.2714  0.0889 -0.0422
25996W        W32596  29.555   5.190  20.851 -0.0390  0.1123 -0.0185
25997W        W32597  18.225   3.094  10.446 -0.1247 -0.1224  0.1131
25998W        W32598  12.927   0.955  23.269 -0.0615  0.3156  0.3133
25999W        W32599  19.693   2.970  17.121  0.1644 -0.1300 -0.1129
26000W        W32600  22.825   0.069  15.169  0.2490  0.0428 -0.1017
26001W        W32601   7.299   3.045  21.218 -0.1689  0.1947  0.0404
26002W        W32602  25.571   4.333  25.149 -0.0378 -0.0841 -0.1346
26003W        W32603  14.907   7.510  20.866 -0.1240 -0.0173 -0.1640
26004W        W32604  25.818   5.898   6.316  0.2162 -0.1193  0.1345
26005W        W32605  25.707   5.611  20.253 -0.2678  0.0586 -0.1576
26006W        W32606  29.567   6.124   7.423 -0.2604  0.1199 -0.2621
26007W        W32607   3.916   1.887   0.307  0.1114 -0.0152 -0.0780
26008W        W32608  31.038   0.761  22.140 -0.1255 -0.0570  0.0695
26009W        W32609  22.244   5.600  23.671  0.1232  0.0651  0.0279
26010W        W32610  19.298   1.794  17.282  0.1489  0.0597 -0.0852
26011W        W32611  19.060   2.562  19.738  0.1308  0.2202 -0.0058
26012W        W32612  19.116   1.773   4.627 -0.0424 -0.0953 -0.2706
26013W        W32613   4.078   1.907  22.593 -0.3173  0.3594  0.1491
26014W        W32614   9.422   1.624   4.560 -0.0357 -0.2323 -0.1680
26015W        W32615  19.377   2.692  15.896 -0.0806 -0.0489  0.1238
26016W        W32616  27.436   1.222  23.029  0.1240  0.0738  0.0440
26017W        W32617  26.538   5.253   5.683 -0.2332 -0.0134 -0.3081
26018W        W32618  15.610   0.896  25.682 -0.1238 -0.2411  0.1929
26019W        W32619  11.787   3.733  20.642  0.0467 -0.0932  0.0054
26020W        W32620  23.246   5.875  25.045  0.2432  0.0656 -0.2360
26021W        W32621  19.286   6.339  18.367  0.0602 -0.2803 -0.2056
26022W        W32622  15.504   7.551  20.397  0.0947  0.0793  0.0705
26023W        W32623  16.797   2.014  19.975  0.2456  0.0383  0.1907
26024W        W32624  28.901   5.863  16.555  0.0287  0.0074  0.1208
26025W        W32625  14.133   4.595  21.594  0.0484 -0.1149 -0.0686
26026W        W32626  26.346   4.867  20.244  0.0112  0.1724  0.0997
26027W        W32627   7.987   2.889  25.893 -0.0508  0.0929 -0.0219
26028W        W32628  28.748   4.131   1.177  0.0299 -0.0520 -0.0908
26029W        W32629  13.958   0.103  19.263  0.1532 -0.3327  0.3909
26030W        W32630  23.223   1.758  11.336 -0.1767  0.0683  0.1858
26031W        W32631  31.140   0.272   9.770 -0.0043  0.0719  0.1672
26032W        W32632  20.045   3.168  24.738  0.1934 -0.1132  0.0203
26033W        W32633  16.402   3.650  16.473  0.1962 -0.1670  0.0638
26034W        W32634  20.635   5.119   7.528  0.2142  0.1526 -0.0441
26035W        W32635  13.847   5.526   3.481 -0.2045 -0.4216 -0.1297
26036W        W32636  29.623   1.393  22.477  0.0999 -0.2861 -0.1500
26037W        W32637  16.948   2.320  20.874  0.3965  0.2381  0.0070
26038W        W32638  13.063   4.044   5.738  0.1651 -0.0645  0.0154
26039W        W32639   6.250   1.698  23.692  0.1464  0.1615 -0.1991
26040W        W32640   5.776   6.322  21.521 -0.1957 -0.0378 -0.0839
26041W        W32641  23.652   6.966   6.399  0.2402  0.0466 -0.1252
26042W        W32642  23.882   1.593  17.075  0.0235  0.1155  0.1827
26043W        W32643  19.708   2.207  15.295 -0.0129 -0.0383 -0.1594
26044W        W32644   6.468   3.658  26.142  0.3671  0.0578  0.1992
26045W        W32645  26.743   5.633   1.567  0.2490 -0.2124 -0.0679
26046W        W32646  22.617   0.616  14.834  0.2876 -0.0436  0.0836
26047W        W32647  20.303   3.035   5.012 -0.0120 -0.3848 -0.1454
26048W        W32648   8.918   4.478  18.989  0.1428 -0.0462 -0.2305
26049W        W32649  28.413   5.503  15.616  0.1218 -0.0194  0.2953
26050W        W32650  21.121   1.156  25.471 -0.4503 -0.1306 -0.2118
26051W        W32651  12.790   4.751  20.434  0.0762  0.1507  0.2455
26052W        W32652  26.758   4.488  18.844  0.0018 -0.1775 -0.0642
26053W        W32653   0.084   2.874   4.890  0.3781 -0.0147  0.0649
26054W        W32654  14.807   1.995  24.075 -0.1579 -0.0369  0.0205
26055W        W32655  20.814   7.311   7.683 -0.0824  0.2017 -0.2150
26056W        W32656  17.472   5.711  17.760 -0.1498 -0.0876  0.3224
26057W        W32657  16.084   1.013  24.767  0.3841  0.2625 -0.0328
26058W        W32658   1.622   6.759   7.113 -0.0196 -0.0115  0.0203
26059W        W32659  21.492   4.577  14.785 -0.0382 -0.2378 -0.1033
26060W        W32660   0.686   0.449   9.618 -0.1380  0.3638 -0.1228
26061W        W32661  15.323   7.217   4.717  0.0650  0.0256  0.3186
26062W        W32662  15.788   1.976  10.350  0.0864  0.1600 -0.2011
26063W        W32663  14.480   4.823   6.444 -0.0335 -0.1673 -0.1765
26064W        W32664   7.199   1.437  23.743  0.0296 -0.0003  0.1994
26065W        W32665  17.146   2.702   5.174 -0.0564 -0.0398 -0.1815
26066W        W32666  27.907   1.496  21.647 -0.1409 -0.1934  0.0497
26067W        W32667   8.604   2.622   7.588  0.0847 -0.1081 -0.0896
26068W        W32668  30.075   6.230  18.247 -0.0096 -0.0464  0.2115
26069W        W32669  15.803   6.355   2.576 -0.0477 -0.1387  0.1569
26070W        W32670   9.542   0.964  11.284  0.1116 -0.0602  0.2135
26071W        W32671  20.722   0.685   4.298  0.1768  0.0335 -0.2405
26072W        W32672  23.822   0.401  15.782  0.0906  0.2839  0.1784
26073W        W32673  25.473   2.281   7.512  0.2623 -0.0972 -0.2576
26074W        W32674  13.619   7.288  20.653  0.0722  0.5135 -0.1135
26075W        W32675  22.146   2.783  20.663  0.2224 -0.1447  0.3023
26076W        W32676   0.178   2.981  23.074 -0.0408  0.1662 -0.1186
26077W        W32677  23.175   0.651   5.057  0.0468  0.0564 -0.0886
26078W        W32678  30.723   4.306  20.654  0.0814  0.1207 -0.0497
26079W        W32679   5.501   3.698   7.524 -0.3462  0.1039 -0.0145
26080W        W32680  14.575   4.484   9.327  0.0507 -0.2406  0.1273
26081W        W32681   7.880   0.320   2.444  0.1331  0.2661 -0.1538
26082W        W32682  29.816   1.220   7.039 -0.1873 -0.2273  0.3211
26083W        W32683   6.988   4.366  19.922  0.0683 -0.1486  0.1046
26084W        W32684   4.308   5.266   8.040 -0.0379  0.0887 -0.1682
26085W        W32685  10.260   0.396   3.374 -0.1010  0.1222  0.0023
26086W        W32686   6.662   2.895   1.905  0.3505  0.2596 -0.0580
26087W        W32687  24.918   5.963   3.869 -0.0008  0.1915 -0.2613
26088W        W32688  29.724   2.841   0.953 -0.0512  0.0191 -0.0585
26089W        W32689   1.456   6.316  22.192  0.1465 -0.0119  0.3003
26090W        W32690  11.292   3.526  21.827  0.0712 -0.1837 -0.1303
26091W        W32691   6.559   2.197   9.459  0.2860 -0.2037 -0.0379
26092W        W32692  20.287   1.737  21.029  0.1850  0.2858 -0.0892
26093W        W32693  24.879   6.231   1.297  0.0208 -0.0523 -0.1128
26094W        W32694  24.475   7.242   3.193  0.2986  0.2836  0.1703
26095W        W32695  30.424   3.458  15.822  0.1410 -0.1428  0.0313
26096W        W32696   2.638   5.236  23.262 -0.1024 -0.0732  0.2826
26097W        W32697  15.995   6.450   8.363  0.0056  0.0776 -0.0086
26098W        W32698  27.144   6.640  22.345  0.0276  0.2781 -0.0105
26099W        W32699  17.899   4.697  25.254  0.0911  0.0760 -0.1370
26100W        W32700  21.658   4.479   6.664 -0.1169 -0.0313 -0.3233
26101W        W32701   5.379   4.169  22.008 -0.0708 -0.0822 -0.1278
26102W        W32702   2.328   5.926  10.084  0.0019 -0.3016  0.2731
26103W        W32703  18.628   0.146  19.499  0.3343 -0.3955  0.2561
26104W        W32704  10.823   5.175   6.766  0.2343  0.0594 -0.2735
26105W        W32705  13.663   5.665   2.431 -0.1900 -0.1201  0.0041
26106W        W32706   5.380   3.820   9.962 -0.2085  0.0647 -0.1689
26107W        W32707  24.916   1.108   7.675 -0.2826 -0.3223 -0.2818
26108W        W32708  15.905   0.370  16.201 -0.0730 -0.0215  0.1234
26109W        W32709  10.400   5.790  15.625 -0.0200 -0.2022  0.1691
26110W        W32710  26.981   4.294  22.961  0.0760  0.1931  0.4608
26111W        W32711  16.026   7.268  18.920 -0.0440 -0.0683  0.1043
26112W        W32712   1.425   7.646   3.727  0.0345 -0.2489  0.0493
26113W        W32713  26.514   1.949   6.538 -0.3192 -0.0683 -0.0263
26114W        W32714  26.464   7.647   5.928  0.0262  0.1340  0.0407
26115W        W32715   4.847   0.718  22.618  0.0638  0.0730  0.0335
26116W        W32716   7.733   2.482   9.938 -0.0172  0.0561  0.0213
26117W        W32717   0.906   4.999   4.283  0.0429 -0.3464  0.3336
26118W        W32718   8.663   4.640   9.021 -0.0203  0.0202 -0.0933
26119W        W32719   0.138   3.429   4.345 -0.0166  0.3481 -0.0146
26120W        W32720  30.090   5.027   2.070  0.1042 -0.1055 -0.0432
26121W        W32721  11.055   3.677   8.743 -0.0802 -0.1507  0.2872
26122W        W32722   1.129   1.827  19.847 -0.2308  0.0142 -0.2693
26123W        W32723   6.094   2.063  24.567  0.0646 -0.2012  0.2859
26124W        W32724   0.033   7.534   1.162  0.1887  0.0252 -0.0396
26125W        W32725  30.386   6.150  19.601 -0.3526 -0.0781  0.1045
26126W        W32726   5.471   1.539   4.761  0.1455 -0.0682  0.0231
26127W        W32727   8.094   5.653  16.428 -0.0974 -0.0172 -0.1276
26128W        W32728   9.273   1.875   2.796 -0.0968 -0.0657 -0.0111
26129W        W32729  14.768   4.852   6.031  0.0967 -0.0454 -0.1177
26130W        W32730  21.920   6.750  17.788  0.0541  0.2011 -0.3163
26131W        W32731  10.705   2.425  25.893  0.1349  0.0633 -0.1571
26132W        W32732   4.448   2.455  24.787  0.2121 -0.0110 -0.0717
26133W        W32733  25.663   6.790   1.951  0.3161 -0.4196  0.0390
26134W        W32734  18.590   3.040   6.408  0.1086 -0.3370  0.1294
26135W        W32735  27.511   0.047  22.413 -0.1440 -0.4683  0.1633
26136W        W32736  25.729   0.131   6.282  0.0614 -0.3396 -0.0103
26137W        W32737   9.017   2.671  19.937  0.4883  0.0556  0.0284
26138W        W32738   2.289   0.993  17.534  0.0940  0.1086 -0.1566
26139W        W32739  29.696   1.286  23.963  0.0161 -0.1940  0.0431
26140W        W32740   7.105   7.038  22.342 -0.1270  0.2012  0.1339
26141W        W32741  13.487   6.504  16.755  0.0981  0.0457 -0.1178
26142W        W32742   9.792   3.850  14.933  0.0392 -0.2836 -0.1521
26143W        W32743   4.299   3.183   9.673  0.1408  0.3978 -0.1079
26144W        W32744  14.959   2.894  19.108  0.0499 -0.0568  0.3857
26145W        W32745   0.422   1.491  21.836  0.1814  0.3264  0.0270
26146W        W32746   6.815   2.573   9.625  0.0902 -0.2744  0.1224
26147W        W32747  22.079   1.932   1.483  0.1184  0.1805 -0.0571
26148W        W32748  10.651   0.757   9.222  0.1789 -0.4500  0.1370
26149W        W32749   2.443   2.047   8.589  0.0054  0.0082  0.0761
26150W        W32750   9.750   4.253   4.217  0.0744  0.0732 -0.0883
26151W        W32751  10.328   5.219   1.323 -0.0887 -0.0461 -0.1374
26152W        W32752  21.667   2.265  22.336  0.0944  0.1770 -0.2476
26153W        W32753  24.958   6.520  25.202  0.0445 -0.1895  0.0549
26154W        W32754  30.037   4.198   2.653  0.0856 -0.0764  0.0634
26155W        W32755  31.246   3.446   3.902  0.1715  0.1179  0.0935
26156W        W32756  29.750   0.764  21.943 -0.0880  0.1457  0.3414
26157W        W32757  17.574   5.931  18.702 -0.1205 -0.0600  0.1593
26158W        W32758  26.544   1.259   3.915 -0.2485  0.0888  0.0360
26159W        W32759  14.376   2.212   4.205 -0.0992  0.1104 -0.0430
26160W        W32760  19.508   2.729   0.382 -0.0960  0.3228 -0.1345
26161W        W32761  29.622   5.410  19.516 -0.0292  0.3163  0.1287
26162W        W32762  13.039   2.071   4.084  0.1196 -0.1116 -0.0019
26163W        W32763  29.877   6.886  19.475 -0.3303  0.0048 -0.4323
26164W        W32764  11.282   1.826   3.373 -0.2550  0.2694 -0.0816
26165W        W32765   9.650   5.523   7.678  0.1608 -0.1302  0.0867
26166W        W32766  14.078   6.605  26.057  0.0279 -0.0175 -0.1366
26167W        W32767  18.732   3.902  16.414  0.0648  0.2941 -0.1040
26168W        W32768   5.291   3.947  23.716  0.3784  0.0796 -0.1253
26169W        W32769  15.231   3.451  17.938  0.0580  0.2381 -0.1325
26170W        W32770  28.567   6.785   5.060  0.0515 -0.2140  0.2943
26171W        W32771  15.153   2.474  22.550 -0.0025  0.1585  0.1570
26172W        W32772  21.272   0.835   2.863  0.2143 -0.0083 -0.3164
26173W        W32773  24.651   2.653  17.712 -0.1610 -0.3229 -0.0850
26174W        W32774  13.461   3.722   1.566  0.0384 -0.0589  0.1469
26175W        W32775  30.593   0.703   5.809  0.1685 -0.0051  0.1047
26176W        W32776  28.793   3.341   2.696 -0.3023 -0.0294 -0.1480
26177W        W32777   3.706   5.053   9.300 -0.1355 -0.2063  0.1513
26178W        W32778  31.081   0.646   9.370  0.0211  0.1171 -0.0703
26179W        W32779   8.796   1.680  19.922  0.0086 -0.0736 -0.0164
26180W        W32780  14.983   7.115   1.636  0.1465 -0.2421 -0.2798
26181W        W32781   5.492   3.503  19.843  0.1645  0.4705  0.2045
26182W        W32782   4.034   4.127  24.302  0.0173 -0.5559  0.2716
26183W        W32783  30.601   7.512  18.812  0.1192  0.1905  0.3041
26184W        W32784  24.254   6.391  22.601  0.1843 -0.1896  0.0081
26185W        W32785  28.407   3.986  17.728 -0.0164 -0.2727  0.1754
26186W        W32786  25.139   5.994  16.196 -0.0567 -0.0384  0.3555
26187W        W32787  27.512   4.106   4.976  0.1573 -0.4395  0.4269
26188W        W32788  30.441   5.217  18.274 -0.3470 -0.1600  0.0383
26189W        W32789   0.293   2.778   6.609  0.0401  0.1452 -0.2098
26190W        W32790   8.925   7.413  19.662  0.1403  0.2225  0.0050
26191W        W32791   0.406   4.502   0.046  0.1282 -0.0155 -0.1832
26192W        W32792   8.221   4.281   1.920  0.1505  0.3390 -0.0033
26193W        W32793   2.262   3.871  26.168  0.1500  0.1017  0.0779
26194W        W32794   8.157   7.466  20.682  0.0508  0.1057  0.2532
26195W        W32795  23.902   1.974   3.316  0.2908  0.1814 -0.0561
26196W        W32796  12.173   4.205   7.858  0.2452  0.2670 -0.3002
26197W        W32797   4.772   4.401   5.929 -0.0129  0.2881  0.1190
26198W        W32798  30.972   6.923  20.072 -0.1126 -0.1473 -0.2859
26199W        W32799  26.405   5.424  20.803 -0.2399 -0.0826  0.1293
26200W        W32800   2.247   4.361  11.281 -0.1119 -0.0073  0.0078
26201W        W32801  29.809   2.134  16.264 -0.4826  0.0915 -0.1586
26202W        W32802  14.247   5.814   8.478  0.1409 -0.2072 -0.2863
26203W        W32803   1.266   4.341   7.522 -0.0288 -0.4112  0.3483
26204W        W32804  24.919   2.423  20.008 -0.0657  0.1712  0.3463
26205W        W32805   3.599   7.776  22.881 -0.1284  0.0464 -0.0638
26206W        W32806  10.597   4.878   3.286  0.1540  0.1396  0.0154
26207W        W32807  31.095   3.322  23.867  0.1084  0.2274 -0.0281
26208W        W32808  13.189   5.049   2.615 -0.1155  0.1621  0.0043
26209W        W32809   8.636   4.300   4.416 -0.0683 -0.1089  0.0478
26210W        W32810  25.475   1.200  17.620 -0.1625  0.2622  0.0438
26211W        W32811   4.502   5.477  25.519 -0.0577  0.1133 -0.0466
26212W        W32812  18.777   0.833  22.121 -0.1541  0.2229 -0.5933
26213W        W32813   7.017   4.323   8.944  0.0341  0.0855  0.1297
26214W        W32814  10.288   1.471  20.000 -0.4279 -0.1440 -0.0285
26215W        W32815  14.753   7.469  10.821  0.2629 -0.1629  0.3665
26216W        W32816  31.303   5.719   3.286  0.2102 -0.0092  0.1563
26217W        W32817   7.857   6.333   7.621 -0.2861  0.1227  0.0729
26218W        W32818  15.482   0.011  25.348 -0.1390 -0.0948 -0.0488
26219W        W32819   3.633   4.746  26.044 -0.0700 -0.0858  0.1011
26220W        W32820  27.672   5.672   8.089 -0.1794  0.0728 -0.0080
26221W        W32821  17.800   4.848   7.148 -0.1046 -0.0057 -0.1008
26222W        W32822  17.450   6.436  10.446  0.1685 -0.1185  0.0424
26223W        W32823  26.851   1.018   5.016  0.0594 -0.0708 -0.4443
26224W        W32824   1.788   4.187   4.498 -0.0606  0.2752 -0.1183
26225W        W32825   4.273   7.201   9.548 -0.0756 -0.0143  0.1793
26226W        W32826  10.041   2.097  17.613 -0.0662  0.2455  0.2291
26227W        W32827  28.940   2.185  19.397 -0.0901  0.0392  0.1324
26228W        W32828   4.190   6.942   0.423  0.0569  0.2571  0.1250
26229W        W32829   3.755   2.867  16.650 -0.2677 -0.0784 -0.0875
26230W        W32830   1.199   7.061  18.338  0.2430 -0.1130  0.1045
26231W        W32831  30.333   2.466  23.636  0.1239  0.0678 -0.0086
26232W        W32832   0.301   6.221  19.249 -0.0716 -0.1335  0.3676
26233W        W32833   5.045   7.273   9.339 -0.1795 -0.1531 -0.0673
26234W        W32834  16.009   5.197  15.639  0.4453 -0.1188  0.1627
26235W        W32835  14.452   3.481   3.150  0.0279 -0.0735 -0.0879
26236W        W32836   0.552   1.273  22.399 -0.3029  0.1396 -0.0170
26237W        W32837  29.532   2.887   9.515  0.1825  0.0317 -0.3003
26238W        W32838  27.739   4.481  18.636  0.0181 -0.1707 -0.1129
26239W        W32839  10.890   2.240  23.039 -0.1094  0.0739  0.2530
26240W        W32840   3.634   7.794  25.022 -0.1423  0.0077  0.0653
26241W        W32841  24.060   1.811  23.698 -0.1439 -0.2668 -0.2461
26242W        W32842   4.179   4.813  18.107  0.1132 -0.1485 -0.0346
26243W        W32843  11.480   4.071   6.567 -0.1006  0.2292 -0.0318
26244W        W32844   0.485   4.999  23.229 -0.0683  0.3177  0.3523
26245W        W32845  17.710   1.571  16.058 -0.0775  0.0331 -0.3463
26246W        W32846   8.681   4.478  20.337 -0.0636  0.2248  0.2295
26247W        W32847  10.287   7.115   4.223 -0.2484  0.0648 -0.0117
26248W        W32848  23.819   1.294   6.677 -0.0882  0.0069  0.0955
26249W        W32849  18.755   2.755  18.139 -0.0583 -0.1358  0.0374
26250W        W32850  10.062   7.089   5.811 -0.0737  0.0444  0.1737
26251W        W32851  15.824   4.159   3.270  0.1532 -0.2062 -0.1182
26252W        W32852  13.482   1.384   6.410 -0.0302  0.0146 -0.0522
26253W        W32853   2.219   7.155   9.801  0.1225 -0.1789 -0.2694
26254W        W32854  30.618   2.291   3.666 -0.3263  0.0335  0.0491
26255W        W32855   2.699   6.582   6.533 -0.0943 -0.0567 -0.0522
26256W        W32856   6.668   0.593  22.751 -0.4519 -0.2418 -0.0624
26257W        W32857   8.195   1.184  11.151  0.1202 -0.2660  0.0511
26258W        W32858   0.130   5.353  11.150 -0.2536  0.2500 -0.0227
26259W        W32859  18.007   2.984  17.406  0.1951 -0.0989  0.2485
26260W        W32860  15.435   0.392   9.078 -0.1081 -0.0630 -0.5737
26261W        W32861  10.130   3.298  24.460 -0.2486 -0.0783  0.2815
26262W        W32862   8.987   4.038   3.179  0.0256  0.2561 -0.1538
26263W        W32863  18.364   1.185  15.745 -0.0531 -0.3038 -0.3878
26264W        W32864   4.118   2.622  24.394  0.2971  0.3255 -0.0231
26265W        W32865  29.960   1.371  19.002 -0.2332 -0.0052 -0.1894
26266W        W32866  25.976   5.874   5.786  0.0170 -0.2728  0.0640
26267W        W32867   3.659   1.149   0.138  0.3235 -0.2888 -0.0720
26268W        W32868  15.887   5.228  23.711  0.0738 -0.3977 -0.0582
26269W        W32869  29.226   1.671  25.620  0.0887 -0.3052  0.3545
26270W        W32870   8.621   0.529   4.558 -0.0874 -0.1754 -0.1635
26271W        W32871  27.641   4.030  11.730  0.1480  0.1280 -0.0671
26272W        W32872  25.986   5.892  23.615 -0.1739  0.1519 -0.1617
26273W        W32873   0.756   4.923  17.497 -0.0946 -0.0755 -0.0157
26274W        W32874  28.604   2.457  25.072  0.0068 -0.0503  0.0505
26275W        W32875  25.672   6.981   6.070 -0.2018  0.0748  0.1460
26276W        W32876   7.849   7.042   6.102 -0.0158 -0.1324 -0.4139
26277W        W32877  23.669   7.716  15.568 -0.0108 -0.1784 -0.0295
26278W        W32878   9.575   5.037   0.008  0.1382 -0.1745 -0.0876
26279W        W32879   3.042   7.486  18.959 -0.0885  0.1305  0.1239
26280W        W32880   8.224   2.454   5.356  0.0893  0.3210  0.1433
26281W        W32881  29.593   2.861  21.359  0.1649  0.2942  0.0444
26282W        W32882  26.621   4.343  17.238 -0.2349  0.1624 -0.1016
26283W        W32883  15.853   0.696  10.341  0.0802  0.0568  0.2295
26284W        W32884   1.693   4.323   0.644  0.2587  0.2827  0.1538
26285W        W32885  11.979   1.680   0.489  0.1464 -0.0507 -0.0457
26286W        W32886  17.437   7.253  10.924 -0.1575 -0.2336  0.0631
26287W        W32887  24.562   6.214  24.849  0.1027 -0.3847  0.0765
26288W        W32888  31.029   0.423   2.647  0.0398 -0.0257 -0.2369
26289W        W32889  25.318   7.295  25.276  0.0450 -0.0952  0.3650
26290W        W32890  14.951   1.941   7.365 -0.0037  0.0299  0.1467
26291W        W32891  17.033   2.839  24.467  0.4496  0.2867 -0.0580
26292W        W32892  31.115   4.219   3.408  0.0507 -0.2476 -0.0632
26293W        W32893  30.397   4.507   9.746 -0.1379  0.0240  0.1175
26294W        W32894   7.231   2.460  22.708 -0.1213 -0.1144  0.1625
26295W        W32895  30.085   2.570   4.358 -0.2086 -0.1601 -0.0384
26296W        W32896   7.761   0.901   0.451  0.1623 -0.1413  0.0544
26297W        W32897   9.703   2.698  17.724 -0.4503 -0.1190 -0.2521
26298W        W32898  15.248   6.629   1.395  0.1857  0.3187  0.3061
26299W        W32899  21.632   3.326  17.336  0.0366  0.0582  0.1538
26300W        W32900  29.697   5.588  24.987 -0.0702 -0.0347 -0.0575
26301W        W32901   8.408   2.967   4.046  0.0729 -0.0928  0.0896
26302W        W32902   7.831   7.064  24.732  0.3708 -0.0419 -0.0256
26303W        W32903  28.315   1.197   3.051 -0.2442  0.2759  0.1462
26304W        W32904   2.084   4.079  21.344  0.1698 -0.1214 -0.2312
26305W        W32905   8.852   7.320  23.783 -0.0265 -0.0551  0.2175
26306W        W32906  23.178   1.676  10.133  0.3139 -0.3977  0.0943
26307W        W32907  30.786   2.842  19.600 -0.2191  0.0555  0.3894
26308W        W32908  23.909   0.653   3.125  0.2690 -0.0305  0.1624
26309W        W32909  30.336   0.304  17.809  0.0860  0.1586  0.0522
26310W        W32910   6.918   2.630  16.087  0.2136 -0.3068 -0.2649
26311W        W32911  27.652   0.208   8.957 -0.2095 -0.0991 -0.0748
26312W        W32912   8.775   2.853   4.410  0.1813 -0.3473 -0.0297
26313W        W32913   2.373   6.099  18.113  0.0168 -0.0975  0.0522
26314W        W32914   3.739   1.177   6.387  0.0811 -0.3737  0.3063
26315W        W32915  23.598   2.440  16.588 -0.1475 -0.1599 -0.3070
26316W        W32916  27.792   5.501   9.362 -0.0963 -0.0702 -0.0677
26317W        W32917   6.031   2.323   0.249 -0.0725 -0.0303  0.2098
26318W        W32918   5.966   2.240  20.963 -0.0903 -0.1899  0.2344
26319W        W32919   7.739   6.312   4.188 -0.2325  0.2061 -0.2012
26320W        W32920  30.275   2.070   1.322  0.2001 -0.1541  0.1089
26321W        W32921  30.803   1.481   0.462 -0.0389  0.1112  0.1199
26322W        W32922  30.857   4.139  17.218 -0.0072 -0.0737  0.3743
26323W        W32923   5.540   0.308   9.195  0.0246 -0.2459  0.1920
26324W        W32924   2.042   5.923   1.308 -0.2559  0.0181 -0.0045
26325W        W32925  29.848   3.311  17.088  0.2209  0.1761 -0.5585
26326W        W32926  24.384   5.793  21.347  0.0495 -0.0892  0.2601
26327W        W32927   0.422   3.713   4.696 -0.3213  0.2305 -0.0130
26328W        W32928  24.188   0.194   3.139 -0.3834 -0.0416 -0.1239
26329W        W32929  16.598   4.591  21.323 -0.0506 -0.2493 -0.1980
26330W        W32930  20.621   5.658   9.731 -0.0941  0.0439  0.1580
26331W        W32931  18.129   2.164  10.589 -0.0277  0.1104  0.2193
26332W        W32932  24.267   5.046   5.458 -0.0684  0.0779  0.0258
26333W        W32933  26.623   4.721  24.504 -0.0937  0.3942 -0.0719
26334W        W32934  10.524   5.720   0.826  0.0244  0.1812 -0.6313
26335W        W32935   6.083   7.504   1.436  0.1375 -0.0598  0.0549
26336W        W32936  19.513   3.229   4.001 -0.1275  0.0551 -0.3321
26337W        W32937   3.131   2.457  18.368  0.4088 -0.0884 -0.0815
26338W        W32938  15.495   2.972  15.908  0.0715 -0.1256 -0.0376
26339W        W32939  12.618   0.323   0.300 -0.1159  0.0371 -0.0145
26340W        W32940  11.308   7.356   1.000 -0.0362  0.1113  0.2279
26341W        W32941   5.420   7.609  22.816 -0.0015 -0.3053 -0.3190
26342W        W32942  26.167   3.398  19.015 -0.0576 -0.0370 -0.0159
26343W        W32943   0.027   3.703  18.497 -0.0544  0.0903 -0.0453
26344W        W32944  28.466   2.459   3.748 -0.0030  0.0675 -0.1070
26345W        W32945   7.366   3.588  15.227  0.2107 -0.3675  0.1366
26346W        W32946  24.105   6.401   8.576  0.0826  0.1679 -0.3753
26347W        W32947   6.974   4.815   7.872 -0.1234 -0.0034  0.0013
26348W        W32948  11.446   7.540  17.843  0.0603 -0.3407 -0.5358
26349W        W32949  21.041   4.580  25.749  0.0416 -0.4202 -0.2269
26350W        W32950   6.970   0.791   4.986  0.0208  0.2771 -0.0213
26351W        W32951  17.001   0.659   1.196 -0.0121 -0.1713  0.1188
26352W        W32952  16.396   7.161   6.384  0.2288 -0.1590  0.0549
26353W        W32953  23.080   7.074  16.423 -0.0840 -0.2759 -0.1584
26354W        W32954  26.146   4.501  20.818 -0.1503 -0.0676 -0.2025
26355W        W32955  26.697   5.634   3.511  0.1169 -0.4133 -0.0408
26356W        W32956  15.337   5.568   4.447 -0.3242  0.1049  0.0407
26357W        W32957  10.518   6.041  10.792 -0.3720  0.0361 -0.1468
26358W        W32958  25.096   6.255   2.150 -0.2085  0.0174 -0.0274
26359W        W32959  24.474   7.507  25.021  0.1780  0.0542  0.0503
26360W        W32960   0.566   7.439  17.144 -0.1667  0.0176 -0.3347
26361W        W32961  14.842   1.899   4.291 -0.1162 -0.2533 -0.2957
26362W        W32962  22.087   5.431   1.430  0.1705  0.1909 -0.1902
26363W        W32963  25.820   1.332   0.248  0.1599 -0.1555  0.2302
26364W        W32964  22.045   4.279   9.220 -0.1151  0.4255 -0.0798
26365W        W32965  17.604   0.629  21.471 -0.1488 -0.1652  0.3049
26366W        W32966   9.588   3.732   6.837 -0.1107 -0.0354  0.0811
26367W        W32967  14.084   1.312  24.132 -0.2931  0.2594  0.0125
26368W        W32968   0.790   6.118   8.843  0.2703  0.0344  0.1123
26369W        W32969   6.369   0.555   8.014  0.3163 -0.2734  0.0555
26370W        W32970  19.436   3.528  21.494 -0.0434  0.1398  0.1450
26371W        W32971  26.421   1.239  22.718 -0.2127  0.2549 -0.0936
26372W        W32972  27.760   1.611   9.974  0.1389 -0.2606  0.0015
26373W        W32973  17.307   3.417  14.623 -0.0749  0.1048  0.1920
26374W        W32974  24.604   5.955   0.372 -0.0869 -0.0412  0.1099
26375W        W32975  15.226   5.083   5.189  0.1028 -0.0749 -0.1382
26376W        W32976  15.425   5.387   2.520 -0.0625  0.1319  0.1870
26377W        W32977  18.741   0.651   7.182  0.1598 -0.2758 -0.1937
26378W        W32978  28.586   6.123  17.525  0.1167 -0.2504 -0.1302
26379W        W32979   2.261   2.182  20.594  0.0521  0.4693  0.1621
26380W        W32980  10.764   1.417  10.101 -0.3523  0.0714 -0.3674
26381W        W32981  26.546   0.291   9.143 -0.1446  0.2613 -0.2295
26382W        W32982   9.204   3.975  23.848 -0.1168 -0.0322 -0.1513
26383W        W32983  28.607   7.689   7.118 -0.0138 -0.0799 -0.1093
26384W        W32984  19.160   4.167  25.836  0.1352 -0.0140  0.1071
26385W        W32985  29.895   1.960   5.808  0.0984 -0.1495 -0.3302
26386W        W32986  18.371   0.571   7.535  0.0474  0.0273  0.1434
26387W        W32987  29.409   6.517   9.326 -0.2667 -0.1464  0.0746
26388W        W32988  22.678   7.616  18.235 -0.2681  0.0958  0.3161
26389W        W32989   6.175   1.682  19.080 -0.0826 -0.0268 -0.2456
26390W        W32990  13.476   5.626  18.311  0.0673  0.0967 -0.0837
26391W        W32991  28.709   5.947   8.956  0.1010 -0.0154 -0.3052
26392W        W32992   9.890   2.905  23.087  0.0393 -0.0045  0.2606
26393W        W32993   9.872   2.997   8.585  0.0278  0.0747  0.1947
26394W        W32994   3.914   2.726  21.859  0.0637  0.0975 -0.2119
26395W        W32995  18.801   3.687  19.302 -0.0064 -0.0980  0.0746
26396W        W32996  18.204   7.419  18.782 -0.1350  0.1690 -0.1691
26397W        W32997  23.241   3.752  15.700  0.1187  0.2076  0.0178
26398W        W32998   8.490   3.316   9.288 -0.1072  0.1033  0.2679
26399W        W32999  15.117   3.785  21.890 -0.0955  0.1715  0.0639
26400W        W33000  15.670   7.731  21.204  0.3413  0.0047 -0.1578
26401W        W33001  22.240   4.325  21.593  0.4104 -0.2478  0.1291
26402W        W33002   4.552   4.496  23.961 -0.2489  0.0202 -0.2555
26403W        W33003  10.786   6.999  20.783  0.0192 -0.1255  0.0903
26404W        W33004   1.417   1.311  22.265  0.0941 -0.1246  0.1823
26405W        W33005  16.107   1.335   9.792  0.1265  0.1349 -0.1790
26406W        W33006  26.651   0.599  25.442  0.0526 -0.1637 -0.1128
26407W        W33007  27.658   0.995  20.208 -0.2841 -0.2741 -0.0395
26408W        W33008  20.660   0.467  22.777  0.2366 -0.1236 -0.0656
26409W        W33009  25.171   3.490   5.848  0.0692 -0.2403  0.0941
26410W        W33010   9.332   2.797  10.670  0.1440  0.1426  0.0604
26411W        W33011  11.593   7.256   0.530 -0.1838  0.0354  0.0019
26412W        W33012  10.381   2.266  19.955  0.0722  0.0084  0.0252
26413W        W33013  18.683   4.854   8.211  0.0402  0.0426  0.1670
26414W        W33014   5.750   7.654  23.763 -0.0254 -0.1203 -0.1494
26415W        W33015   7.622   2.522   4.920  0.2301  0.2793  0.2276
26416W        W33016  18.946   5.088  16.748 -0.0561 -0.0667 -0.3147
26417W        W33017  29.593   0.179   4.573 -0.0158 -0.0491 -0.0999
26418W        W33018   6.999   6.878   7.164  0.1182  0.0658  0.0419
26419W        W33019   1.044   3.176   7.489 -0.0553 -0.0023  0.1403
26420W        W33020  11.498   4.277  17.175 -0.0240 -0.0280  0.2795
26421W        W33021   3.754   7.723   3.823 -0.4519  0.1755  0.1133
26422W        W33022  27.298   5.085  25.080 -0.1460 -0.4640 -0.0231
26423W        W33023  13.465   1.937  20.548 -0.2521 -0.0909 -0.0916
26424W        W33024   4.276   2.591  20.455 -0.1952 -0.0228 -0.1938
26425W        W33025  12.272   7.319   9.208  0.1422 -0.0493 -0.1504
26426W        W33026  23.354   1.053   0.384  0.1253 -0.0367 -0.0383
26427W        W33027  27.916   0.014   2.741 -0.0182  0.2790  0.1378
26428W        W33028  14.502   7.520  20.508  0.1144 -0.2328 -0.0144
26429W        W33029  26.099   2.310   1.296 -0.0577 -0.1118 -0.4462
26430W        W33030   3.578   5.648   8.473 -0.2343 -0.2818  0.0699
26431W        W33031  23.867   1.300   3.932  0.0034  0.0165 -0.0687
26432W        W33032  25.437   1.354  25.380  0.1455  0.0997  0.0557
26433W        W33033  22.386   4.777  20.374 -0.3788 -0.0326  0.0398
26434W        W33034  28.484   3.534   6.050 -0.0778 -0.1180  0.0702
26435W        W33035   2.870   7.046  18.222 -0.0936 -0.0361 -0.0076
26436W        W33036  16.802   7.047  21.870 -0.0176  0.1853  0.0121
26437W        W33037  28.710   5.235  21.939  0.1473 -0.0457  0.1089
26438W        W33038  11.283   5.483   1.561  0.0430  0.2322 -0.1379
26439W        W33039  16.825   7.017   0.790  0.3301 -0.1332  0.1918
26440W        W33040  26.826   4.970  21.591  0.0635  0.1571  0.0395
26441W        W33041  16.240   4.626  20.873 -0.2281 -0.3311 -0.0170
26442W        W33042  30.265   5.142   0.695  0.2188 -0.3275 -0.1867
26443W        W33043   6.685   2.020   1.869 -0.0128 -0.0637 -0.0003
26444W        W33044   7.822   2.911  24.000  0.3952 -0.1527  0.1410
26445W        W33045  16.125   4.450  22.405 -0.0645 -0.1548 -0.3206
26446W        W33046  26.673   3.159  24.971 -0.3091  0.1900 -0.0783
26447W        W33047   4.503   6.736  18.350  0.3376  0.2826  0.0861
26448W        W33048  28.784   5.881  20.146  0.3197 -0.0550 -0.1293
26449W        W33049  11.576   5.674  10.276  0.3336 -0.1275 -0.2861
26450W        W33050  10.109   0.420   8.355  0.1059  0.0420  0.0624
26451W        W33051  23.084   2.022  14.759  0.1016 -0.2969 -0.4456
26452W        W33052   6.745   1.002  23.829  0.1585  0.2706  0.1445
26453W        W33053  28.965   3.548   0.476 -0.2588 -0.0519 -0.0705
26454W        W33054   0.548   4.199  18.127 -0.0549 -0.0426  0.1070
26455W        W33055  18.120   5.440  23.260  0.2813 -0.1875  0.0706
26456W        W33056  14.287   5.822  21.115 -0.0222  0.1240  0.0426
26457W        W33057   5.755   2.775   4.659  0.2143 -0.0097 -0.0050
26458W        W33058  11.051   0.228  21.581 -0.0721 -0.0800  0.0869
26459W        W33059  25.116   3.885  23.331  0.0132 -0.1431 -0.1034
26460W        W33060  11.139   7.820  22.754 -0.0123  0.0431 -0.0827
26461W        W33061   6.003   5.905   2.618 -0.2783  0.1406  0.2020
26462W        W33062  29.865   1.784   2.510  0.2075  0.0345  0.2233
26463W        W33063  25.833   0.874   9.518 -0.5651 -0.1457  0.0402
26464W        W33064  26.344   3.375  17.136 -0.0232  0.3591 -0.1307
26465W        W33065  14.014   6.820  19.430  0.2594  0.0496  0.1240
26466W        W33066  24.710   1.967  19.957 -0.3114 -0.0006  0.2296
26467W        W33067   5.728   6.058  16.512 -0.1612 -0.1063 -0.0879
26468W        W33068  12.269   3.667  24.975  0.2343 -0.1218 -0.3148
26469W        W33069  25.098   0.338  26.154  0.0675  0.0879 -0.2182
26470W        W33070  27.539   6.115  20.196  0.2801  0.0710  0.1694
26471W        W33071   8.239   6.530  21.178 -0.1698  0.0008  0.4066
26472W        W33072  22.344   4.544   8.322 -0.0791  0.1799  0.0313
26473W        W33073   7.391   4.973  16.078  0.0959  0.2372 -0.1205
26474W        W33074  19.676   5.215   3.238  0.0015  0.1163  0.1517
26475W        W33075   8.000   4.753  25.821 -0.0972 -0.2814 -0.0153
26476W        W33076   9.716   6.439  20.443 -0.0603 -0.0076  0.1103
26477W        W33077  17.098   5.198  19.247  0.0299  0.1094 -0.0671
26478W        W33078   6.450   5.289   1.813  0.0212 -0.1056  0.2695
26479W        W33079  13.530   6.078  19.010 -0.0654 -0.1150 -0.1993
26480W        W33080  27.886   4.019   7.557 -0.1162 -0.1940  0.1651
26481W        W33081   0.814   1.771   9.811  0.0475 -0.0692  0.1522
26482W        W33082   1.686   4.713   7.890 -0.0406  0.0681  0.2877
26483W        W33083  18.918   2.626  17.695 -0.2900  0.0256  0.1740
26484W        W33084   7.478   6.686  17.055  0.0476 -0.0243  0.0764
26485W        W33085  10.330   2.582  20.565 -0.0141 -0.1042  0.0792
26486W        W33086  12.461   4.788   0.321 -0.3474 -0.3517 -0.2606
26487W        W33087  17.174   4.686  18.146 -0.1027  0.0505  0.2179
26488W        W33088   8.728   6.360   9.677 -0.0520  0.2912 -0.1083
26489W        W33089  13.279   4.532  20.358  0.1789  0.0570 -0.0889
26490W        W33090   2.773   5.816  16.944 -0.1425 -0.2593 -0.0129
26491W        W33091   5.868   4.844  10.364 -0.1144  0.2488 -0.0518
26492W        W33092  25.723   2.438   1.984  0.3522  0.1324  0.0100
26493W        W33093   5.065   1.340  24.292  0.0374 -0.0720  0.0259
26494W        W33094  24.709   1.262  20.616  0.2800 -0.0060 -0.1458
26495W        W33095  12.008   6.755   6.508  0.2044  0.2047  0.0714
26496W        W33096   1.940   1.392  22.112 -0.3589 -0.1712 -0.0551
26497W        W33097  27.088   1.415   2.653  0.3157 -0.0832  0.1535
26498W        W33098   2.096   3.450   1.672  0.1822 -0.0515 -0.1402
26499W        W33099   9.047   1.357  15.562  0.1183 -0.1430  0.1002
26500W        W33100  26.560   6.645  14.887 -0.1009  0.2666  0.0524
26501W        W33101  26.937   5.920   7.482  0.1148 -0.0889  0.0086
26502W        W33102  15.162   4.133  22.815  0.2234  0.1933  0.1036
26503W        W33103  10.452   2.137  22.868 -0.1871 -0.3912 -0.0512
26504W        W33104  29.769   2.821  23.777 -0.1960 -0.1427 -0.2050
26505W        W33105   2.551   4.608  22.623  0.1932 -0.1961 -0.0881
26506W        W33106  29.282   7.668   6.082 -0.0639  0.2077  0.2098
26507W        W33107  15.006   6.494   7.895 -0.0887 -0.2032 -0.3735
26508W        W33108   8.619   6.109  17.047  0.1236 -0.1533  0.2010
26509W        W33109  10.114   0.670   5.592 -0.0392  0.1513  0.1727
26510W        W33110  21.035   6.320  19.464 -0.1139 -0.0707 -0.1274
26511W        W33111  11.625   6.283  22.738 -0.2449 -0.0666  0.0105
26512W        W33112   3.750   3.824  23.505 -0.0671 -0.0130 -0.0945
26513W        W33113  14.263   3.595   1.326 -0.0501  0.1787  0.1646
26514W        W33114  16.796   3.897   4.263  0.2597  0.1976 -0.1089
26515W        W33115  30.342   4.143   7.485  0.0203  0.0796 -0.0787
26516W        W33116   1.057   7.419  18.700  0.0292 -0.1089 -0.2386
26517W        W33117  12.369   1.207   3.297 -0.1432  0.0216 -0.1171
26518W        W33118   9.663   1.016   2.964 -0.0615  0.1114 -0.0687
26519W        W33119  19.006   6.133  23.883  0.0447  0.1779  0.1327
26520W        W33120  26.334   0.276   3.353  0.0645  0.0719  0.2808
26521W        W33121  15.055   7.110   9.491 -0.0807  0.1498  0.0839
26522W        W33122  11.937   7.207   4.871 -0.3203  0.1710  0.0311
26523W        W33123  30.570   4.806  15.799  0.0784 -0.0805  0.1202
26524W        W33124   4.036   7.785   2.376 -0.1982  0.0846 -0.0542
26525W        W33125  28.903   0.949  20.571 -0.1028 -0.0660  0.1197
26526W        W33126  29.212   0.373  25.131 -0.2352  0.0526  0.0461
26527W        W33127   4.956   3.808  19.981  0.1065  0.0861 -0.4122
26528W        W33128  14.863   7.281  17.772 -0.0766 -0.2815 -0.0099
26529W        W33129   8.940   5.774  24.704  0.0555  0.5219  0.0340
26530W        W33130  15.581   5.327  22.594 -0.0698 -0.2037  0.2070
26531W        W33131   1.862   1.835   7.613 -0.0596  0.0449  0.0060
26532W        W33132  18.638   2.574  18.769 -0.1382  0.0356 -0.2825
26533W        W33133  22.457   5.047  21.297 -0.0042 -0.2756 -0.0873
26534W        W33134  14.281   2.091  22.630  0.2736  0.0989  0.1324
26535W        W33135  22.464   7.017  17.022 -0.0178 -0.0973 -0.0699
26536W        W33136  26.158   3.189   6.474  0.0671  0.1934  0.1096
26537W        W33137   2.886   0.389  22.501  0.1240 -0.1237 -0.2714
26538W        W33138  27.320   4.897  22.209 -0.3346 -0.0228 -0.0233
26539W        W33139   4.946   6.701   4.792 -0.2923 -0.3690 -0.0922
26540W        W33140  20.264   1.144  21.111  0.1365 -0.1654  0.0223
26541W        W33141   0.936   7.399   3.558 -0.0812 -0.0126 -0.0456
26542W        W33142  24.592   0.057   7.586  0.1053 -0.2082 -0.1960
26543W        W33143  12.346   6.005   9.128  0.3037 -0.0560  0.4120
26544W        W33144  10.876   6.381   9.466  0.1363  0.0574 -0.2153
26545W        W33145   2.713   2.121   7.399  0.0700 -0.0099  0.0197
26546W        W33146  25.388   1.732   2.092 -0.0820 -0.1126 -0.2286
26547W        W33147  14.382   5.406  24.718 -0.2072  0.2593 -0.2270
26548W        W33148  29.151   4.912  17.443  0.0707  0.1003 -0.1355
26549W        W33149  10.348   7.255  19.319 -0.1227  0.2161 -0.0136
26550W        W33150   3.956   2.209   4.098  0.1065 -0.1665  0.0389
26551W        W33151   0.503   7.635  24.311 -0.1821 -0.1141 -0.2152
26552W        W33152   1.701   0.356  24.998 -0.0052  0.3784 -0.0713
26553W        W33153   5.086   6.964  18.489 -0.0103  0.2915  0.0094
26554W        W33154  24.354   7.498   9.775 -0.1729 -0.0225  0.3626
26555W        W33155  18.930   2.026  15.258 -0.2607  0.2732 -0.1086
26556W        W33156   2.026   2.101  18.284  0.1041 -0.0218  0.0230
26557W        W33157   3.593   2.922  18.082 -0.1895  0.0195  0.1065
26558W        W33158  26.602   2.035  19.690 -0.0099  0.1694  0.0391
26559W        W33159   1.645   5.393   9.723  0.0187  0.0054 -0.1265
26560W        W33160  11.953   1.243  23.561  0.1484 -0.3190 -0.2364
26561W        W33161   3.679   5.075  17.347  0.0400  0.2164 -0.0747
26562W        W33162  27.158   6.179   3.739  0.0823 -0.4420  0.1816
26563W        W33163  16.989   1.544   1.354  0.1669 -0.1480 -0.2334
26564W        W33164   7.234   1.917  22.496  0.1853  0.2317 -0.1466
26565W        W33165  11.039   6.096  20.433 -0.2788 -0.0307 -0.1816
26566W        W33166   9.528   3.738  20.959 -0.0534  0.0063  0.0143
26567W        W33167  18.407   2.305   7.527  0.0654 -0.0858  0.0070
26568W        W33168  30.011   2.170   4.901 -0.1196  0.0574  0.1512
26569W        W33169   4.400   2.057   5.948  0.2105 -0.0897 -0.0330
26570W        W33170  24.403   7.644  25.518 -0.2968  0.0783 -0.1001
26571W        W33171  25.161   2.164   4.047  0.1288  0.0022  0.1774
26572W        W33172  15.260   2.856  25.970  0.1656 -0.0263  0.1327
26573W        W33173   1.838   6.843   2.182 -0.3213 -0.2055 -0.1029
26574W        W33174  28.240   4.139  16.279 -0.0023  0.0298 -0.0347
26575W        W33175  30.293   6.582   9.005  0.2472 -0.2114  0.1826
26576W        W33176   6.181   2.485  10.838 -0.0905 -0.4666 -0.0957
26577W        W33177  26.898   6.116  16.774  0.1762 -0.1148 -0.0090
26578W        W33178  25.256   3.150  15.743  0.0486  0.2309  0.1434
26579W        W33179  22.023   0.830  10.058 -0.0720 -0.2317 -0.0037
26580W        W33180   1.500   5.037   5.425 -0.3936  0.1579  0.3174
26581W        W33181  23.835   3.488  17.375  0.0323 -0.2499 -0.3884
26582W        W33182   9.842   5.252   2.237  0.2257  0.1105 -0.1439
26583W        W33183  17.826   2.078   6.928  0.0628  0.1009  0.2286
26584W        W33184   7.363   4.352   2.488 -0.1745 -0.0479 -0.2303
26585W        W33185  16.990   1.722  17.166 -0.2345 -0.2243 -0.0822
26586W        W33186  23.901   6.115   2.175 -0.0051  0.0366  0.0312
26587W        W33187   3.508   4.128  24.347 -0.0815  0.1124 -0.1226
26588W        W33188  29.170   1.829   4.720 -0.0052  0.4105 -0.2058
26589W        W33189  17.137   0.545  22.344 -0.2034 -0.2805  0.0735
26590W        W33190   4.690   3.219  10.045 -0.0754  0.1842 -0.1121
26591W        W33191  16.230   4.589   6.392  0.0372  0.3367 -0.0190
26592W        W33192  16.560   5.137   9.871 -0.1751 -0.1587 -0.2416
26593W        W33193  21.321   0.354  20.898 -0.0411 -0.3975  0.0547
26594W        W33194  25.080   6.210  20.622  0.3020  0.1761 -0.0176
26595W        W33195   3.911   0.804  25.529 -0.1508 -0.1346  0.0639
26596W        W33196  17.711   1.620   1.964 -0.3036  0.4443 -0.1069
26597W        W33197  19.218   4.114  24.863 -0.3618  0.0331 -0.0422
26598W        W33198  25.198   5.169   7.812 -0.2524 -0.2854  0.1316
26599W        W33199  25.127   4.646  22.078 -0.0523  0.2425 -0.1346
26600W        W33200   9.701   3.893   9.301 -0.0456 -0.2163 -0.0899
26601W        W33201   0.296   5.733  18.348 -0.0075  0.1905  0.0309
26602W        W33202  20.867   2.961   3.250 -0.1115 -0.0523 -0.3621
26603W        W33203  28.673   0.287   4.408  0.2306  0.1165 -0.0578
26604W        W33204  24.420   3.906   3.863  0.0097 -0.0914 -0.2080
26605W        W33205  26.930   4.411  24.230 -0.1625 -0.1930  0.3189
26606W        W33206  30.674   2.055  18.241  0.1206  0.4822  0.2621
26607W        W33207   9.766   7.448  22.928 -0.0623  0.1519 -0.0128
26608W        W33208  19.504   0.107   7.822  0.1694 -0.0719 -0.1191
26609W        W33209  26.578   4.670   8.441  0.0613 -0.2574 -0.0178
26610W        W33210  26.065   7.313  24.681  0.0873  0.1037  0.1652
26611W        W33211  29.018   3.981  10.470  0.2769 -0.0393  0.1107
26612W        W33212  10.848   5.289   1.442 -0.0288  0.2091  0.0866
26613W        W33213  30.789   5.138  10.932  0.1661  0.1605 -0.4926
26614W        W33214  13.190   6.774  22.517 -0.2797  0.0477  0.2164
26615W        W33215   8.186   1.705  15.382  0.3456 -0.0682 -0.2314
26616W        W33216  10.144   4.458  21.478 -0.2270  0.2074 -0.2756
26617W        W33217  24.581   4.478  25.490  0.0944  0.0442  0.0898
26618W        W33218  15.231   4.666  19.673 -0.0116 -0.5702 -0.1474
26619W        W33219  24.760   3.448  25.508  0.1739  0.0898 -0.2358
26620W        W33220  15.674   4.938  18.820 -0.2066  0.1808  0.2066
26621W        W33221  15.036   6.367  16.389  0.1451 -0.1111 -0.0593
26622W        W33222  21.621   7.524  16.694  0.2519 -0.2230  0.0860
26623W        W33223   6.446   7.356   6.369 -0.0892  0.3642  0.0793
26624W        W33224  17.305   6.635  10.024 -0.0265  0.0710 -0.4489
26625W        W33225  28.828   5.773  19.677  0.1010 -0.1870 -0.1138
26626W        W33226  30.089   1.682  16.781 -0.1150  0.0232  0.0971
26627W        W33227   5.848   7.064  15.951 -0.2741 -0.0756 -0.0166
26628W        W33228   5.757   7.460   8.437 -0.1549  0.3380 -0.0807
26629W        W33229  15.312   4.621  18.685 -0.0889  0.1212 -0.0453
26630W        W33230  28.053   3.267  17.553  0.0143  0.1575 -0.1362
26631W        W33231  20.926   7.723  21.047  0.0668  0.3009 -0.2150
26632W        W33232   2.356   3.679   2.546 -0.4294  0.1427  0.3619
26633W        W33233  13.590   3.722   6.051  0.1503  0.0644 -0.0215
26634W        W33234  27.724   6.226  25.971  0.0678 -0.0036 -0.1268
26635W        W33235  31.120   7.683  22.117 -0.0350  0.1296  0.1116
26636W        W33236  30.198   4.367  20.527  0.1271 -0.0293  0.2396
26637W        W33237  24.881   6.178  24.013  0.1898 -0.1165  0.0510
26638W        W33238  24.326   5.945  22.176 -0.0322 -0.0569 -0.2494
26639W        W33239   8.057   1.033   7.438 -0.1602  0.0081 -0.3219
26640W        W33240  13.609   5.378  18.791 -0.1862  0.0928 -0.0905
26641W        W33241  21.973   7.455  21.969 -0.2807  0.0504  0.3989
26642W        W33242  19.775   3.477  17.257  0.0424 -0.2122  0.1455
26643W        W33243   1.510   4.911   4.950 -0.1438  0.1336 -0.0030
26644W        W33244  26.634   3.633  19.450  0.1297  0.0570  0.3631
26645W        W33245  19.801   4.989  17.832 -0.1296  0.0844  0.1338
26646W        W33246  30.674   1.160  17.860  0.1488 -0.0489 -0.1017
26647W        W33247  13.217   6.101   8.949 -0.1131  0.1385  0.2550
26648W        W33248  14.713   4.022  15.867 -0.4190 -0.2842  0.3332
26649W        W33249  19.720   1.345  22.959 -0.0581  0.0361 -0.0900
26650W        W33250   9.577   4.020  10.350  0.0142 -0.2738 -0.0951
26651W        W33251  28.469   5.909   8.295 -0.2679 -0.2863  0.0859
26652W        W33252   1.895   0.457   8.299 -0.0499 -0.3566 -0.1401
26653W        W33253   6.320   2.317  25.212 -0.1802 -0.2941 -0.1640
26654W        W33254  29.351   5.785  22.321 -0.1103 -0.1188  0.0507
26655W        W33255  13.225   4.928   0.044  0.3390 -0.1840 -0.1150
26656W        W33256   1.685   4.884   6.272 -0.0662 -0.1802 -0.1739
26657W        W33257  10.449   6.910   2.833 -0.0452 -0.2501  0.1391
26658W        W33258  15.239   4.573  18.161 -0.2458 -0.2036 -0.1164
26659W        W33259  11.696   5.458  15.916  0.5178  0.1778 -0.1665
26660W        W33260   4.665   7.177  16.391  0.2219 -0.3070 -0.2891
26661W        W33261  11.581   6.538  17.856  0.2699 -0.0274  0.2864
26662W        W33262  25.914   4.499   9.399 -0.1049  0.0217  0.1561
26663W        W33263  17.426   0.442  15.926  0.0648  0.1638 -0.1624
26664W        W33264   0.975   5.696  10.370  0.1273  0.2717  0.1278
26665W        W33265  26.301   1.824   9.261 -0.0856 -0.2813 -0.1819
26666W        W33266   4.579   1.694  23.360  0.0536 -0.2948  0.0303
26667W        W33267  12.457   0.374   2.024  0.2470 -0.1497 -0.0562
26668W        W33268  13.471   4.888   4.838  0.2383 -0.2183 -0.0495
26669W        W33269  28.996   7.299  10.721 -0.1931 -0.1870  0.3689
26670W        W33270  28.634   2.936  15.811  0.0124 -0.1778 -0.0382
26671W        W33271   3.466   5.540  10.997  0.0565  0.1483  0.0747
26672W        W33272  16.308   6.690   1.355 -0.0025 -0.2224 -0.1096
26673W        W33273  23.141   7.815   5.564  0.0688 -0.0227  0.0852
26674W        W33274  14.161   2.694   1.215 -0.0557 -0.0992 -0.0584
26675W        W33275  29.288   3.271   5.014  0.1805 -0.3023  0.1236
26676W        W33276  27.617   2.714   9.817 -0.2248  0.0539  0.3604
26677W        W33277   3.127   1.752  24.198  0.0559 -0.1777  0.2490
26678W        W33278  16.720   6.675  22.203 -0.0873  0.0023  0.0743
26679W        W33279   5.275   1.233  10.202 -0.2394  0.0936 -0.1342
26680W        W33280   7.868   2.025   5.988  0.1592 -0.0686 -0.2002
26681W        W33281  17.454   5.104   8.569 -0.1068  0.0920 -0.3755
26682W        W33282   6.400   3.372  25.729 -0.0935 -0.4026  0.4109
26683W        W33283  11.260   3.158  17.749  0.0871 -0.2228 -0.1021
26684W        W33284  27.776   7.731  23.528  0.3197 -0.2886  0.2083
26685W        W33285  30.399   4.903  18.805  0.1421  0.1411  0.4075
26686W        W33286  19.581   2.118   4.618  0.0467  0.0359 -0.2668
26687W        W33287  30.830   4.380  18.090 -0.0079 -0.2201 -0.0392
26688W        W33288  18.493   1.811  24.844  0.3796  0.1752  0.0949
26689W        W33289  13.642   2.411   3.474 -0.0491  0.3408  0.2358
26690W        W33290  12.827   6.133  23.289  0.1247  0.5317 -0.0838
26691W        W33291   0.718   1.606  26.098  0.1345  0.0682 -0.2107
26692W        W33292   6.599   4.143  18.628 -0.0865 -0.1327 -0.1126
26693W        W33293  21.754   3.056   3.536 -0.1393 -0.1662  0.0793
26694W        W33294   3.193   3.768   4.693  0.0879  0.0135 -0.1764
26695W        W33295   0.030   0.365  22.052  0.2719 -0.2633 -0.0380
26696W        W33296   2.956   2.886   4.917 -0.0407 -0.1306  0.0836
26697W        W33297   8.365   1.765  24.652  0.1059 -0.0485 -0.0184
26698W        W33298   4.930   4.720  19.224 -0.1945  0.0170  0.0268
26699W        W33299  11.379   4.473   8.194 -0.1114  0.2529 -0.1374
26700W        W33300  29.546   5.075  11.681 -0.0887  0.1554  0.0270
26701W        W33301   7.019   2.406  19.050  0.0181 -0.1035 -0.0729
26702W        W33302  18.569   4.933   0.305 -0.0297  0.1542  0.3703
26703W        W33303  25.743   6.087  22.960  0.1459  0.0729 -0.0365
26704W        W33304   9.530   0.991  17.974 -0.2078  0.0904  0.4265
26705W        W33305  10.454   2.859  24.588  0.4372  0.0743 -0.3031
26706W        W33306   9.523   2.979   1.092 -0.1299  0.1309 -0.2724
26707W        W33307  10.178   4.220   3.025 -0.0367 -0.3091  0.1047
26708W        W33308  12.196   1.306  17.303  0.1615 -0.0646  0.0969
26709W        W33309  30.937   7.238  17.020  0.3294  0.0064  0.2674
26710W        W33310  18.860   3.425   6.461  0.0612 -0.1527 -0.0116
26711W        W33311   9.151   1.875  24.843 -0.1316 -0.0867 -0.0681
26712W        W33312  16.304   1.868  20.928 -0.0394  0.1655 -0.0469
26713W        W33313   8.828   0.211   2.229  0.0999 -0.1920  0.0058
26714W        W33314  15.204   1.499  24.894 -0.1538  0.0115  0.1425
26715W        W33315  22.724   7.024   6.841 -0.2057 -0.1626  0.0377
26716W        W33316  30.313   0.717  21.456  0.2594  0.0584 -0.0094
26717W        W33317   6.303   3.074  26.172  0.0203  0.1871  0.0919
26718W        W33318   8.070   4.242   3.099 -0.1397 -0.1281 -0.0464
26719W        W33319   7.395   1.550  23.241 -0.1908  0.2488 -0.0644
26720W        W33320  29.448   2.538   9.140  0.0724  0.3421 -0.1590
26721W        W33321  30.818   7.487   3.373 -0.0781 -0.2101 -0.0875
26722W        W33322  10.143   6.732   3.420 -0.1296 -0.0214  0.1310
26723W        W33323  24.661   3.049  22.110 -0.1211  0.2914  0.2725
26724W        W33324  24.999   3.752  22.880  0.2668 -0.0090  0.2601
26725W        W33325  10.352   1.213  20.911 -0.0825 -0.1664 -0.2722
26726W        W33326  18.264   6.513  18.490 -0.0245 -0.1668 -0.1665
26727W        W33327   2.320   3.169  25.867  0.5723 -0.0719  0.1297
26728W        W33328   6.158   7.273   8.664  0.0217 -0.0546  0.1065
26729W        W33329  14.601   5.082   8.170  0.0696 -0.0608  0.4517
26730W        W33330   1.938   0.093  18.321 -0.0831 -0.2259  0.1577
26731W        W33331  27.454   4.605  23.656  0.2056 -0.2704  0.0658
26732W        W33332   9.459   7.127  23.225  0.0361 -0.0618  0.2541
26733W        W33333   5.250   0.028  25.975 -0.1939 -0.3914  0.1099
26734W        W33334   4.739   3.152   5.452 -0.0533  0.1646 -0.1073
26735W        W33335   8.681   1.648  10.362  0.3096 -0.0139  0.1308
26736W        W33336  15.342   0.781   9.376 -0.0518  0.0940 -0.0657
26737W        W33337  20.807   2.743   0.545 -0.2321 -0.0121  0.1450
26738W        W33338   4.494   3.222   1.481 -0.1057 -0.4168  0.2623
26739W        W33339  11.782   6.748  22.748  0.0555  0.1465 -0.3075
26740W        W33340   1.238   5.177  23.131  0.0235  0.0380  0.1584
26741W        W33341  30.858   4.625  10.978 -0.0974 -0.0687  0.0971
26742W        W33342   9.633   3.974   7.239 -0.0474 -0.2679 -0.2905
26743W        W33343  21.673   0.805  23.877  0.0845 -0.1001 -0.2482
26744W        W33344  28.663   2.359  20.555  0.0137  0.0963 -0.1826
26745W        W33345   5.424   0.792   4.357  0.0352  0.1024  0.0557
26746W        W33346  20.596   0.860  10.084  0.2907  0.1623 -0.2785
26747W        W33347  12.249   3.684   4.770  0.0881  0.0249  0.0564
26748W        W33348  20.401   0.825   7.955  0.2313 -0.0923  0.2727
26749W        W33349  29.204   7.262  25.697 -0.0849 -0.1444 -0.0819
26750W        W33350  18.432   6.995  23.232  0.0436 -0.1020  0.0026
26751W        W33351   8.879   6.802  20.229 -0.2962  0.0616  0.2802
26752W        W33352  21.897   7.161  21.589  0.1447 -0.1720  0.2116
26753W        W33353  21.476   3.922   6.377 -0.2664  0.1627 -0.1305
26754W        W33354  21.058   3.701  17.357  0.0462  0.2620  0.1428
26755W        W33355  30.911   1.817  15.566  0.0583  0.1075 -0.0252
26756W        W33356  15.414   5.757   8.151 -0.0638  0.1211 -0.4866
26757W        W33357   7.136   5.846   0.865  0.0885 -0.1053 -0.1029
26758W        W33358  14.433   1.327   4.908 -0.1222  0.0084 -0.2261
26759W        W33359  30.324   5.928  21.354 -0.0995 -0.0715 -0.0510
26760W        W33360  18.158   0.278   3.321  0.0808  0.2468  0.1475
26761W        W33361  21.127   5.290   6.488 -0.2505  0.1814 -0.0575
26762W        W33362   6.939   4.508  20.935 -0.2769  0.0736  0.2123
26763W        W33363   8.126   1.621   4.134  0.2675  0.1154 -0.1262
26764W        W33364   9.873   6.864  26.070  0.1825  0.1698 -0.0003
26765W        W33365  11.171   1.985   9.142  0.4540  0.0678  0.2255
26766W        W33366   8.991   5.188   6.341  0.1682 -0.2526  0.2849
26767W        W33367   1.622   0.717  25.706 -0.1089 -0.1688  0.1505
26768W        W33368   6.490   4.121   0.426  0.3231  0.1619  0.1051
26769W        W33369  17.528   6.284  16.908 -0.2309 -0.0475  0.1298
26770W        W33370  13.771   3.358  23.991 -0.0336  0.1278 -0.0008
26771W        W33371  18.863   3.012   1.501  0.0536 -0.1556 -0.0166
26772W        W33372  11.429   5.824   5.450  0.1403 -0.1235 -0.1178
26773W        W33373  18.317   3.781  20.277  0.0944 -0.1660 -0.0159
26774W        W33374  24.038   2.863   5.539  0.2832 -0.0966  0.0544
26775W        W33375   7.791   0.389  16.594 -0.0267  0.3557 -0.2605
26776W        W33376  29.249   2.946  23.852 -0.0579 -0.0854  0.1751
26777W        W33377  18.892   0.923  17.962  0.2226  0.2280 -0.0495
26778W        W33378  16.100   5.326  24.549  0.0415 -0.0749  0.0195
26779W        W33379  17.756   6.459   9.867  0.2345  0.1143  0.0850
26780W        W33380  28.642   7.250   7.420  0.0721 -0.1442 -0.0678
26781W        W33381   9.413   3.244  22.576 -0.2000 -0.1089 -0.0050
26782W        W33382  15.909   5.673  23.433  0.0271 -0.0770  0.1662
26783W        W33383  14.038   3.849   5.762  0.0289 -0.0270 -0.0862
26784W        W33384   0.419   6.673  10.508  0.1354 -0.0366  0.2062
26785W        W33385   6.703   3.540  14.947  0.0488  0.2026 -0.2975
26786W        W33386  31.245   4.131  10.221  0.3349  0.1016  0.0548
26787W        W33387  16.522   3.627  19.445  0.2934  0.0453  0.0061
26788W        W33388   2.854   5.364  22.393 -0.1320  0.2075  0.2224
26789W        W33389   1.532   2.503  23.918 -0.1230  0.1940  0.1114
26790W        W33390  11.263   1.750   7.995 -0.2659 -0.2646 -0.2123
26791W        W33391  23.978   7.652   6.115  0.2141  0.3492 -0.1129
26792W        W33392  29.221   3.801   1.957 -0.0636  0.3468 -0.1534
26793W        W33393  12.928   2.184   1.802 -0.0800 -0.1377  0.2231
26794W        W33394  18.636   3.241   3.364 -0.2480  0.0101  0.2410
26795W        W33395  15.434   5.206  17.130  0.0235  0.0038  0.0241
26796W        W33396   7.754   6.798  17.524  0.1130 -0.0654  0.0743
26797W        W33397  26.272   5.726   6.261 -0.0692 -0.0505 -0.1268
26798W        W33398  12.978   2.880  16.317  0.2194  0.2951 -0.1044
26799W        W33399   4.666   4.759   3.324  0.4417  0.0031 -0.0797
26800W        W33400  29.633   4.731  25.446 -0.1671  0.2359 -0.4442
26801W        W33401   6.814   7.731  18.893 -0.0628 -0.1357  0.0205
26802W        W33402  22.157   6.203   6.460  0.0447  0.0602  0.1240
26803W        W33403  29.760   2.416   1.836  0.1740  0.0264 -0.1752
26804W        W33404  21.256   5.180   2.622 -0.0343  0.2071 -0.1623
26805W        W33405  31.195   6.672  26.058  0.0123  0.2480 -0.1234
26806W        W33406  18.867   1.948   1.165  0.0974 -0.1393 -0.1072
26807W        W33407  10.550   5.869   3.136 -0.2694  0.0750 -0.1357
26808W        W33408   8.436   0.454  23.396  0.1614 -0.0353 -0.2664
26809W        W33409  14.529   4.571  23.076 -0.5607  0.2467  0.1168
26810W        W33410  22.570   3.210   0.853 -0.0741  0.0062 -0.0322
26811W        W33411   7.066   3.746   1.690  0.0810  0.1526 -0.3853
26812W        W33412   2.628   6.902  17.820  0.0491 -0.2906  0.1391
26813W        W33413  29.649   4.285   6.914 -0.0246 -0.0620  0.0499
26814W        W33414  28.839   1.710   4.299  0.1142 -0.1727 -0.1393
26815W        W33415   6.550   7.437  15.145  0.1755 -0.1386 -0.1173
26816W        W33416  27.986   0.368   0.430 -0.0641 -0.1537  0.1396
26817W        W33417  14.762   7.237  18.703 -0.1108  0.0514 -0.0550
26818W        W33418   7.228   6.456  21.505 -0.0272 -0.2635 -0.1427
26819W        W33419  28.652   6.420  22.720  0.2512 -0.0898 -0.0869
26820W        W33420  16.140   2.345  21.022  0.0419 -0.2760 -0.0044
26821W        W33421   8.887   5.576   0.880  0.2026  0.2357 -0.0226
26822W        W33422   0.642   5.725  17.303  0.2642  0.0084 -0.0414
26823W        W33423   6.317   3.956  20.475 -0.0905 -0.1852  0.0580
26824W        W33424  26.291   2.206   4.992 -0.0331  0.0456  0.0434
26825W        W33425  27.493   7.088   0.582 -0.1125  0.0749 -0.1917
26826W        W33426  20.734   1.214  23.963 -0.2615  0.1196  0.0784
26827W        W33427  16.708   5.853  22.778  0.0590 -0.1702 -0.2466
26828W        W33428   2.492   7.701  23.731 -0.1015 -0.0692 -0.0371
26829W        W33429  17.797   3.675   8.196  0.0064  0.0848  0.1472
26830W        W33430  19.647   3.232  22.301 -0.0183 -0.3839  0.0351
26831W        W33431   0.692   7.042   8.247  0.2918  0.1247 -0.1763
26832W        W33432  15.329   3.235   8.128 -0.1657  0.3416  0.1671
26833W        W33433  24.067   2.798   2.809 -0.3466  0.1319  0.0962
26834W        W33434  15.953   1.499  18.508  0.0850 -0.2136 -0.0674
26835W        W33435  11.660   2.680   7.394  0.1263  0.2605  0.2410
26836W        W33436  10.734   3.322  18.616 -0.2293  0.1684  0.2174
26837W        W33437  27.974   0.820  16.072  0.1253  0.0812  0.2909
26838W        W33438  22.655   0.013   4.973  0.0336 -0.0731  0.1268
26839W        W33439   4.449   7.217  25.702  0.1134 -0.0326  0.3337
26840W        W33440   6.970   4.207   1.481  0.0404 -0.2936 -0.1358
26841W        W33441  10.635   4.893   1.699  0.3909 -0.0574 -0.2192
26842W        W33442   3.907   5.902   6.583 -0.0846 -0.2219 -0.2089
26843W        W33443  26.710   6.208   6.941 -0.2928 -0.0324  0.0479
26844W        W33444  18.073   5.518  10.825 -0.0723  0.0957  0.3308
26845W        W33445  13.493   5.284   6.250  0.0102  0.0986  0.0191
26846W        W33446  29.447   0.277  17.083  0.2776  0.0820  0.1256
26847W        W33447  21.869   2.272   9.157 -0.3309 -0.4006 -0.0073
26848W        W33448  18.511   3.370  16.574  0.0968 -0.0120 -0.1063
26849W        W33449   5.436   4.857   6.301  0.0000  0.0322 -0.0952
26850W        W33450   5.817   4.041  10.736 -0.1117  0.0314 -0.0450
26851W        W33451  23.297   7.516  25.867  0.0218  0.1556  0.2882
26852W        W33452  21.990   0.110  19.519 -0.3527  0.1882 -0.0171
26853W        W33453   5.345   6.902  17.914  0.0881 -0.1196  0.1088
26854W        W33454  23.559   6.789  20.206 -0.3001 -0.3921 -0.0988
26855W        W33455  22.602   6.067   4.394  0.1533 -0.0116 -0.3464
26856W        W33456  28.010   3.193   3.888  0.1187  0.3792 -0.1229
26857W        W33457  15.349   0.460   1.589 -0.0603  0.3043  0.1615
26858W        W33458   9.887   4.872  19.436 -0.0932  0.2847  0.1077
26859W        W33459  29.964   5.998  10.515 -0.2353 -0.0914 -0.2615
26860W        W33460   5.706   7.729   2.282 -0.0018 -0.0708  0.1138
26861W        W33461  21.780   7.655  22.768 -0.0470 -0.2154  0.0311
26862W        W33462  27.117   7.317   1.835 -0.1384  0.0413  0.1210
26863W        W33463   0.661   0.873  10.827 -0.1169 -0.2185 -0.0415
26864W        W33464  26.048   3.697  21.659  0.5047  0.2393  0.0280
26865W        W33465  22.442   6.499  22.675  0.1265 -0.0059  0.0345
26866W        W33466  11.667   5.143   5.850  0.2086 -0.1301 -0.0580
26867W        W33467  16.325   1.912  25.407  0.1230  0.0851  0.1356
26868W        W33468  20.463   0.031   0.254 -0.1074 -0.0416  0.2217
26869W        W33469  13.373   4.089  21.227 -0.2716  0.1368 -0.1381
26870W        W33470  13.075   4.157   3.056 -0.0047 -0.1204 -0.0025
26871W        W33471  20.841   3.590  10.024 -0.0757 -0.0495  0.1433
26872W        W33472  30.192   7.142   3.607 -0.0976  0.1984  0.2534
26873W        W33473  26.349   2.140   0.632 -0.1961  0.0295 -0.0055
26874W        W33474  19.839   2.981  23.493  0.1278 -0.1276  0.0036
26875W        W33475   8.249   0.558  23.915  0.2069  0.2685 -0.1689
26876W        W33476  11.267   5.540  25.424 -0.0671  0.0001 -0.2589
26877W        W33477   2.232   5.943   2.284 -0.0119 -0.2197 -0.0499
26878W        W33478  30.160   7.094  16.004  0.0650  0.0124  0.2387
26879W        W33479   2.716   5.795  25.436  0.0090  0.2539  0.0079
26880W        W33480  20.481   0.922  18.105 -0.0091 -0.0719 -0.0168
26881W        W33481   1.659   3.405  21.755  0.2481  0.5268 -0.3152
26882W        W33482  17.173   0.966  20.556  0.0141  0.0604 -0.0533
26883W        W33483   5.486   2.170  17.290 -0.1448  0.0555  0.0353
26884W        W33484  11.575   0.706  18.963 -0.1369 -0.2248 -0.2543
26885W        W33485  23.117   1.571  17.556  0.1363 -0.1237  0.1902
26886W        W33486   8.425   4.546  18.332  0.0980  0.0723 -0.3117
26887W        W33487  25.907   6.856  18.741 -0.1795  0.3175 -0.0408
26888W        W33488  19.618   6.486  25.227  0.1388 -0.1677  0.2446
26889W        W33489   0.960   7.753  15.495  0.0014 -0.3130 -0.0579
26890W        W33490  17.057   3.090  17.940 -0.0495 -0.1535 -0.2798
26891W        W33491  18.315   6.090   9.365  0.1733  0.0903 -0.0374
26892W        W33492   7.172   7.547   8.298 -0.1040  0.1382  0.0460
26893W        W33493  25.622   1.310   9.369  0.1675  0.1057  0.3405
26894W        W33494   9.673   2.264   6.497  0.0615  0.0888  0.0578
26895W        W33495   7.457   1.593   4.574  0.0459 -0.2868 -0.0510
26896W        W33496   4.528   7.611   2.089 -0.1126  0.0852 -0.0230
26897W        W33497  11.864   5.547   4.683  0.3078  0.0863 -0.1790
26898W        W33498   9.909   0.616  24.373  0.1692 -0.2941  0.0765
26899W        W33499   9.755   2.205   8.044  0.0387 -0.0775  0.0419
26900W        W33500  20.592   5.940   4.242 -0.1436  0.0572  0.2083
26901W        W33501  24.451   0.882  10.870 -0.1094  0.0390  0.1670
26902W        W33502  24.428   2.987   2.453 -0.3555  0.2987 -0.2060
26903W        W33503  26.921   3.879  19.954  0.0717 -0.2408 -0.3703
26904W        W33504   3.314   6.220   2.797  0.0400  0.1717  0.0749
26905W        W33505  19.183   6.888  24.650 -0.0460  0.1618  0.0613
26906W        W33506  11.041   1.430  25.045 -0.0646  0.1679 -0.0123
26907W        W33507  25.880   5.466  15.220 -0.0814 -0.0864  0.2758
26908W        W33508  13.820   1.578   3.146  0.0446 -0.0912  0.0179
26909W        W33509  28.114   7.721   5.616 -0.1546 -0.1532 -0.2716
26910W        W33510  21.405   2.741   1.706  0.0890  0.0227 -0.2516
26911W        W33511  12.738   4.765  26.122 -0.1302 -0.0728  0.0832
26912W        W33512  29.756   1.060  10.752 -0.1641 -0.1419 -0.1298
26913W        W33513  29.376   0.786  20.647  0.1751 -0.0546  0.2010
26914W        W33514  25.030   4.322  25.694 -0.0691  0.0557  0.1353
26915W        W33515  27.022   3.898   5.010  0.0307 -0.2482 -0.1439
26916W        W33516  10.512   2.893  24.014 -0.0320  0.2551  0.0347
26917W        W33517  14.512   7.343   8.033  0.2116  0.4866  0.0369
26918W        W33518  13.471   2.527  20.401 -0.0354  0.0834  0.0926
26919W        W33519   3.064   2.319   0.483 -0.2233  0.2490  0.0324
26920W        W33520   8.738   3.369   2.266  0.0534 -0.0512  0.5064
26921W        W33521  18.164   6.096  18.859  0.0988 -0.1017  0.3105
26922W        W33522  27.869   5.794   8.921  0.1303  0.1243 -0.0758
26923W        W33523  20.116   5.906   8.732  0.0690 -0.2300  0.0932
26924W        W33524  27.806   5.510   1.181 -0.0905 -0.4686 -0.0724
26925W        W33525   1.421   2.321   0.952  0.1675 -0.3697  0.0111
26926W        W33526  21.759   2.814  17.248  0.0398  0.1265 -0.1511
26927W        W33527  18.016   0.252  15.917  0.0268 -0.0384 -0.0233
26928W        W33528  19.999   6.675   1.890  0.1225 -0.1855 -0.0621
26929W        W33529   2.719   1.326  23.993  0.1432  0.1161  0.0546
26930W        W33530  20.089   1.147  17.914 -0.0012 -0.0232 -0.2996
26931W        W33531  24.662   5.698   7.049 -0.2913 -0.0705 -0.2332
26932W        W33532  25.574   3.102  16.107 -0.2006  0.1560 -0.1913
26933W        W33533  18.533   3.494   8.841 -0.1378  0.3257 -0.1251
26934W        W33534  11.853   4.635  16.200  0.1608  0.1120  0.0914
26935W        W33535  29.008   1.169   9.746 -0.1932  0.1861  0.0271
26936W        W33536   2.414   0.790  19.866  0.1822  0.0671  0.0134
26937W        W33537  20.893   7.049  14.926  0.0671  0.2573  0.0577
26938W        W33538  14.730   7.173  15.180  0.1068 -0.1467 -0.2807
26939W        W33539   4.121   0.540  17.988 -0.0631 -0.1195  0.1538
26940W        W33540  19.851   0.708   9.757 -0.2187  0.0350 -0.0462
26941W        W33541   8.582   6.043   7.182  0.0682  0.2141  0.2321
26942W        W33542  29.206   4.541   3.295 -0.0803  0.0779  0.4059
26943W        W33543  18.296   1.831  22.620 -0.1174 -0.3794 -0.0701
26944W        W33544  24.726   2.462  15.368  0.1187  0.2673 -0.1462
26945W        W33545  22.591   5.875  10.196  0.0358 -0.1656 -0.1763
26946W        W33546  21.310   6.513   6.748  0.1935 -0.0229  0.1038
26947W        W33547  22.224   1.738  22.560 -0.0659 -0.0097  0.0775
26948W        W33548  30.633   6.153  20.989 -0.1120 -0.2041 -0.2967
26949W        W33549  13.527   2.696  19.008 -0.0936 -0.0040 -0.2489
26950W        W33550  12.502   1.634   3.171  0.0443 -0.0446 -0.2050
26951W        W33551   7.567   1.018  25.213  0.0232  0.1147 -0.0944
26952W        W33552  19.499   2.217   4.202  0.0401  0.3822 -0.0402
26953W        W33553  26.681   6.997   8.264  0.0040 -0.0519 -0.1859
26954W        W33554  28.135   0.394  15.629  0.3707  0.0819  0.1994
26955W        W33555  24.429   2.400   1.307  0.3740 -0.1379  0.1318
26956W        W33556  21.595   4.152   1.152  0.2463  0.3073 -0.1617
26957W        W33557  18.368   2.337  20.715 -0.2344  0.1099  0.3896
26958W        W33558   0.184   4.531   0.519 -0.2828  0.1195 -0.0509
26959W        W33559   6.500   0.840  21.771 -0.1015 -0.0142 -0.0206
26960W        W33560  28.697   7.266  11.228 -0.2032 -0.0017  0.5617
26961W        W33561  24.744   7.490  18.021  0.0972  0.3422 -0.1032
26962W        W33562  26.361   2.989  24.215  0.0539 -0.3179  0.2399
26963W        W33563  19.855   5.463  20.344  0.1575  0.2114  0.1113
26964W        W33564  23.121   6.579  20.016 -0.0031  0.1725 -0.0776
26965W        W33565   7.027   1.570  21.034  0.0440  0.2240 -0.0271
26966W        W33566   1.436   2.407  10.218  0.2161 -0.0584  0.0078
26967W        W33567  13.926   3.923  22.950  0.0850  0.4170  0.1481
26968W        W33568  30.733   7.255  21.400  0.1102 -0.3865 -0.0453
26969W        W33569   3.789   7.419  24.741  0.3076 -0.0313  0.1403
26970W        W33570   4.392   4.010   6.017  0.1598  0.1921 -0.0383
26971W        W33571   8.014   3.467  22.083 -0.0538  0.1634 -0.1250
26972W        W33572   8.958   5.527   5.861 -0.0240  0.1163 -0.1161
26973W        W33573  26.218   3.900  24.524 -0.4240 -0.0739 -0.0372
26974W        W33574  17.165   7.482   7.220  0.2015 -0.0758  0.0125
26975W        W33575   2.655   1.996   2.424  0.0404 -0.2161 -0.0940
26976W        W33576  19.597   2.326   0.134  0.3270  0.2179  0.1056
26977W        W33577  22.915   4.175  14.894  0.0870  0.3178 -0.0856
26978W        W33578  30.229   0.767  24.611 -0.0470 -0.1505 -0.0372
26979W        W33579  20.539   3.533   5.518  0.3470 -0.2912 -0.1254
26980W        W33580  18.001   2.376   8.968 -0.2270 -0.1814 -0.2325
26981W        W33581  16.444   2.263  20.649  0.0972 -0.0361 -0.1237
26982W        W33582  10.881   3.470  19.252  0.0489 -0.0753 -0.0827
26983W        W33583  24.955   1.045  18.060  0.0586 -0.1113 -0.0313
26984W        W33584  11.405   6.614  16.872  0.1956 -0.1415  0.0082
26985W        W33585  22.963   0.893  22.491  0.0898  0.0008  0.0176
26986W        W33586  10.614   3.447  20.916  0.0201 -0.2170 -0.0833
26987W        W33587   9.296   5.393  24.869 -0.1572  0.0461  0.3627
26988W        W33588  23.735   1.413   1.811 -0.0274 -0.2129 -0.0592
26989W        W33589  23.167   0.062  17.515 -0.0508  0.1721  0.1535
26990W        W33590  11.981   6.052  15.380 -0.2432 -0.0424  0.1740
26991W        W33591  27.332   3.134  19.011 -0.1292 -0.2018  0.1878
26992W        W33592   0.279   1.965  17.832 -0.0725  0.0795  0.0968
26993W        W33593  26.231   6.817   0.985  0.1703 -0.2224 -0.1398
26994W        W33594  18.548   3.554   6.947 -0.3996 -0.3106 -0.1850
26995W        W33595   3.353   2.892   3.496  0.0412  0.0024 -0.0755
26996W        W33596   1.852   0.427  17.924 -0.0563 -0.0361  0.2111
26997W        W33597   0.992   2.901  15.314  0.4610  0.2062 -0.2919
26998W        W33598  22.685   2.357   2.546  0.0362  0.1618 -0.1076
26999W        W33599   9.408   5.067  19.711 -0.2280  0.2117 -0.1928
27000W        W33600  26.253   1.971  17.621  0.0444 -0.1098 -0.2531
27001W        W33601  15.397   2.123   0.838 -0.0834  0.1574  0.0132
27002W        W33602  28.645   7.502  24.819 -0.2518  0.0758  0.1311
27003W        W33603  13.017   6.093   4.518 -0.0482  0.0745  0.2103
27004W        W33604  24.393   5.519   8.130  0.0297  0.0424  0.0198
27005W        W33605   5.128   5.858   9.083  0.1350 -0.0081 -0.2256
27006W        W33606   0.602   2.083   3.305 -0.0142  0.1834  0.2299
27007W        W33607  23.383   3.487   3.054 -0.1233 -0.0801 -0.0164
27008W        W33608  18.653   1.240   8.170 -0.0032 -0.2333 -0.0048
27009W        W33609  25.826   0.283   1.194  0.1069  0.1613  0.0102
27010W        W33610  18.905   7.174   5.727  0.1732 -0.2329 -0.2245
27011W        W33611   6.330   6.112   3.511 -0.1465 -0.0108  0.0336
27012W        W33612  27.443   5.711   8.606 -0.1883 -0.1218  0.0178
27013W        W33613   2.091   0.619   9.720  0.1016  0.0544  0.1188
27014W        W33614   5.208   4.294   3.675 -0.0791 -0.1756  0.1043
27015W        W33615   5.238   1.487   4.326 -0.4378  0.2366 -0.1566
27016W        W33616  24.088   7.397  23.761 -0.2146  0.0737 -0.0999
27017W        W33617  21.296   1.368   2.732 -0.2405  0.0148  0.1856
27018W        W33618  22.377   1.270  16.748 -0.1032  0.1801  0.3518
27019W        W33619   8.943   4.346  20.779 -0.2492  0.2193  0.1773
27020W        W33620  18.375   2.771  22.388 -0.0227  0.1436 -0.1468
27021W        W33621   8.010   0.973  19.658 -0.1007 -0.0396  0.0219
27022W        W33622  23.032   5.623  17.606  0.0495  0.0450 -0.0934
27023W        W33623   7.332   1.809  16.346 -0.1673  0.1748 -0.2811
27024W        W33624  19.917   0.374  19.870  0.2685 -0.0680 -0.0696
27025W        W33625  28.090   1.836  24.568 -0.1185  0.0401 -0.1458
27026W        W33626  20.739   0.597  24.229 -0.1535 -0.1550 -0.1059
27027W        W33627  20.308   3.555  23.026  0.1329  0.0587  0.3566
27028W        W33628   2.077   1.491   1.308 -0.0178 -0.4157 -0.0603
27029W        W33629  23.342   5.546   9.387  0.0798 -0.2309  0.3190
27030W        W33630  24.157   1.155  24.367  0.4304 -0.0407 -0.1060
27031W        W33631   9.893   4.609  22.303  0.3591  0.0908  0.1380
27032W        W33632   5.313   7.597   1.861 -0.1574 -0.0968  0.0631
27033W        W33633  26.043   2.940  17.663  0.5212 -0.0095 -0.0822
27034W        W33634   5.296   2.194  19.208  0.1854  0.2166 -0.3818
27035W        W33635  16.213   0.502  19.641  0.1032  0.3277  0.1832
27036W        W33636   6.008   6.170   9.845  0.1447  0.0202 -0.0748
27037W        W33637   1.929   2.421  19.779  0.1020  0.1123 -0.1687
27038W        W33638  13.955   7.409  19.523  0.2727 -0.4192 -0.0852
27039W        W33639  26.311   0.960   7.925 -0.1869  0.4173 -0.0325
27040W        W33640  29.117   5.048  25.449 -0.0516 -0.1197 -0.0410
27041W        W33641  27.097   0.408  15.263 -0.1258 -0.3540 -0.0397
27042W        W33642   1.567   1.900  16.114 -0.3025 -0.1465  0.1058
27043W        W33643  16.495   2.251  16.526  0.0939 -0.1210  0.3243
27044W        W33644  22.754   6.230   8.428  0.0475 -0.0942 -0.1964
27045W        W33645  15.881   2.089   6.961 -0.0676  0.1375 -0.0876
27046W        W33646  24.091   3.787   0.581  0.0739  0.2032 -0.0887
27047W        W33647  18.969   4.412   4.121 -0.1843 -0.2708 -0.0569
27048W        W33648  27.065   2.357  16.399  0.0638 -0.1599  0.1389
27049W        W33649   1.106   6.163  16.719 -0.0027 -0.3189  0.0321
27050W        W33650  15.846   5.231   1.562 -0.0800  0.4274 -0.2961
27051W        W33651   1.656   1.792   5.846  0.2373 -0.2506 -0.0637
27052W        W33652  23.260   2.092  10.423  0.0799 -0.1170 -0.1762
27053W        W33653  24.106   3.640  20.639  0.3241  0.0048  0.3998
27054W        W33654  14.112   7.610  10.043  0.2209 -0.2690 -0.0378
27055W        W33655  23.415   3.825  24.538  0.2792  0.1519 -0.0356
27056W        W33656  21.189   4.451  16.981  0.2084 -0.3074  0.2365
27057W        W33657  13.185   2.564  15.836  0.1872 -0.0336  0.0000
27058W        W33658  20.960   1.951   6.563 -0.1797  0.0169  0.0356
27059W        W33659   5.631   2.517   5.128 -0.2031  0.0391 -0.2258
27060W        W33660  26.232   6.859   9.455  0.1833 -0.1063  0.2211
27061W        W33661   8.937   6.627   2.919 -0.0717  0.0713 -0.2157
27062W        W33662   5.690   2.274  16.070  0.0133  0.0828 -0.4872
27063W        W33663  22.236   7.055   7.581 -0.0753  0.5361 -0.1900
27064W        W33664  18.679   0.440  16.840 -0.0560  0.2857 -0.0185
27065W        W33665  28.809   6.975  17.858 -0.0533 -0.2463 -0.0057
27066W        W33666  20.298   3.123   0.103 -0.2445 -0.2245  0.1659
27067W        W33667   4.758   0.307  24.232 -0.1950  0.0668  0.2466
27068W        W33668  27.240   1.692  22.337 -0.3685 -0.1638 -0.0154
27069W        W33669   6.063   1.855   6.196  0.1188 -0.3620  0.0714
27070W        W33670  30.745   4.207  10.722 -0.1013 -0.0566 -0.1247
27071W        W33671  22.738   1.544  16.954 -0.1741 -0.1760  0.1314
27072W        W33672  18.277   3.990  21.321  0.0642 -0.1286  0.2294
27073W        W33673  14.253   3.052   1.630  0.0614 -0.1398  0.1439
27074W        W33674  14.055   3.457   6.060  0.1708  0.0220 -0.0473
27075W        W33675  10.636   7.127  16.788 -0.1055  0.1737  0.2348
27076W        W33676  10.110   2.495  21.025 -0.1444 -0.1583 -0.2477
27077W        W33677  19.918   0.910   2.847 -0.1187 -0.1065 -0.0599
27078W        W33678   3.727   6.342   0.832  0.0212 -0.2997 -0.0210
27079W        W33679  24.342   1.151   6.677 -0.0461 -0.5294 -0.2473
27080W        W33680  17.467   4.551   4.597  0.0262 -0.1546  0.1437
27081W        W33681   9.113   7.648   7.584 -0.1187  0.0260 -0.1161
27082W        W33682  19.826   4.873  22.859  0.0098  0.0877  0.2726
27083W        W33683   7.514   7.698  14.950 -0.0631 -0.2861  0.0594
27084W        W33684   8.847   2.843   3.890 -0.1718 -0.2189  0.1925
27085W        W33685  11.953   4.934  14.695  0.2711 -0.3519  0.1781
27086W        W33686  23.176   4.169   2.332 -0.3732 -0.0040  0.0730
27087W        W33687   3.382   0.156  21.193  0.0505 -0.0829 -0.1773
27088W        W33688  31.216   5.422  16.568  0.2114 -0.1608  0.1276
27089W        W33689   6.060   2.412   8.104 -0.1928 -0.1712 -0.1068
27090W        W33690  10.453   0.445   2.486  0.0541  0.3128  0.2601
27091W        W33691  21.333   2.305  18.880  0.0092 -0.2887 -0.0816
27092W        W33692   7.831   2.406  18.096  0.3920  0.2572 -0.0099
27093W        W33693   6.832   1.700   6.793  0.0581  0.1711  0.3228
27094W        W33694   4.104   6.133  24.132 -0.0760 -0.1620 -0.0331
27095W        W33695   3.632   1.603   9.732 -0.0466 -0.2403 -0.1304
27096W        W33696  21.535   6.811   1.320 -0.0518 -0.0959  0.0956
27097W        W33697  30.710   7.750   9.626 -0.0800  0.1885  0.0946
27098W        W33698   2.255   5.407  20.265 -0.2341  0.1218 -0.3345
27099W        W33699  19.366   5.675  15.815  0.1276  0.1079 -0.1339
27100W        W33700  23.120   3.332  20.778 -0.1256  0.1964 -0.1569
27101W        W33701  21.643   5.753   8.126 -0.2563  0.0444  0.1913
27102W        W33702   9.758   5.702   6.733  0.2868 -0.0333 -0.0813
27103W        W33703  20.246   1.056  15.862  0.1601 -0.4787  0.1669
27104W        W33704  10.686   5.456  15.964  0.2958  0.3254 -0.0500
27105W        W33705  15.011   0.665  25.937  0.3557 -0.0448  0.1605
27106W        W33706  26.698   2.064   1.488 -0.2387 -0.2500  0.1136
27107W        W33707  29.305   3.257  21.580 -0.0624  0.2581  0.2360
27108W        W33708  15.494   1.876   9.506 -0.2128 -0.0623 -0.1854
27109W        W33709   4.950   4.991   1.294  0.0361 -0.0710 -0.0208
27110W        W33710  26.038   1.466  26.014 -0.0633 -0.0505 -0.0996
27111W        W33711  18.227   7.623   2.060  0.4277 -0.1380 -0.2171
27112W        W33712  20.854   6.770  19.169  0.3761  0.1960  0.2833
27113W        W33713  27.947   7.021  22.665 -0.1698  0.1699  0.2278
27114W        W33714  27.751   2.482  21.978 -0.1577  0.1025 -0.0928
27115W        W33715   8.326   6.637  21.712 -0.0479  0.1539  0.0337
27116W        W33716  30.932   7.505  25.113  0.0268  0.1657 -0.0817
27117W        W33717   9.186   5.764   8.862 -0.0918 -0.0691  0.1141
27118W        W33718   8.247   4.051  18.676  0.1199 -0.0085  0.1584
27119W        W33719   4.647   6.079  23.156  0.2547  0.0142 -0.0347
27120W        W33720   8.782   6.934   4.692 -0.0157 -0.2732  0.1520
27121W        W33721  24.964   4.295  25.179  0.1552  0.2563 -0.2652
27122W        W33722  18.076   5.410  22.083 -0.0838 -0.2635  0.0574
27123W        W33723   6.822   0.975  15.911 -0.0471 -0.0979  0.0508
27124W        W33724  24.218   0.020  18.702 -0.2495 -0.1916 -0.2761
27125W        W33725   9.305   1.934  23.885 -0.1400 -0.0143  0.0082
27126W        W33726   1.211   3.731  10.592  0.1864  0.0064 -0.2272
27127W        W33727   1.385   2.743  15.650 -0.2262  0.3270 -0.2101
27128W        W33728  10.141   5.288  19.138  0.6053  0.0881 -0.1886
27129W        W33729  29.942   1.485  12.000  0.0373  0.1886 -0.3275
27130W        W33730  12.189   4.718  21.288  0.0547  0.3468  0.0878
27131W        W33731   1.735   2.438  17.162 -0.0808  0.1505  0.4756
27132W        W33732   6.120   1.317   3.183 -0.4048  0.0016 -0.0512
27133W        W33733  24.713   5.900   9.778 -0.0398  0.3516 -0.0717
27134W        W33734  25.961   3.920   9.891 -0.3159 -0.0970  0.1662
27135W        W33735  20.913   3.685   8.632  0.0769  0.0158 -0.0736
27136W        W33736  11.267   5.745  14.988 -0.1632 -0.1178 -0.2506
27137W        W33737  19.973   6.772   0.999  0.0954 -0.2091 -0.1291
27138W        W33738   0.187   6.115  24.937  0.0170 -0.0305 -0.1289
27139W        W33739  19.521   0.195  22.301  0.0731  0.1147  0.1621
27140W        W33740   4.090   6.694  21.398 -0.1648 -0.1373  0.0311
27141W        W33741  12.018   3.495   3.767 -0.0316 -0.0637 -0.0406
27142W        W33742   2.459   2.632   2.562 -0.2966  0.0328  0.4803
27143W        W33743  29.334   0.714   3.395  0.0083 -0.0527  0.0354
27144W        W33744  22.089   5.199   2.332 -0.0250 -0.4581 -0.0814
27145W        W33745  14.994   4.228   1.291 -0.0227  0.1502  0.2743
27146W        W33746  15.038   7.568  25.370 -0.4251 -0.0691  0.2177
27147W        W33747  16.256   5.833  25.309  0.2818 -0.1051  0.0546
27148W        W33748  21.000   7.703   7.982 -0.1375 -0.1859 -0.2990
27149W        W33749   8.318   2.744   5.984 -0.0447 -0.0509  0.0417
27150W        W33750   1.692   5.209  24.832  0.2354  0.0062  0.0263
27151W        W33751  26.914   5.496  23.384 -0.2553  0.0003  0.0168
27152W        W33752  25.225   7.049   1.105  0.0087  0.1875 -0.1216
27153W        W33753   3.286   6.371  22.706 -0.1630  0.1337 -0.1141
27154W        W33754  12.311   1.206  21.728  0.0070  0.2543  0.1949
27155W        W33755   2.139   2.382  16.871 -0.2402 -0.1364  0.0526
27156W        W33756   9.284   2.671   4.337  0.1888 -0.1144 -0.0707
27157W        W33757   3.099   4.443  15.462 -0.4635  0.0115 -0.4457
27158W        W33758  23.069   1.905  18.851  0.1602  0.0688  0.1305
27159W        W33759  17.638   6.290  23.414 -0.2026 -0.1162  0.1330
27160W        W33760  15.347   0.852  22.419  0.0170 -0.1553 -0.0550
27161W        W33761  27.437   2.859  23.701 -0.0912  0.0209 -0.1291
27162W        W33762  25.971   3.446   3.070 -0.2182 -0.0834  0.2861
27163W        W33763   9.919   4.099   8.433 -0.0586 -0.0156  0.0203
27164W        W33764   5.037   0.171  22.138 -0.0308  0.0790 -0.4134
27165W        W33765   0.807   5.355   1.274  0.1123  0.0409 -0.1328
27166W        W33766  12.990   4.070   1.739  0.0679 -0.0524  0.2252
27167W        W33767  16.803   7.126  24.187  0.3089 -0.0721  0.1590
27168W        W33768  14.315   4.668  20.250  0.0845 -0.0871 -0.1147
27169W        W33769  30.524   4.660   0.810  0.1121  0.2558 -0.1924
27170W        W33770  19.098   1.164  14.131  0.1094  0.1862 -0.1120
27171W        W33771  24.616   0.549  18.021  0.1156  0.1232 -0.0227
27172W        W33772   1.033   2.791  20.339 -0.3702 -0.0079 -0.2134
27173W        W33773  11.023   0.991  10.112  0.0576 -0.1565 -0.4812
27174W        W33774  29.876   3.988   7.291  0.0050  0.1920  0.0218
27175W        W33775   5.860   0.039  16.070 -0.1823  0.0996  0.0853
27176W        W33776  10.423   5.037  20.737  0.0094 -0.0698  0.1424
27177W        W33777  30.625   7.070  20.940 -0.0917  0.0825 -0.4265
27178W        W33778  29.186   4.816  19.540 -0.0235  0.1478  0.0524
27179W        W33779  12.190   1.286  21.213  0.1929 -0.1694 -0.0637
27180W        W33780  26.321   5.076  10.245  0.1229 -0.1078  0.1418
27181W        W33781  27.012   7.693   4.872 -0.0768 -0.0115  0.1017
27182W        W33782   8.143   4.738  19.186 -0.4061 -0.2579 -0.1961
27183W        W33783  30.659   4.633  16.336 -0.0578 -0.1104  0.2638
27184W        W33784  22.018   7.211   3.742 -0.0891 -0.1268  0.2760
27185W        W33785   4.874   3.906  11.505  0.2312 -0.0725  0.2293
27186W        W33786  30.154   7.209   1.756 -0.0002 -0.2376  0.1191
27187W        W33787   9.150   3.054  18.265  0.1756 -0.2535 -0.0120
27188W        W33788   2.499   1.270  21.464  0.0009 -0.1515  0.1463
27189W        W33789   8.528   5.741  21.549 -0.0498  0.1720 -0.0746
27190W        W33790   2.844   4.808  22.293  0.0263  0.1960  0.0296
27191W        W33791  12.143   1.673  17.883  0.2562 -0.1750 -0.1529
27192W        W33792  17.594   4.442  24.570  0.0448  0.0428 -0.0167
27193W        W33793   1.516   2.904   3.951  0.2363  0.1138 -0.2324
27194W        W33794  18.198   3.882  18.154 -0.1948 -0.1116 -0.0028
27195W        W33795  21.329   4.406  24.673 -0.0913 -0.0696 -0.0602
27196W        W33796  29.567   1.213  21.973 -0.2038 -0.0851 -0.1629
27197W        W33797  27.716   2.942  22.214 -0.0086 -0.0541  0.0114
27198W        W33798  12.410   2.547  19.301 -0.0663  0.2073 -0.1392
27199W        W33799   7.990   1.020  18.546  0.1027 -0.0233 -0.0970
27200W        W33800   5.291   7.651   9.124  0.0580  0.1712 -0.0359
27201W        W33801  28.361   6.840  19.424  0.2450  0.2926 -0.2160
27202W        W33802  29.270   7.110  16.650  0.1852  0.0183 -0.1968
27203W        W33803   2.367   5.579   1.482  0.1156 -0.1402  0.0682
27204W        W33804   7.296   5.750  22.470 -0.4089 -0.1957  0.2994
27205W        W33805   7.287   0.669  18.580 -0.3872 -0.0972  0.0020
27206W        W33806  23.993   0.073  21.046 -0.0953 -0.0544 -0.0146
27207W        W33807   2.617   7.561  18.698 -0.2955 -0.0127 -0.0569
27208W        W33808  28.279   6.058   5.608  0.1622  0.0077  0.1611
27209W        W33809  11.921   4.743  25.595 -0.2306 -0.1282 -0.0996
27210W        W33810  30.805   7.581   4.738 -0.1547 -0.1965  0.1636
27211W        W33811  10.826   0.342  17.746 -0.1619  0.1560 -0.0457
27212W        W33812   4.429   4.907   1.476  0.0919  0.1083 -0.1099
27213W        W33813  18.733   5.895  25.764  0.0666  0.0876 -0.3545
27214W        W33814   9.933   5.813   6.232  0.0430  0.0551 -0.1933
27215W        W33815  18.352   7.426  23.487 -0.2171 -0.0356  0.0789
27216W        W33816  28.825   7.748   7.653  0.0260 -0.0307 -0.0564
27217W        W33817  11.959   4.610  22.190  0.1150  0.1823  0.1195
27218W        W33818  30.395   1.765   2.390  0.1189  0.2496 -0.1415
27219W        W33819  28.406   2.106  19.516  0.0568  0.1410 -0.0557
27220W        W33820  24.089   3.192  20.868  0.1770 -0.1763 -0.0342
27221W        W33821   9.368   1.500  25.542  0.0005 -0.1330  0.1221
27222W        W33822  14.634   0.399  19.690  0.0922  0.2118  0.0739
27223W        W33823  15.458   2.617  17.170 -0.3126  0.0677 -0.0494
27224W        W33824  18.888   0.596   2.584 -0.2774 -0.0326 -0.3543
27225W        W33825  28.751   3.797  18.035 -0.0983 -0.2195 -0.1152
27226W        W33826  13.672   3.414   6.484 -0.0504  0.0850  0.0561
27227W        W33827  26.977   1.810  16.388  0.0395  0.3625  0.1974
27228W        W33828  16.897   6.016   7.184  0.2469 -0.1032 -0.0439
27229W        W33829  14.536   2.140   6.064 -0.0647 -0.1002  0.1315
27230W        W33830  12.628   7.480  21.575  0.1073 -0.0927  0.0694
27231W        W33831  25.119   4.498  21.069 -0.0868 -0.0579  0.1925
27232W        W33832   8.132   5.241   1.491 -0.4474 -0.1911 -0.1585
27233W        W33833   0.239   3.397  25.747  0.1571 -0.0423  0.1305
27234W        W33834  19.457   6.970  25.119 -0.0174  0.1745  0.0110
27235W        W33835  13.830   1.606   6.856 -0.1239  0.0199  0.0433
27236W        W33836  26.494   3.650   2.313  0.0677  0.0976 -0.3020
27237W        W33837  29.571   1.122  21.498 -0.3146 -0.1571  0.0925
27238W        W33838   7.084   6.570  24.788  0.3041 -0.1532 -0.1850
27239W        W33839  19.660   0.463  17.805 -0.0935 -0.2461 -0.2892
27240W        W33840  22.976   2.849   2.354  0.1792 -0.2065  0.3175
27241W        W33841  17.973   4.044   4.315 -0.3138 -0.1627  0.3865
27242W        W33842  23.612   2.628   5.744 -0.1657 -0.0530  0.1593
27243W        W33843  29.702   2.599  19.690  0.0794 -0.0612 -0.2464
27244W        W33844  27.133   3.514  19.658  0.2191  0.1997  0.0262
27245W        W33845  23.489   0.260  23.749  0.0797  0.2518  0.1041
27246W        W33846   4.326   2.205  26.167 -0.0205 -0.0828  0.1061
27247W        W33847  21.737   5.523  20.381 -0.0461  0.2124  0.2736
27248W        W33848  18.933   2.590  19.144 -0.2901 -0.2080  0.1467
27249W        W33849  26.156   2.468  24.358 -0.0621  0.0429 -0.2317
27250W        W33850  28.645   4.090  16.988 -0.3127  0.0768 -0.2659
27251W        W33851  23.324   0.775  22.883  0.2830 -0.1652  0.1043
27252W        W33852  26.375   2.829  22.084  0.1308  0.0467 -0.2062
27253W        W33853   2.714   5.781  21.115 -0.1172  0.2007 -0.0203
27254W        W33854  20.729   2.571   2.765 -0.0535 -0.2405  0.1544
27255W        W33855   6.715   2.346  21.826  0.1384 -0.0259  0.4079
27256W        W33856  18.648   3.713  20.662  0.1006  0.2366 -0.0531
27257W        W33857  22.774   5.209  10.177  0.1181  0.3461  0.0247
27258W        W33858   4.335   7.549   2.696 -0.0037 -0.0740  0.1460
27259W        W33859  27.357   6.122  25.304  0.1490 -0.3579 -0.1248
27260W        W33860  29.134   0.698   2.405 -0.0857 -0.1486  0.0741
27261W        W33861   8.321   4.279  15.780 -0.1554  0.0563  0.0114
27262W        W33862  28.344   3.575  18.232 -0.1846 -0.1507  0.0064
27263W        W33863  24.312   2.319  21.577  0.1523 -0.0124 -0.0749
27264W        W33864   3.692   5.003  25.144 -0.0391  0.3305  0.2774
27265W        W33865  24.567   4.307  25.978  0.1797 -0.0642 -0.0217
27266W        W33866  14.969   3.905  23.247 -0.2628  0.0289 -0.1026
27267W        W33867  28.313   6.317  23.731  0.0914  0.1283 -0.1983
27268W        W33868  14.085   7.398   6.909 -0.3590 -0.0329 -0.1404
27269W        W33869  26.330   6.212   5.700 -0.1181 -0.2402  0.0014
27270W        W33870  17.318   1.889  15.458  0.0175 -0.1013  0.0874
27271W        W33871   5.544   7.377   5.679  0.0448 -0.5153  0.2419
27272W        W33872   7.945   5.937   2.351 -0.2191  0.0826  0.2142
27273W        W33873  10.184   3.458   3.693  0.1958  0.1406 -0.1996
27274W        W33874  17.381   2.110   4.395 -0.2938 -0.2310 -0.0398
27275W        W33875  19.693   0.569   4.927  0.0808 -0.2195 -0.2615
27276W        W33876   2.442   3.913  21.658  0.4284  0.0759  0.2580
27277W        W33877  25.525   0.360   2.460  0.2479 -0.2146 -0.0554
27278W        W33878  28.719   5.298   6.537  0.0862 -0.3838  0.0626
27279W        W33879  25.217   4.883   3.196  0.0276 -0.0841  0.1585
27280W        W33880  19.914   6.529  23.094  0.0428 -0.2167 -0.1001
27281W        W33881  27.603   7.458  24.021  0.0611  0.3562 -0.0026
27282W        W33882   0.100   3.457  15.500  0.1243 -0.0321  0.0214
27283W        W33883   5.315   2.160  23.843  0.1600 -0.1184 -0.1376
27284W        W33884   9.610   6.485  24.386 -0.1448 -0.1319 -0.0330
27285W        W33885  15.492   4.460   1.038 -0.2334  0.1962 -0.1644
27286W        W33886  22.050   5.218   6.057  0.0614 -0.0220  0.0973
27287W        W33887  24.520   1.805  23.976 -0.0104  0.0081  0.2083
27288W        W33888   7.891   5.157   5.129  0.1089  0.0201  0.0978
27289W        W33889   3.842   0.650   6.397 -0.0894 -0.0816  0.1770
27290W        W33890  11.274   6.407   4.257  0.0950  0.0572  0.1438
27291W        W33891  20.710   2.954  18.051  0.0782  0.3232 -0.2554
27292W        W33892  31.087   7.364   1.972  0.3624  0.2459 -0.1872
27293W        W33893  15.298   2.629  23.513  0.2289  0.0593 -0.1301
27294W        W33894  16.468   0.531  21.141 -0.0032  0.0122 -0.0899
27295W        W33895  12.651   1.085   2.851 -0.1450 -0.0552 -0.1399
27296W        W33896  14.571   0.160  16.874  0.0246 -0.1700  0.0580
27297W        W33897  17.818   0.395  18.805 -0.2262 -0.0327 -0.0988
27298W        W33898   7.872   1.121  10.142  0.2279 -0.1423 -0.0894
27299W        W33899  13.966   3.176  15.023 -0.0388 -0.1471  0.0139
27300W        W33900  26.164   6.042   8.058 -0.2903 -0.1694  0.1446
27301W        W33901  28.732   5.419  10.562  0.0170 -0.2190 -0.0813
27302W        W33902  21.932   5.852  16.724  0.1729  0.0669  0.3508
27303W        W33903   1.238   0.487   4.515  0.0462  0.1684 -0.0695
27304W        W33904  23.199   2.886  24.231 -0.2352  0.0878 -0.0596
27305W        W33905  29.585   5.522   2.887 -0.2534 -0.4176  0.0409
27306W        W33906   9.223   7.715   8.114  0.2965  0.1528  0.1046
27307W        W33907  24.629   4.065  23.346  0.1470 -0.1801 -0.1877
27308W        W33908  28.309   4.442   8.529 -0.0062  0.1219 -0.0689
27309W        W33909  17.070   1.736   8.290 -0.2735 -0.1194 -0.0331
27310W        W33910  16.582   7.282  22.664 -0.0125  0.1795  0.1316
27311W        W33911   7.276   5.552  18.671  0.2351  0.0058  0.0549
27312W        W33912  20.310   7.238   5.564 -0.0439  0.0238  0.1131
27313W        W33913  24.235   5.697  16.183 -0.1147  0.1717 -0.4138
27314W        W33914  20.326   2.429  25.577  0.0434  0.0443  0.1359
27315W        W33915  26.280   6.701  23.120  0.0980 -0.0414 -0.1211
27316W        W33916  22.137   5.559  22.314 -0.2344  0.1633  0.1335
27317W        W33917  23.718   2.454  22.123  0.1244 -0.2092  0.1306
27318W        W33918  20.849   6.967  17.053 -0.2027 -0.1235  0.2082
27319W        W33919  21.772   2.562   9.643  0.0264 -0.1580  0.1496
27320W        W33920  13.454   1.905  25.582  0.0289 -0.0927 -0.0934
27321W        W33921   8.948   0.935  22.919  0.3451  0.1999 -0.1184
27322W        W33922  20.623   2.555  20.788  0.0314 -0.2542 -0.0545
27323W        W33923  11.218   6.312   8.844  0.3010 -0.2266  0.4039
27324W        W33924  20.238   7.031   9.561  0.1773  0.0293  0.2088
27325W        W33925  11.005   4.810  18.273  0.0083 -0.0196 -0.1169
27326W        W33926  21.742   2.429  19.212  0.0619 -0.1306 -0.1018
27327W        W33927  18.083   5.980  24.723  0.3670 -0.0165 -0.0891
27328W        W33928  17.861   4.985   3.418  0.3744 -0.1678  0.1667
27329W        W33929   9.238   5.055  18.239  0.3316  0.1028 -0.2230
27330W        W33930   1.571   4.672  25.931  0.1206 -0.1646 -0.0940
27331W        W33931  12.181   5.322   3.582 -0.2815 -0.2394 -0.2534
27332W        W33932   9.526   6.068   1.171 -0.0355  0.0444  0.1233
27333W        W33933  10.675   3.263  25.189  0.1104  0.1157 -0.0879
27334W        W33934  26.552   6.482  16.881 -0.1534  0.0098 -0.0361
27335W        W33935   9.276   3.210  25.279 -0.0068 -0.1605 -0.1272
27336W        W33936  29.364   1.377  24.870 -0.2048 -0.2989  0.0443
27337W        W33937  24.986   1.617  25.356 -0.0222  0.2796 -0.1078
27338W        W33938  16.486   5.855  20.067 -0.1494  0.0798  0.1309
27339W        W33939   7.599   7.709  19.228  0.0274 -0.1866 -0.0066
27340W        W33940  25.745   5.136  10.165  0.3936  0.3564 -0.0174
27341W        W33941  13.387   4.437   8.857  0.1266 -0.2605  0.0262
27342W        W33942  21.336   7.500  24.847 -0.0207 -0.1183  0.4428
27343W        W33943  17.678   6.832  23.798 -0.0865 -0.2761  0.1002
27344W        W33944  18.717   6.439   8.051 -0.0122  0.2986  0.1260
27345W        W33945  25.113   3.616  20.171  0.0150 -0.1177 -0.1986
27346W        W33946  10.202   4.676   2.520  0.0134  0.0212  0.1836
27347W        W33947  29.442   4.354   1.915  0.1117  0.0533  0.2764
27348W        W33948   4.177   4.599  25.718  0.0090 -0.0880 -0.1388
27349W        W33949  22.903   6.577  20.512  0.1565 -0.1384  0.1553
27350W        W33950  22.071   7.538  15.952 -0.0745 -0.1327  0.0346
27351W        W33951  16.809   7.117  23.154 -0.0254 -0.2719  0.2150
27352W        W33952  23.458   4.540  22.751 -0.4858  0.1483  0.2886
27353W        W33953  16.066   3.575   6.342  0.1586  0.0627 -0.0769
27354W        W33954  11.563   0.994  25.741  0.0153 -0.2412 -0.0579
27355W        W33955  25.485   3.288  26.107 -0.3710  0.0892 -0.2105
27356W        W33956   4.181   1.151   8.777  0.2801  0.3422 -0.0250
27357W        W33957  27.664   2.835  21.591  0.2264 -0.1493  0.1270
27358W        W33958   4.824   2.598   7.958  0.0952 -0.1250 -0.0866
27359W        W33959   9.498   4.238  15.254 -0.1847 -0.3348 -0.0801
27360W        W33960  31.275   7.072  24.484 -0.0852  0.0053 -0.2285
27361W        W33961  26.894   1.339  16.439  0.0866  0.1274 -0.0693
27362W        W33962  19.598   2.341  25.095  0.2091  0.1121  0.0456
27363W        W33963  20.338   1.103  16.444  0.1639 -0.0766  0.0890
27364W        W33964  27.857   1.917   9.409 -0.0786 -0.0407 -0.0951
27365W        W33965  24.578   7.766  16.911  0.1905  0.2172 -0.0302
27366W        W33966  12.821   4.161  16.599 -0.0405 -0.1294 -0.0542
27367W        W33967  12.977   1.598   6.973 -0.2408  0.0860  0.0295
27368W        W33968  21.279   1.822   0.101 -0.1335  0.1587 -0.1047
27369W        W33969  30.422   1.984  22.253 -0.0658 -0.1517  0.3077
27370W        W33970   7.542   1.379  21.870 -0.1905 -0.3014  0.1669
27371W        W33971  29.597   1.240   1.120 -0.0201 -0.1489 -0.1302
27372W        W33972   4.163   6.434  20.048  0.3510  0.3533  0.0005
27373W        W33973  26.608   4.344  21.564 -0.0139  0.0344 -0.2660
27374W        W33974  11.365   4.597  23.739 -0.2169 -0.0799 -0.0031
27375W        W33975  28.973   6.338  23.094  0.0008 -0.0459  0.0006
27376W        W33976  10.323   5.598   1.678  0.0155  0.1957 -0.2708
27377W        W33977   0.509   7.703   3.412  0.0387 -0.0552 -0.1210
27378W        W33978   2.734   7.539   4.086 -0.0265 -0.1037  0.1147
27379W        W33979   1.669   6.114  18.191  0.0372  0.0396 -0.1970
27380W        W33980   5.892   5.500   4.677  0.0317 -0.1271  0.1954
27381W        W33981  23.589   0.100  23.302  0.0264  0.1601 -0.1634
27382W        W33982   7.432   4.467  18.371  0.1623 -0.3047 -0.0725
27383W        W33983  16.362   3.427   7.900  0.0920  0.0652  0.0097
27384W        W33984   3.248   4.545  11.203 -0.1691 -0.0309 -0.0314
27385W        W33985   2.342   0.592   8.008 -0.0925 -0.0514 -0.0907
27386W        W33986   8.559   3.656  16.367 -0.0244  0.1328 -0.2695
27387W        W33987  14.981   4.203  10.629  0.1014 -0.3679  0.0032
27388W        W33988  14.455   7.488   3.480  0.2569 -0.1703  0.1036
27389W        W33989  14.271   7.453   4.261  0.1968 -0.0941 -0.2260
27390W        W33990   7.066   7.787   9.751  0.2006  0.1289 -0.1095
27391W        W33991  24.497   5.720   1.780 -0.0137 -0.1061 -0.2242
27392W        W33992   4.851   0.391  20.042 -0.1718 -0.1971  0.1391
27393W        W33993  26.466   0.447  16.587 -0.0538  0.0873 -0.2198
27394W        W33994   0.168   3.539  18.970 -0.1286 -0.4051  0.3065
27395W        W33995   0.108   2.745  19.911  0.1721  0.1362 -0.5821
27396W        W33996  22.904   5.556  15.904 -0.0179  0.4510 -0.0417
27397W        W33997  22.887   0.027  15.906 -0.1498  0.2507  0.0780
27398W        W33998   4.871   7.747  19.163  0.1102  0.0584  0.1633
27399W        W33999  23.655   7.470   9.646 -0.0051  0.0599 -0.1614
27400W        W34000  17.507   1.351  23.016 -0.0052 -0.1640 -0.2227
27401W        W34001  26.636   5.384  25.557 -0.0144  0.0860  0.0422
27402W        W34002  22.236   1.711   3.290 -0.1427 -0.1048 -0.0306
27403W        W34003  12.566   3.504  19.123  0.2546 -0.0039  0.2403
27404W        W34004  11.748   1.130  16.030 -0.2573 -0.0474 -0.3227
27405W        W34005  24.041   0.082   7.522 -0.2802 -0.3343  0.0868
27406W        W34006  14.841   4.789   7.479  0.0683  0.0521  0.1133
27407W        W34007  10.393   2.679   1.238 -0.3968  0.0551 -0.7515
27408W        W34008   9.629   4.992   7.507 -0.2637 -0.0202 -0.1444
27409W        W34009  18.910   6.698   7.373 -0.1158 -0.0881  0.2367
27410W        W34010   4.869   4.775  19.703 -0.3071 -0.0543 -0.1807
27411W        W34011  30.450   5.413  22.978 -0.0215  0.1501 -0.1057
27412W        W34012   7.119   3.097  23.401  0.1933 -0.0190  0.2387
27413W        W34013   4.151   6.924   1.453  0.0980  0.1043 -0.2405
27414W        W34014   9.903   1.325  18.050 -0.0580  0.0789 -0.0871
27415W        W34015  21.153   1.812  24.864 -0.1330 -0.2096 -0.0025
27416W        W34016  26.636   5.582  17.583 -0.2052  0.0096  0.0634
27417W        W34017  16.441   0.873   0.785  0.0007  0.1148 -0.1040
27418W        W34018  23.971   2.595   4.256  0.0479 -0.3865  0.1848
27419W        W34019  23.332   7.325  16.784 -0.1040  0.2079 -0.0262
27420W        W34020   8.843   0.518  19.417 -0.0755  0.0149 -0.0319
27421W        W34021  16.629   3.706   2.929 -0.0193 -0.1195  0.0738
27422W        W34022  11.400   4.209  18.792 -0.0796 -0.3102  0.0138
27423W        W34023   1.725   4.282  21.653  0.1088 -0.2575 -0.1523
27424W        W34024  29.770   1.661   0.358  0.5007 -0.0542 -0.2218
27425W        W34025   3.417   1.594  25.068  0.1116  0.0542  0.2758
27426W        W34026  12.231   4.503  22.625 -0.0588  0.1130 -0.4592
27427W        W34027   2.126   4.300  24.727  0.1525 -0.2899  0.0682
27428W        W34028   2.059   3.433  18.956  0.0885 -0.2556 -0.2102
27429W        W34029   9.572   4.671  17.505 -0.2619 -0.0315 -0.0804
27430W        W34030   0.181   5.176  23.557 -0.0282 -0.1734  0.0150
27431W        W34031  28.807   7.190   9.091 -0.2723 -0.0522  0.0155
27432W        W34032  14.215   4.649   3.694  0.1809  0.1462 -0.0959
27433W        W34033  14.035   6.546  17.947 -0.1127 -0.2210  0.0039
27434W        W34034  22.082   5.368  17.778 -0.2202  0.0976  0.1590
27435W        W34035  30.481   6.771  15.832  0.0734 -0.2603  0.2001
27436W        W34036   4.935   4.418  20.536 -0.0917 -0.0934  0.0316
27437W        W34037  20.615   6.010   2.762 -0.0924 -0.1947 -0.1345
27438W        W34038  17.783   7.008  15.090 -0.4017 -0.1722 -0.1102
27439W        W34039   0.568   6.223   8.372  0.3555 -0.2229 -0.0700
27440W        W34040  13.563   4.667  25.777 -0.0489 -0.0745  0.1415
27441W        W34041   0.532   4.285  24.244 -0.2560 -0.2228  0.0087
27442W        W34042   9.234   6.101  15.146 -0.1297  0.0175  0.1919
27443W        W34043   8.431   1.935   1.427 -0.0381 -0.1278 -0.2096
27444W        W34044  22.654   2.176  10.540  0.1675  0.2956  0.0094
27445W        W34045  28.795   3.174   6.482 -0.0971  0.3182 -0.0597
27446W        W34046  13.721   6.153   5.070 -0.0115 -0.0875 -0.0769
27447W        W34047  24.861   1.224   5.284 -0.0349  0.1679  0.0885
27448W        W34048  27.326   3.587   8.927 -0.2003 -0.2231 -0.2530
27449W        W34049  27.222   5.721   4.213  0.0547 -0.1176 -0.1214
27450W        W34050   5.686   1.218   4.303 -0.2328 -0.1972 -0.1668
27451W        W34051  15.471   0.573   2.998  0.0887  0.0935  0.1173
27452W        W34052  12.480   2.385  19.770  0.0451  0.0253  0.1687
27453W        W34053  13.855   0.997  20.469 -0.0996  0.0887  0.1359
27454W        W34054  14.259   6.527  23.602 -0.0070  0.0104  0.1126
27455W        W34055  21.864   1.958   0.888  0.2307  0.1597  0.2929
27456W        W34056  11.187   2.963  16.964 -0.0371 -0.2453  0.1464
27457W        W34057  26.557   0.457  23.551  0.1150 -0.2013 -0.0075
27458W        W34058  26.699   1.777  20.586 -0.0150 -0.0081 -0.0338
27459W        W34059   3.577   1.407   2.983  0.2663 -0.2936 -0.0137
27460W        W34060  14.936   1.849  15.689 -0.0105 -0.2112  0.2634
27461W        W34061  16.884   2.897  16.478  0.0482  0.0716 -0.1758
27462W        W34062  27.803   6.834  18.765  0.0806 -0.3515 -0.2366
27463W        W34063   9.148   3.890   6.957 -0.2822 -0.1251 -0.2365
27464W        W34064  16.191   0.871   1.222  0.0818 -0.0404  0.1531
27465W        W34065   7.916   2.715   7.455 -0.1391 -0.2499  0.3229
27466W        W34066  13.291   4.991  20.465  0.0296 -0.3585  0.1205
27467W        W34067  16.973   2.569   1.060 -0.0880 -0.1291 -0.0810
27468W        W34068  16.994   0.068  17.195 -0.1254 -0.0153  0.1491
27469W        W34069  22.586   1.833  18.382  0.0115 -0.1134  0.3356
27470W        W34070  18.093   3.392  16.311  0.0840 -0.0618  0.1899
27471W        W34071  30.527   3.136   3.266  0.1203 -0.3817  0.0595
27472W        W34072  25.982   4.123  19.547 -0.0367 -0.3867  0.0909
27473W        W34073  10.137   4.564   6.773 -0.2157  0.2235  0.1816
27474W        W34074  28.876   2.359  15.983 -0.2885 -0.1117  0.0556
27475W        W34075   3.711   2.740   8.194  0.1900  0.3667  0.1171
27476W        W34076  16.075   7.597  26.020 -0.1608 -0.1566 -0.1698
27477W        W34077  27.124   1.763  17.595  0.1304  0.0745 -0.1629
27478W        W34078  24.642   1.406   0.838  0.0556  0.0227  0.1749
27479W        W34079  29.315   7.564   1.637  0.2394  0.0714  0.1962
27480W        W34080   0.297   3.408   3.593  0.0335  0.0500  0.1156
27481W        W34081   4.970   4.120   4.639 -0.1208 -0.0217  0.1536
27482W        W34082  24.230   6.881  20.004  0.3257 -0.1164 -0.2645
27483W        W34083   5.035   0.738  20.852  0.2287  0.2582 -0.0935
27484W        W34084  25.304   6.223  26.118  0.0449  0.0061 -0.1315
27485W        W34085   2.603   1.653   3.920  0.2394 -0.0658  0.2013
27486W        W34086  31.225   5.471  24.055 -0.2955  0.3752  0.2279
27487W        W34087  25.340   6.668  20.678  0.2290  0.1788 -0.0929
27488W        W34088  31.126   2.014  25.979  0.1241 -0.2365 -0.1128
27489W        W34089  25.649   5.796  11.066 -0.2500  0.2232  0.0539
27490W        W34090  26.236   2.999   1.242  0.3207  0.3241  0.1027
27491W        W34091   9.954   0.897   7.751 -0.0449  0.1053 -0.0468
27492W        W34092  28.075   0.639   9.201 -0.0027 -0.0440  0.0563
27493W        W34093  19.440   6.002  24.912 -0.0471  0.1195  0.1130
27494W        W34094  31.190   7.693  16.694 -0.0321  0.1100  0.1330
27495W        W34095  19.747   0.477  21.132 -0.1010 -0.2329 -0.0334
27496W        W34096  17.992   0.330  15.312 -0.0175  0.3156  0.3343
27497W        W34097   6.118   4.422   1.041  0.2142  0.1945 -0.0472
27498W        W34098  16.697   5.032   9.356 -0.0811  0.1339  0.2524
27499W        W34099  18.303   7.473   7.317 -0.3206 -0.0096  0.0045
27500W        W34100   6.155   1.208   1.853  0.0223  0.1548 -0.0239
27501W        W34101  11.212   1.898   6.976  0.2366  0.1814  0.0784
27502W        W34102  24.440   5.357  10.860  0.0186  0.0789  0.3778
27503W        W34103  15.240   2.898  15.474  0.1907 -0.0032 -0.0021
27504W        W34104  11.567   1.200  19.210  0.1021  0.0913 -0.0097
27505W        W34105  22.425   1.976  17.136  0.0760 -0.0436 -0.1703
27506W        W34106   9.430   2.885  16.361  0.1139 -0.0425 -0.0153
27507W        W34107   0.692   1.253  16.886  0.1028 -0.2860 -0.1225
27508W        W34108  20.573   2.553  10.764 -0.1739 -0.0682 -0.0777
27509W        W34109  18.428   1.539   5.845  0.1692  0.1228  0.2352
27510W        W34110   6.073   2.431   5.442 -0.0722  0.0400  0.2065
27511W        W34111   1.741   7.803   0.198  0.3007 -0.2200 -0.1167
27512W        W34112   0.461   2.075  18.991 -0.0681  0.3135 -0.2440
27513W        W34113  15.415   4.719   4.232  0.3318  0.2350  0.2713
27514W        W34114  30.761   5.085   4.797  0.0433 -0.0528  0.1407
27515W        W34115  17.840   0.615   2.432 -0.1141 -0.1311 -0.2289
27516W        W34116   5.969   6.620   7.421  0.1464 -0.1948  0.0062
27517W        W34117   9.123   2.565   2.340  0.3441  0.0857  0.0730
27518W        W34118  19.443   1.771  15.186  0.0642 -0.2559  0.3029
27519W        W34119  31.127   2.063  24.927 -0.3304 -0.0044  0.1536
27520W        W34120   9.513   5.970   5.347  0.1225  0.2117 -0.0870
27521W        W34121  19.523   0.023  26.110 -0.0542  0.0056 -0.0752
27522W        W34122  28.653   4.049  22.083  0.0230 -0.0518  0.0444
27523W        W34123  19.710   4.436   0.197  0.0776 -0.1034  0.1607
27524W        W34124   2.308   1.397   6.770 -0.3989  0.2108 -0.0746
27525W        W34125   6.672   5.804  11.186 -0.0413  0.1364 -0.0328
27526W        W34126  21.265   0.204  21.604  0.0013 -0.2662  0.2807
27527W        W34127  25.810   3.370  17.293 -0.0519 -0.0657 -0.1320
27528W        W34128  25.822   6.549  23.103 -0.1491  0.1103 -0.0979
27529W        W34129   3.004   5.355  17.141  0.2084  0.0048  0.1898
27530W        W34130  29.282   3.872   7.067 -0.1990 -0.0175 -0.1416
27531W        W34131   0.633   1.796  20.004  0.0706 -0.1208 -0.0267
27532W        W34132   2.537   5.818  15.787 -0.1862  0.0403 -0.1362
27533W        W34133  24.261   2.509  18.800 -0.0683 -0.0675  0.1131
27534W        W34134   9.360   3.353   0.661 -0.0332 -0.2263 -0.1223
27535W        W34135  16.425   0.820   0.248  0.0786  0.0639  0.1466
27536W        W34136  27.396   2.712   8.207 -0.0658  0.1783  0.2028
27537W        W34137  22.376   3.067   7.722  0.0329  0.2709  0.0636
27538W        W34138  31.246   5.278   9.115 -0.0863  0.3073 -0.2259
27539W        W34139  29.753   1.439  11.051 -0.0029 -0.4099 -0.1433
27540W        W34140  23.981   4.746   9.382  0.2353  0.0006 -0.0993
27541W        W34141   9.753   6.835   9.011  0.0675  0.0816 -0.2271
27542W        W34142   4.507   2.969   4.360 -0.3751 -0.0541 -0.3016
27543W        W34143   2.937   1.608   4.991 -0.0048 -0.0387 -0.2163
27544W        W34144  16.429   5.153   8.245 -0.0743 -0.0134 -0.0211
27545W        W34145   4.135   5.936   0.532  0.2586  0.2928  0.1926
27546W        W34146  28.961   4.882   6.368  0.2794 -0.0114  0.1293
27547W        W34147  30.895   4.603  20.325 -0.0882 -0.3551  0.0314
27548W        W34148  29.826   0.032   5.759 -0.1376 -0.0344 -0.0262
27549W        W34149  28.933   6.249  16.205  0.2414  0.3155  0.4360
27550W        W34150  14.414   7.349   8.571  0.3729  0.2317  0.0021
27551W        W34151  10.011   5.752  21.074  0.0103  0.0318  0.2736
27552W        W34152  28.428   6.119  16.408  0.1113 -0.0535 -0.0337
27553W        W34153   6.667   6.673   2.502 -0.2680  0.0944 -0.0577
27554W        W34154   4.265   7.786  22.063  0.0793  0.0511 -0.0271
27555W        W34155  30.980   4.779  21.426  0.0904 -0.2512 -0.0620
27556W        W34156  11.600   1.105  18.670 -0.1311  0.2044 -0.3650
27557W        W34157  19.127   7.554  25.766  0.0348  0.1573 -0.1414
27558W        W34158   6.213   2.268  15.152 -0.3866 -0.1277 -0.0087
27559W        W34159   4.512   1.231  25.882 -0.3924  0.0453 -0.0994
27560W        W34160  29.249   5.750  15.179  0.2267 -0.1325 -0.1444
27561W        W34161  26.121   1.088   5.899  0.1629 -0.0143 -0.1579
27562W        W34162  21.048   6.151  14.279 -0.1498  0.0233  0.0414
27563W        W34163   5.873   3.005  18.647 -0.2527 -0.2730 -0.0509
27564W        W34164  17.936   5.472   7.896  0.0075  0.2534  0.0350
27565W        W34165   5.652   1.590  21.428 -0.1335 -0.3311  0.0845
27566W        W34166   9.892   1.667  23.986 -0.0890 -0.1681 -0.1708
27567W        W34167  30.598   0.472   9.591 -0.0936 -0.0481 -0.0264
27568W        W34168   0.813   5.911  19.138  0.2418  0.0246 -0.1024
27569W        W34169  20.391   1.975  25.346 -0.1084  0.4352 -0.2066
27570W        W34170  31.167   5.040  22.422  0.0512  0.0131  0.1485
27571W        W34171   2.287   2.946   1.740  0.1149  0.3859  0.1997
27572W        W34172  14.142   2.226  15.881 -0.0234  0.0076  0.1842
27573W        W34173  17.820   2.923   9.317  0.1323  0.3400  0.0660
27574W        W34174  16.611   7.143   2.637  0.0222 -0.0214 -0.0197
27575W        W34175  16.203   5.351   9.133  0.0285  0.4585  0.3037
27576W        W34176  15.407   5.797  25.116  0.1188  0.2757 -0.2329
27577W        W34177  31.155   6.912  16.081  0.1403  0.0814 -0.1106
27578W        W34178  16.795   6.305  19.062  0.4402  0.1602 -0.0580
27579W        W34179  16.645   4.795   0.121 -0.4320  0.0357  0.1664
27580W        W34180  11.443   1.920  10.311  0.0913 -0.1504 -0.2337
27581W        W34181  28.399   3.388   9.845  0.0666  0.0447  0.3525
27582W        W34182  19.974   5.989  23.534  0.0895  0.0722 -0.1924
27583W        W34183  12.336   3.916  18.108 -0.2974 -0.0910  0.0044
27584W        W34184  16.400   4.039  22.385 -0.0168  0.2146  0.1052
27585W        W34185  16.835   4.172  21.186  0.0404 -0.3215 -0.4606
27586W        W34186  12.888   5.742  25.663 -0.0973  0.1794 -0.0645
27587W        W34187   0.942   3.121  22.871 -0.0232 -0.1849  0.1196
27588W        W34188  25.509   3.289  20.064  0.0441 -0.0015  0.0541
27589W        W34189  16.895   0.671  20.852 -0.0289 -0.0860 -0.0541
27590W        W34190  19.397   4.646   6.636 -0.1070 -0.0397 -0.2371
27591W        W34191  26.854   6.541  21.600 -0.5279 -0.2767  0.1855
27592W        W34192   0.815   3.900   7.034  0.1191 -0.1388  0.0028
27593W        W34193  24.723   7.686   1.991 -0.1024 -0.0809  0.3333
27594W        W34194  18.810   5.010  10.781  0.0578  0.0830  0.3532
27595W        W34195   3.791   0.474   1.897 -0.2151  0.0919 -0.1020
27596W        W34196  30.409   5.358   2.221 -0.1974  0.0293  0.1109
27597W        W34197  18.843   3.529   1.536 -0.3160  0.2927  0.1918
27598W        W34198  18.100   1.206   5.680  0.3833 -0.1523 -0.0245
27599W        W34199  23.752   1.326   3.397  0.2180 -0.0237  0.3288
27600W        W34200  22.833   1.084  19.632 -0.2480 -0.0228 -0.0116
27601W        W34201  28.575   4.616  24.503  0.2817 -0.1729 -0.4198
27602W        W34202  12.698   7.326   8.706 -0.0517  0.2451  0.1610
27603W        W34203  14.033   6.415   0.513  0.0446  0.0766  0.1208
27604W        W34204  29.820   1.191  18.108  0.0164  0.2291  0.3382
27605W        W34205  13.190   6.280  19.421 -0.3100 -0.1545  0.0571
27606W        W34206  21.234   5.503   8.108 -0.2216  0.1934  0.0762
27607W        W34207  21.171   5.305   1.783 -0.1003 -0.1261 -0.1666
27608W        W34208   5.111   4.323  18.722 -0.1154  0.1666 -0.2287
27609W        W34209   7.965   6.979  23.243  0.1628 -0.0716 -0.1540
27610W        W34210  16.848   0.144   0.449  0.1567 -0.1966  0.0365
27611W        W34211  10.443   1.994   3.770 -0.5316  0.0610 -0.3917
27612W        W34212  23.282   1.468   6.090 -0.0525 -0.5688  0.3065
27613W        W34213   2.012   3.123  15.855  0.0287 -0.2482  0.1551
27614W        W34214  25.094   0.572   9.794  0.1128 -0.0514  0.1010
27615W        W34215  28.824   2.347   9.174  0.1032 -0.2734 -0.2732
27616W        W34216  25.141   5.045   9.595  0.1500  0.2702  0.0750
27617W        W34217   9.466   1.062   7.573 -0.1447  0.5619  0.1756
27618W        W34218  28.384   5.106  25.600  0.0556 -0.0476 -0.3290
27619W        W34219   2.841   0.699   3.717  0.2451 -0.1675 -0.2170
27620W        W34220  25.146   5.226  19.507  0.0784  0.1644 -0.0194
27621W        W34221  11.182   0.467   4.293  0.0970 -0.0989 -0.0357
27622W        W34222   3.302   6.186  17.645  0.2979  0.3328  0.3901
27623W        W34223  17.839   1.174   4.187  0.1778  0.3973  0.2343
27624W        W34224  11.518   6.480   1.658  0.3430 -0.0381  0.1135
27625W        W34225   2.689   3.607   1.571  0.1676  0.0614  0.2050
27626W        W34226   4.979   6.315  16.765 -0.1187 -0.1757  0.0268
27627W        W34227  27.219   6.342  16.057  0.1880  0.0300 -0.1148
27628W        W34228  13.827   0.372   2.521 -0.4008 -0.1347  0.0322
27629W        W34229   6.507   6.276  16.939 -0.0764 -0.0270 -0.3030
27630W        W34230  30.747   0.251  17.396  0.2182  0.0704 -0.0206
27631W        W34231  27.997   2.929  20.075  0.0116  0.0856  0.2947
27632W        W34232  18.547   4.771   8.995 -0.0746  0.2966 -0.1172
27633W        W34233  21.435   6.227  19.134  0.2121  0.0382  0.1221
27634W        W34234  14.941   6.247  21.936  0.2935 -0.1348  0.0011
27635W        W34235  29.366   0.808  24.898  0.0091 -0.0648 -0.1295
27636W        W34236  25.720   1.642  20.637  0.2495 -0.1007  0.1470
27637W        W34237   2.605   7.228  21.271  0.0684 -0.1079  0.2526
27638W        W34238   9.965   1.649  14.640  0.1726  0.0277  0.1985
27639W        W34239  20.034   3.283   3.316 -0.4126  0.2306 -0.0752
27640W        W34240  11.052   6.339   2.781  0.1510  0.0953 -0.2547
27641W        W34241  20.072   2.422   4.376 -0.0439 -0.0108  0.2203
27642W        W34242  30.609   0.177   1.730 -0.2628  0.0655  0.1335
27643W        W34243   4.569   0.493  10.837  0.1743  0.0160  0.2603
27644W        W34244  26.646   3.885  21.393  0.4202  0.0697 -0.0742
27645W        W34245  27.962   2.146   9.869  0.0221 -0.0051 -0.1253
27646W        W34246  26.127   2.740  19.105  0.0634  0.0386 -0.0628
27647W        W34247   3.517   3.497   5.156  0.0145  0.3226 -0.0456
27648W        W34248  25.743   0.956   7.205  0.1007 -0.5362 -0.1522
27649W        W34249  26.746   0.926  17.997  0.0428  0.0853  0.0408
27650W        W34250  13.558   6.790   6.462  0.2894  0.1021 -0.0113
27651W        W34251  17.006   1.296  18.016 -0.0998 -0.0903  0.1094
27652W        W34252  15.981   3.132  10.238  0.0827  0.0756  0.1689
27653W        W34253   4.400   6.147  22.184  0.1762 -0.1208  0.1433
27654W        W34254   7.355   1.077  24.060 -0.0141  0.2242 -0.0323
27655W        W34255   0.042   7.289   4.766 -0.3111 -0.0542  0.2200
27656W        W34256  24.275   6.855   8.541 -0.0320 -0.0948 -0.2045
27657W        W34257  15.310   3.290   7.527  0.2616 -0.0740 -0.0308
27658W        W34258   9.850   6.261   5.647 -0.0581  0.1138  0.0614
27659W        W34259  10.878   3.655  10.495 -0.0061  0.0226  0.1240
27660W        W34260  28.225   3.038   6.137 -0.1982 -0.1033 -0.1401
27661W        W34261  18.061   7.149  23.915 -0.0348  0.0648 -0.2557
27662W        W34262   8.235   5.279  19.283  0.1288 -0.0298  0.3258
27663W        W34263   5.129   7.734  20.786  0.0854 -0.1684 -0.0137
27664W        W34264  17.223   4.657  16.837 -0.3544  0.0683  0.0155
27665W        W34265  17.797   3.008  16.638  0.0199 -0.0774 -0.0449
27666W        W34266   7.498   0.644   9.798  0.0300 -0.4033  0.1728
27667W        W34267   1.564   4.880   7.460 -0.0129  0.0771  0.0180
27668W        W34268  21.613   0.411  22.948 -0.1031 -0.1890 -0.1578
27669W        W34269  11.903   6.694  17.058 -0.0188 -0.0194 -0.0434
27670W        W34270  14.072   7.789  24.785 -0.0389  0.1397  0.0970
27671W        W34271   4.334   5.324   3.856 -0.0463  0.3248  0.0670
27672W        W34272  19.109   0.650  25.331 -0.0495  0.1842 -0.1313
27673W        W34273  27.597   4.597   6.408 -0.2548 -0.0469  0.2751
27674W        W34274  19.892   3.317  16.087  0.2740  0.0089 -0.0384
27675W        W34275   9.908   5.704   1.956 -0.0065 -0.1847 -0.0579
27676W        W34276  29.763   3.830  16.938  0.1637  0.1230  0.0264
27677W        W34277  12.478   7.392  16.469  0.0806  0.2141 -0.0285
27678W        W34278  19.186   6.293  16.282 -0.0270  0.1269 -0.2580
27679W        W34279  12.871   1.665   9.570 -0.2024  0.0674 -0.1038
27680W        W34280  30.091   4.113  23.572  0.2487 -0.1214 -0.1413
27681W        W34281  31.253   0.841   2.466 -0.2015  0.1869 -0.0782
27682W        W34282   8.138   0.327  16.988 -0.0763  0.0544 -0.4279
27683W        W34283  21.185   3.712  10.405 -0.1718  0.2384  0.2557
27684W        W34284  29.037   2.182  25.157 -0.2064  0.1842  0.2061
27685W        W34285  19.008   6.645   6.326 -0.3269 -0.1530  0.0095
27686W        W34286  23.220   0.820  15.441 -0.2252  0.1917  0.1085
27687W        W34287  29.302   0.435  24.606  0.1588  0.2561  0.2197
27688W        W34288  22.629   4.487   0.588 -0.0118 -0.2072  0.3606
27689W        W34289  29.292   2.005   7.090 -0.0737 -0.3988 -0.2031
27690W        W34290  21.150   3.898  18.226  0.0765  0.0733 -0.1891
27691W        W34291  21.379   4.032  17.156  0.2271 -0.1316  0.2015
27692W        W34292  24.664   3.868   8.446 -0.0172 -0.0467 -0.0509
27693W        W34293   0.297   1.772  22.273 -0.0195  0.0966 -0.1735
27694W        W34294   7.329   3.962  16.243 -0.0109 -0.2903  0.2117
27695W        W34295  19.384   7.292   6.787  0.1270 -0.0070 -0.2266
27696W        W34296   7.073   0.538  21.846  0.1241 -0.0161 -0.0590
27697W        W34297  31.274   0.495   8.943  0.0134  0.1035 -0.2993
27698W        W34298   5.333   6.967   9.582  0.1013 -0.2569 -0.0714
27699W        W34299  30.476   5.420  17.167  0.2031  0.0924  0.1310
27700W        W34300  16.367   7.571   2.753  0.0762  0.0816 -0.1107
27701W        W34301  20.323   0.499  18.984 -0.2379 -0.0398  0.0364
27702W        W34302   6.328   7.395  25.079  0.2285  0.1460  0.1580
27703W        W34303   3.637   6.227  16.347  0.0778  0.2251  0.1009
27704W        W34304  12.386   7.106   4.666 -0.2835  0.0303 -0.1130
27705W        W34305  23.372   7.409  16.191  0.1997 -0.0491  0.1145
27706W        W34306  26.357   2.479   0.240  0.1303  0.3007 -0.3142
27707W        W34307  20.433   5.342  18.975 -0.0071 -0.0182 -0.1394
27708W        W34308   7.608   3.038   5.626  0.0038  0.0881 -0.0982
27709W        W34309  24.326   6.471  19.258 -0.2306  0.1245  0.0884
27710W        W34310  25.293   4.562  26.089 -0.1853 -0.1824  0.0556
27711W        W34311  18.265   0.923   7.825 -0.1538  0.1893 -0.1785
27712W        W34312   7.766   1.235   1.665 -0.1903 -0.0262 -0.0604
27713W        W34313   7.687   4.872  22.309  0.3175  0.1921 -0.1323
27714W        W34314  21.174   5.483  21.584  0.2872  0.1890 -0.1950
27715W        W34315   0.140   1.459   8.139  0.0587 -0.2625  0.0711
27716W        W34316  30.474   0.839  20.499  0.1993 -0.0034 -0.0856
27717W        W34317  17.625   6.160  10.870  0.0893 -0.3924 -0.2254
27718W        W34318   0.133   0.128   7.303  0.2060  0.0399 -0.3181
27719W        W34319  20.633   1.800   7.822  0.1091 -0.1100  0.2398
27720W        W34320  27.813   4.190  22.204  0.0767  0.0590  0.3927
27721W        W34321   9.372   6.826   2.775 -0.1161 -0.0403 -0.2739
27722W        W34322   4.606   0.305   6.137  0.2809 -0.3471  0.0424
27723W        W34323   6.745   3.526  11.407 -0.1722 -0.0329  0.1325
27724W        W34324  14.798   4.143  22.120 -0.1747  0.0067  0.0698
27725W        W34325  28.070   3.154   7.550 -0.2423 -0.0044  0.2554
27726W        W34326   1.267   5.484   1.139  0.2093  0.0390 -0.0909
27727W        W34327   0.724   2.660  19.506 -0.0330 -0.1413  0.0079
27728W        W34328  30.502   5.077  25.900 -0.3574 -0.0121  0.0330
27729W        W34329  26.452   2.435   6.313  0.0523  0.2457 -0.0960
27730W        W34330   0.549   6.829  21.425 -0.1598 -0.1989  0.1216
27731W        W34331  31.257   7.272  25.516  0.1546 -0.2420 -0.1174
27732W        W34332  18.358   6.160   3.753  0.2536 -0.1563 -0.1152
27733W        W34333  11.225   6.203   3.718  0.0849 -0.0248  0.2035
27734W        W34334   5.745   0.248  21.288 -0.0310  0.2206 -0.2331
27735W        W34335   7.549   4.488   9.001 -0.4382 -0.3961 -0.0686
27736W        W34336   8.782   6.538  25.375  0.3097  0.3019  0.0284
27737W        W34337   8.026   2.685  24.938 -0.6023 -0.1727  0.0647
27738W        W34338  20.584   2.671   9.833  0.1880 -0.1332  0.1128
27739W        W34339  19.990   7.675  10.421  0.1530 -0.0960  0.1829
27740W        W34340   5.888   5.259   9.438 -0.2960  0.0654  0.2479
27741W        W34341  16.862   1.980  16.005 -0.0115  0.0639  0.1919
27742W        W34342   3.491   4.619  21.004  0.0656  0.0654  0.1858
27743W        W34343  29.607   4.306  20.537  0.3207  0.0725  0.0714
27744W        W34344   8.792   3.641  25.215 -0.1915 -0.1001 -0.1302
27745W        W34345  30.635   4.198  25.550  0.1099 -0.1541  0.3229
27746W        W34346   6.916   6.579  18.521  0.0793  0.1239  0.0929
27747W        W34347  25.551   6.970  22.237  0.1600  0.2645 -0.1008
27748W        W34348  22.706   6.907   9.300 -0.0718  0.2859  0.0630
27749W        W34349   5.931   4.593   6.476 -0.0971  0.1766  0.2971
27750W        W34350  21.368   4.713   1.086 -0.1600 -0.2924  0.1715
27751W        W34351   9.172   3.988   9.053 -0.0280 -0.0334  0.2303
27752W        W34352  28.826   7.396  24.104  0.1048 -0.3015  0.2015
27753W        W34353  31.048   7.596   6.639  0.0196  0.0577  0.0526
27754W        W34354   6.863   0.496  11.336  0.3036 -0.1935  0.2451
27755W        W34355  28.291   2.314  25.422  0.0054  0.0860  0.0166
27756W        W34356   4.099   0.925  19.247 -0.2050  0.1878  0.4047
27757W        W34357  17.054   3.973   8.569 -0.0442  0.1253  0.0075
27758W        W34358  19.809   1.182   7.543 -0.1247 -0.1475  0.1969
27759W        W34359  24.803   7.321  16.797  0.1244  0.0693  0.3356
27760W        W34360  25.790   2.442   4.868 -0.0014  0.0407  0.0604
27761W        W34361  17.391   0.263  25.610 -0.2958  0.2141  0.1709
27762W        W34362   4.837   6.574   9.618 -0.1264 -0.1961  0.0286
27763W        W34363  28.994   2.020   9.593  0.1607  0.3025 -0.1618
27764W        W34364  18.919   5.740   6.952 -0.0062  0.1697 -0.1514
27765W        W34365   1.133   4.950  20.106  0.0749 -0.0214  0.1338
27766W        W34366  28.792   4.954  25.918  0.0647 -0.0633 -0.1225
27767W        W34367  18.526   6.902  17.670  0.0619 -0.0845  0.0315
27768W        W34368  16.911   2.161   6.549 -0.3097 -0.0241 -0.3657
27769W        W34369   3.059   1.672   7.250  0.0845  0.1108  0.2313
27770W        W34370  21.821   7.204  25.762  0.1576 -0.0427  0.0107
27771W        W34371  18.619   5.205   1.170  0.1870  0.1034 -0.1853
27772W        W34372  24.044   3.264  19.912 -0.0003  0.0599  0.2167
27773W        W34373  13.721   6.804   8.463 -0.0047 -0.2214 -0.0966
27774W        W34374   1.862   3.484  22.982 -0.1958 -0.0854  0.0520
27775W        W34375  24.389   7.823  18.265  0.2426  0.4236  0.0441
27776W        W34376  18.957   1.412   3.644 -0.0550 -0.1475  0.2676
27777W        W34377  10.842   3.484  20.393 -0.0881 -0.2016  0.0737
27778W        W34378  27.514   2.742   4.733 -0.0383 -0.1706  0.0611
27779W        W34379  17.641   2.557   6.800  0.1319  0.2453  0.1576
27780W        W34380  11.720   3.272   5.591  0.0861  0.3102  0.0118
27781W        W34381  13.453   7.114  21.675 -0.0263 -0.1551 -0.4581
27782W        W34382  17.788   7.506  17.741  0.1654  0.0985  0.0703
27783W        W34383  24.066   1.791  22.754  0.0611  0.1053  0.2174
27784W        W34384  17.152   5.618  23.814 -0.1288 -0.1294  0.3230
27785W        W34385  12.272   5.794   4.788 -0.2059 -0.2514  0.0468
27786W        W34386  25.337   6.842  21.384  0.2529  0.0844  0.2336
27787W        W34387   8.855   0.160  25.080 -0.1977 -0.2469  0.1629
27788W        W34388  27.164   5.584  10.042 -0.0215 -0.1139  0.0776
27789W        W34389  19.763   4.716  18.837 -0.0124  0.0460 -0.1067
27790W        W34390  24.094   1.034   8.821  0.2515 -0.2119 -0.0357
27791W        W34391  16.439   1.508  19.166 -0.0717  0.0911 -0.0521
27792W        W34392  25.857   2.714  15.270 -0.0092 -0.2427  0.0345
27793W        W34393  10.296   7.632  18.692  0.0561  0.0287  0.1138
27794W        W34394  18.818   2.028  25.409 -0.0130 -0.1794  0.1395
27795W        W34395  23.349   7.217  19.342  0.0007 -0.0228  0.1268
27796W        W34396  21.095   6.648  15.152 -0.0167  0.2120  0.3178
27797W        W34397  24.446   6.833   9.017  0.1393 -0.1186 -0.1564
27798W        W34398  17.863   1.089   9.327  0.1417  0.0946 -0.2374
27799W        W34399  30.412   2.121  19.147  0.1462 -0.4831 -0.0004
27800W        W34400  12.612   4.561   4.684  0.1432 -0.1576  0.0203
27801W        W34401  30.352   1.170   2.361  0.0889 -0.3225 -0.0461
27802W        W34402  11.991   0.445  18.285  0.0052  0.0428  0.3904
27803W        W34403  18.052   3.004   0.797  0.0512  0.0115 -0.4059
27804W        W34404   2.178   7.386  24.031  0.0587  0.0655  0.0035
27805W        W34405  10.583   7.473   8.624  0.0987  0.1176  0.0550
27806W        W34406  24.574   6.335   5.964  0.0249 -0.1222 -0.1336
27807W        W34407   3.729   0.554   8.272 -0.2142 -0.0200 -0.4262
27808W        W34408  29.076   0.880  17.130  0.0080  0.1748  0.2615
27809W        W34409   7.871   6.543  20.715 -0.0337  0.1029  0.0626
27810W        W34410   5.802   2.017  21.832  0.1598  0.2639 -0.1398
27811W        W34411  15.706   7.296   1.973 -0.0130  0.1655 -0.3506
27812W        W34412   6.582   0.988   8.323 -0.1272  0.2041 -0.1859
27813W        W34413  26.114   5.929  10.770 -0.1259  0.0216  0.3725
27814W        W34414  13.302   2.732   1.484  0.0685  0.2146 -0.0798
27815W        W34415   7.751   1.937  15.252  0.0842 -0.3028 -0.1452
27816W        W34416  18.110   5.244  10.421  0.2437 -0.1516 -0.3272
27817W        W34417  29.351   0.706   6.360 -0.4064  0.2335 -0.0483
27818W        W34418   9.414   2.006   5.966 -0.0186 -0.0161 -0.1432
27819W        W34419   9.238   3.377   2.597 -0.2386  0.2870 -0.1005
27820W        W34420  29.061   6.000   5.142  0.1060 -0.0208  0.0444
27821W        W34421   1.268   2.398  10.727  0.1354 -0.1590  0.0715
27822W        W34422   0.714   0.022   8.139  0.1624  0.0738 -0.0283
27823W        W34423  27.933   6.920  23.168  0.0172  0.1191 -0.4984
27824W        W34424  28.432   0.897   5.116  0.0622  0.1996  0.0590
27825W        W34425   4.557   7.717  16.180  0.1821 -0.0779  0.0401
27826W        W34426  13.602   0.320   1.690  0.5195  0.2893  0.2076
27827W        W34427   2.657   1.222  19.907  0.1067 -0.1133 -0.1685
27828W        W34428  20.232   7.027   6.164 -0.1933  0.0323  0.1745
27829W        W34429   0.811   3.126   3.458 -0.0568 -0.1191 -0.1169
27830W        W34430   9.739   2.158  22.741 -0.1746 -0.2793  0.0084
27831W        W34431  15.637   0.093   0.883  0.0177  0.3280 -0.0165
27832W        W34432   3.282   1.378  16.865  0.1612 -0.0080  0.1331
27833W        W34433   8.914   1.527  19.429  0.1420  0.1691  0.2407
27834W        W34434  11.127   7.568   2.606 -0.1416  0.2464 -0.0910
27835W        W34435  25.334   7.257  16.765 -0.1593  0.1772  0.2597
27836W        W34436  25.240   7.169  15.893 -0.0686  0.0303  0.0670
27837W        W34437   7.379   1.452  18.290 -0.0922  0.1884 -0.0467
27838W        W34438   7.277   6.422  19.601 -0.0791 -0.1279  0.2566
27839W        W34439  18.148   1.822  19.791 -0.1607  0.1739 -0.3023
27840W        W34440  28.106   0.345  22.453 -0.0209  0.0768 -0.1408
27841W        W34441  15.210   6.832   8.270  0.2104  0.3409  0.1651
27842W        W34442  26.707   6.452  22.947 -0.0626 -0.2752 -0.0987
27843W        W34443  15.407   3.651  18.896  0.0837  0.3725 -0.1616
27844W        W34444  10.508   5.365   9.632 -0.0124  0.1249  0.3249
27845W        W34445   5.941   1.114  15.412 -0.0203 -0.2049  0.2919
27846W        W34446   0.612   3.396  10.088  0.0470 -0.1279  0.0435
27847W        W34447  10.065   1.469   0.491  0.3341  0.0926 -0.0789
27848W        W34448  26.125   2.535  23.368 -0.0166 -0.2857  0.0695
27849W        W34449   4.941   6.793   5.300 -0.1189 -0.0402 -0.0862
27850W        W34450  28.660   3.871   4.047 -0.2288  0.1337  0.1713
27851W        W34451   7.074   1.559  18.659 -0.2747  0.3094  0.2168
27852W        W34452  13.830   5.209  20.407 -0.2126 -0.0589  0.2324
27853W        W34453   2.753   7.729   0.241  0.0586 -0.3368 -0.1720
27854W        W34454  16.020   7.587  22.345  0.1903 -0.0362 -0.1932
27855W        W34455  13.519   7.093  25.695 -0.0570 -0.0090  0.0064
27856W        W34456   7.044   4.821  25.232 -0.1741 -0.0854  0.0216
27857W        W34457   3.889   7.616  21.737 -0.1891  0.2145 -0.1383
27858W        W34458  25.907   3.096   4.667 -0.0942 -0.4275 -0.0267
27859W        W34459   1.765   6.005  12.046 -0.0450  0.4879 -0.1743
27860W        W34460  31.217   0.601  25.529  0.2246 -0.2469 -0.1478
27861W        W34461  14.046   4.124  24.320  0.2162 -0.1413  0.4257
27862W        W34462   8.264   0.363   5.500 -0.0094  0.0431  0.1148
27863W        W34463   2.310   4.987  18.238  0.2514  0.0570 -0.1377
27864W        W34464  18.214   7.363  22.029 -0.0861 -0.4901  0.3562
27865W        W34465  20.925   7.405  19.968  0.0872  0.0230  0.0489
27866W        W34466   0.333   4.811  22.154  0.1093  0.1894 -0.2315
27867W        W34467  22.379   5.997  16.862  0.1534 -0.2346  0.0554
27868W        W34468  29.960   4.095   3.870 -0.0525 -0.0441  0.0726
27869W        W34469   5.576   3.502  18.653 -0.0337  0.0727 -0.2577
27870W        W34470  22.667   4.762   1.413 -0.0330  0.0190  0.0368
27871W        W34471  11.221   5.451  24.783  0.1034 -0.3007 -0.2005
27872W        W34472  17.141   3.291  24.209 -0.0929 -0.2558  0.0745
27873W        W34473  12.419   2.799   1.092 -0.3346  0.1804 -0.2678
27874W        W34474  30.638   5.759  22.174  0.1611 -0.2084  0.0378
27875W        W34475  22.844   3.723   1.182  0.0302 -0.1960  0.1958
27876W        W34476  16.242   4.389   7.758 -0.1025 -0.0881 -0.0917
27877W        W34477   8.780   4.603   7.541 -0.0560  0.0532  0.0347
27878W        W34478   4.621   5.773   2.914 -0.0305 -0.1364  0.1600
27879W        W34479  21.343   4.629  15.838 -0.0088 -0.0202 -0.1321
27880W        W34480  18.274   7.419   9.820 -0.0935  0.2071 -0.0437
27881W        W34481   6.003   4.553  20.217 -0.0658 -0.0792 -0.1524
27882W        W34482  18.135   4.952  17.161 -0.0258 -0.1062  0.0485
27883W        W34483   4.204   7.377  18.679  0.2936 -0.2341  0.0402
27884W        W34484  15.232   7.559  19.933 -0.1908 -0.1320  0.2930
27885W        W34485  21.417   6.577   6.274  0.1450  0.3042 -0.3711
27886W        W34486  21.712   7.052   7.302  0.1678 -0.3208  0.1409
27887W        W34487  15.668   7.366  19.927 -0.3469 -0.0185 -0.0190
27888W        W34488   5.907   7.411  21.781 -0.1845  0.1106 -0.0955
27889W        W34489  22.504   7.396  16.705  0.1681 -0.1788  0.1382
27890W        W34490  15.151   2.617  17.548 -0.0165 -0.1133 -0.4621
27891W        W34491   3.601   2.736  25.759 -0.1109  0.0435  0.2812
27892W        W34492  31.197   2.520  16.452 -0.2107  0.0183  0.0179
27893W        W34493   9.415   3.115  15.536  0.0793 -0.3544 -0.1555
27894W        W34494  26.271   6.504   3.745 -0.1953 -0.3469  0.4384
27895W        W34495  31.295   6.474   3.697  0.0428 -0.0726 -0.3026
27896W        W34496  25.948   0.063   3.734  0.2118  0.2736 -0.3070
27897W        W34497  30.122   2.109   4.446 -0.1462 -0.0704 -0.1508
27898W        W34498  27.431   2.054   2.193 -0.1473  0.0666 -0.1069
27899W        W34499   3.076   7.295   1.215 -0.3193 -0.1117  0.3137
27900W        W34500  28.067   5.366  21.455 -0.1644  0.0714  0.0332
27901W        W34501   4.368   5.178   2.090 -0.1340 -0.1310  0.1924
27902W        W34502   8.084   0.299   1.478  0.0918 -0.0117 -0.1378
27903W        W34503  14.344   2.215  23.858 -0.0591  0.1883  0.3379
27904W        W34504  14.257   6.888  24.728 -0.1863 -0.2257  0.0962
27905W        W34505   9.251   5.423  17.305  0.0930 -0.0387  0.0174
27906W        W34506  20.966   0.463   0.732  0.0407 -0.1338  0.2129
27907W        W34507   1.527   0.111  16.708  0.1081  0.1595 -0.1055
27908W        W34508   4.304   6.387   0.753  0.1119 -0.1990  0.2208
27909W        W34509   0.712   7.283  19.625 -0.1158  0.1148 -0.1095
27910W        W34510  16.880   0.280   1.487  0.3719 -0.4511 -0.0554
27911W        W34511  17.149   5.986   4.562  0.1044 -0.2122 -0.2308
27912W        W34512  10.755   4.666   2.447  0.0724  0.0734 -0.0480
27913W        W34513  22.025   0.410  22.643  0.3369  0.2371 -0.0100
27914W        W34514  13.803   1.034  10.674 -0.4614 -0.1331 -0.2012
27915W        W34515  24.561   0.411  16.473 -0.0626 -0.0596 -0.2645
27916W        W34516   0.059   5.882   9.538  0.0966 -0.2566 -0.0468
27917W        W34517   7.578   5.132  21.663 -0.0913  0.0091  0.0205
27918W        W34518  23.458   5.837   4.907  0.2045 -0.0048 -0.0465
27919W        W34519  17.422   4.043  10.053  0.1925 -0.2154 -0.0330
27920W        W34520   7.198   2.578   6.898 -0.3589  0.2949  0.2373
27921W        W34521   8.774   4.864   2.745  0.1985 -0.0992  0.1576
27922W        W34522  12.247   4.271  25.836 -0.4215 -0.0007  0.1514
27923W        W34523   6.420   1.677   0.214 -0.0498  0.0770 -0.3043
27924W        W34524  19.369   6.132  22.307 -0.2719  0.0081 -0.1390
27925W        W34525  13.579   5.251   6.733 -0.0416  0.0013 -0.2741
27926W        W34526  15.020   6.670   9.216  0.0078  0.1312  0.1956
27927W        W34527   0.516   5.803  10.340 -0.2001 -0.2222  0.0673
27928W        W34528   7.968   2.246   2.355 -0.0093 -0.0250  0.0770
27929W        W34529  12.742   4.526  17.495 -0.1565 -0.4066 -0.0190
27930W        W34530  10.696   2.027  11.429 -0.1925 -0.0379  0.1604
27931W        W34531   2.721   0.913  22.378  0.2483  0.2272  0.0042
27932W        W34532  29.206   3.232  18.748  0.1598 -0.0061 -0.2322
27933W        W34533  19.220   5.192   4.662 -0.1446  0.0632 -0.0328
27934W        W34534  29.158   6.405   7.176  0.0262  0.2024 -0.1958
27935W        W34535  18.930   6.383   5.467 -0.1415  0.1953  0.3703
27936W        W34536   3.663   6.812  20.700  0.3218  0.1245 -0.2438
27937W        W34537  23.200   1.811   8.833 -0.1962  0.3400 -0.0016
27938W        W34538  12.183   7.521   3.734  0.3355 -0.1806 -0.0919
27939W        W34539  17.889   5.408   4.838 -0.1147  0.1146 -0.1694
27940W        W34540  14.751   2.675  10.687 -0.1685 -0.4263 -0.1851
27941W        W34541  15.714   6.661   8.738 -0.0334  0.1278  0.0529
27942W        W34542  17.227   0.943  21.085  0.2040  0.2374 -0.0077
27943W        W34543   0.851   2.265   2.942 -0.1140  0.0438  0.0111
27944W        W34544   1.333   1.963  10.562  0.3852  0.2744  0.2083
27945W        W34545  12.819   6.988  19.170  0.1585  0.2977 -0.3906
27946W        W34546   5.071   0.313   5.905  0.1045 -0.1960  0.2276
27947W        W34547  16.612   2.302  15.723 -0.1969 -0.3346 -0.0033
27948W        W34548   1.773   5.711  25.057  0.0520 -0.0116  0.2334
27949W        W34549  25.394   5.513   4.691 -0.1261  0.1756 -0.3039
27950W        W34550  13.118   2.189  20.364 -0.0080 -0.0672  0.0310
27951W        W34551   9.951   5.646   2.508 -0.1155  0.0433 -0.0263
27952W        W34552  16.752   2.197   7.072 -0.0472  0.1116 -0.1463
27953W        W34553   1.070   7.657  21.572 -0.0450  0.2529 -0.1837
27954W        W34554  18.260   5.575  21.414  0.1199 -0.1533 -0.1612
27955W        W34555  17.657   5.388  22.301 -0.0055  0.1884  0.0289
27956W        W34556   8.072   1.209   2.588 -0.2301  0.1756  0.0072
27957W        W34557   9.869   4.771   9.361  0.0762 -0.1054  0.0134
27958W        W34558  13.221   1.023   1.653 -0.0105  0.2686 -0.0411
27959W        W34559  19.132   0.077  14.690  0.1642 -0.1844  0.4356
27960W        W34560  20.273   6.513   3.584 -0.1571  0.1849  0.0544
27961W        W34561  22.998   1.078   6.523 -0.2860  0.1659 -0.1111
27962W        W34562   1.303   5.628   8.151 -0.0200  0.1261 -0.0287
27963W        W34563  24.761   6.324  18.271  0.2002  0.1595 -0.0988
27964W        W34564   1.873   3.940   4.928  0.0852  0.1728 -0.1085
27965W        W34565  22.595   4.807   2.599  0.1092 -0.0333 -0.0598
27966W        W34566  12.566   0.471  22.332  0.0898  0.1383  0.0134
27967W        W34567  31.094   4.081  23.225 -0.0076 -0.2377 -0.0471
27968W        W34568   9.373   0.078   0.019  0.1327 -0.1588  0.0261
27969W        W34569  22.455   2.119   6.965 -0.1237 -0.2021  0.2995
27970W        W34570  10.069   2.857  20.122 -0.1612  0.0638  0.0597
27971W        W34571   1.565   3.902   4.119  0.0317 -0.0335  0.2017
27972W        W34572   4.029   4.638  15.186 -0.0460  0.2014 -0.0788
27973W        W34573  26.519   5.933   0.569 -0.1694 -0.2550  0.2792
27974W        W34574  14.531   2.038   2.462  0.0207 -0.2822 -0.1481
27975W        W34575  17.045   0.827  19.988 -0.0400 -0.2400  0.2530
27976W        W34576   2.631   2.476  17.032 -0.0232 -0.0968  0.1071
27977W        W34577  21.237   2.402   7.491 -0.2123  0.1124 -0.0664
27978W        W34578   0.727   1.934  20.722 -0.0186 -0.2528 -0.0901
27979W        W34579   1.636   3.219  20.535 -0.1393  0.1513  0.0375
27980W        W34580  23.731   4.364  23.756 -0.1111  0.2558 -0.3755
27981W        W34581  24.831   1.045   1.372 -0.0572  0.1451 -0.1622
27982W        W34582  22.978   4.656  23.015 -0.1018 -0.2308  0.1877
27983W        W34583  20.210   5.449   7.454 -0.0706  0.3703  0.0805
27984W        W34584  19.093   5.529   4.267  0.1994 -0.2325  0.0378
27985W        W34585  20.181   5.770   0.085  0.0493 -0.1145 -0.1462
27986W        W34586  29.072   0.158  21.267  0.3474  0.1662 -0.2239
27987W        W34587   1.794   5.105   4.170  0.3045  0.0117 -0.0188
27988W        W34588   1.589   6.120   3.408 -0.3436 -0.0266  0.3218
27989W        W34589  17.399   4.330  14.984  0.2891  0.0040  0.3619
27990W        W34590  12.348   7.046   4.092 -0.0329  0.0404 -0.0520
27991W        W34591  23.661   7.596  24.710 -0.2812 -0.2159  0.2959
27992W        W34592  28.936   0.118  15.351 -0.0212 -0.3290 -0.1398
27993W        W34593  25.379   0.139  18.084 -0.0250 -0.1442  0.1400
27994W        W34594   8.605   3.553  19.737  0.0402 -0.0038 -0.1020
27995W        W34595   6.584   5.304   9.979 -0.2328  0.2400 -0.1248
27996W        W34596   5.387   4.771   1.590  0.1510 -0.0429  0.1018
27997W        W34597  28.510   5.596   7.038 -0.0100  0.0328 -0.1103
27998W        W34598   7.090   7.764  26.037  0.0051 -0.0083  0.2504
27999W        W34599   2.883   6.322   7.464 -0.1869  0.0027  0.0511
28000W        W34600  10.774   6.869  18.932 -0.1192  0.1747 -0.1378
28001W        W34601  20.670   7.492   2.573 -0.0791 -0.1771  0.0737
28002W        W34602  27.432   5.137   0.107 -0.0082 -0.1785  0.2366
28003W        W34603  30.094   5.009   6.259  0.1365 -0.1045 -0.0978
28004W        W34604  29.318   7.550   4.381  0.0537  0.2616  0.1065
28005W        W34605  24.354   7.010  10.139  0.1002 -0.0227 -0.1210
28006W        W34606  15.819   4.588   9.727  0.0920  0.0967 -0.0839
28007W        W34607   4.535   3.050  18.603  0.2754  0.0521  0.0846
28008W        W34608  14.871   3.992  25.336 -0.2420 -0.3990  0.0564
28009W        W34609  29.118   3.232   0.825  0.0989 -0.0460  0.0495
28010W        W34610  30.065   1.620   2.059  0.2638  0.2518 -0.0869
28011W        W34611   2.909   2.794  15.578 -0.0044 -0.0547  0.3259
28012W        W34612   4.333   7.098   7.164  0.1364 -0.0639 -0.1900
28013W        W34613   7.688   1.256  10.999 -0.1170  0.1165  0.1308
28014W        W34614  18.014   6.460   9.446 -0.0739  0.0173 -0.2129
28015W        W34615   0.196   2.242   2.975 -0.0177 -0.2596 -0.1631
28016W        W34616   7.621   7.777  23.676  0.2297 -0.1359  0.0552
28017W        W34617   8.687   1.938   8.268 -0.1968  0.2840 -0.3547
28018W        W34618  31.095   0.185   1.829 -0.0351 -0.0230 -0.1434
28019W        W34619  13.958   2.142  21.263  0.3319 -0.1420 -0.3834
28020W        W34620  27.364   2.489  22.806 -0.0460  0.1194  0.1640
28021W        W34621  27.256   3.038  22.529 -0.2106 -0.3356  0.0337
28022W        W34622   2.978   3.659   8.821  0.3781  0.1838 -0.1683
28023W        W34623   8.606   3.454  23.227  0.1681  0.2121 -0.1663
28024W        W34624  14.044   0.644  10.331  0.0727  0.1082  0.0900
28025W        W34625  13.129   3.992  20.423  0.1539  0.2721  0.0417
28026W        W34626  24.910   5.683   1.374  0.1339 -0.0250 -0.1856
28027W        W34627   3.199   5.303  17.645  0.0227 -0.2459  0.0585
28028W        W34628   7.909   7.352   1.564 -0.3619  0.0010 -0.2463
28029W        W34629  20.120   4.179   5.230  0.2641  0.1714 -0.3911
28030W        W34630   1.304   1.883   8.615  0.3396  0.0311 -0.0732
28031W        W34631  27.021   2.161   1.895  0.0379 -0.2791  0.0937
28032W        W34632  17.645   0.297   6.742  0.1960 -0.1178  0.0064
28033W        W34633  15.305   5.809   0.450  0.0166  0.2624 -0.2910
28034W        W34634  20.176   1.712  19.851 -0.0700 -0.0587  0.0736
28035W        W34635  30.870   7.670  21.140  0.0340 -0.0111  0.0499
28036W        W34636  12.160   2.023   3.827  0.0416 -0.0200 -0.0629
28037W        W34637   3.364   7.493   3.531 -0.1363  0.0170  0.0178
28038W        W34638  21.723   5.288   7.243  0.1124  0.1804 -0.0639
28039W        W34639  18.257   1.885   4.202 -0.1836 -0.0083  0.0246
28040W        W34640  26.510   2.669   8.338  0.3141  0.0235  0.1367
28041W        W34641  19.917   3.638   4.509  0.0631 -0.0537 -0.2125
28042W        W34642   3.033   0.520  10.595 -0.3264 -0.0469 -0.0967
28043W        W34643  20.557   0.259   6.184 -0.1257  0.0949 -0.3818
28044W        W34644  15.819   0.095   2.728  0.0830 -0.0554  0.0706
28045W        W34645  10.335   6.529   1.920  0.0073  0.0374 -0.0567
28046W        W34646  17.931   3.021   2.105 -0.0305 -0.0692  0.1378
28047W        W34647  27.011   4.919  26.013 -0.1878 -0.2641 -0.2004
28048W        W34648   3.850   0.400   1.048 -0.1312  0.4881 -0.0064
28049W        W34649  12.265   7.056  18.797  0.1804 -0.1222 -0.1613
28050W        W34650  21.140   4.121   4.879  0.3366  0.0295  0.1963
28051W        W34651  10.720   3.174  10.544 -0.0260 -0.0781 -0.1447
28052W        W34652   4.605   0.522   3.907 -0.1605 -0.1191 -0.2274
28053W        W34653  13.086   1.464  22.950 -0.0275  0.0519 -0.1753
28054W        W34654  21.910   6.076   3.798 -0.4762  0.0396  0.0255
28055W        W34655   1.549   2.507   0.113 -0.0629 -0.0272 -0.0603
28056W        W34656  31.212   7.645  10.592 -0.2080  0.0960  0.2634
28057W        W34657  22.810   5.878  19.806  0.0701  0.0769  0.2877
28058W        W34658   8.876   1.780  17.802 -0.0859 -0.1112 -0.1100
28059W        W34659   3.293   4.408  23.432 -0.1112  0.2033 -0.2390
28060W        W34660  11.932   0.887  22.739 -0.0517  0.0257 -0.0138
28061W        W34661   6.524   1.243  18.802  0.0243 -0.1566  0.1071
28062W        W34662  20.868   3.554  15.974 -0.0823 -0.1826 -0.0074
28063W        W34663   3.385   6.433  11.211  0.0264  0.0492 -0.0675
28064W        W34664  16.114   2.353   4.879  0.0890 -0.0071 -0.0712
28065W        W34665  18.828   7.481  25.311 -0.0084  0.2715 -0.2113
28066W        W34666  30.351   6.735   0.651  0.0169  0.1038 -0.3610
28067W        W34667  11.428   5.870   6.911  0.1362 -0.0130 -0.2157
28068W        W34668   2.207   1.899  23.493  0.2347 -0.1800  0.2157
28069W        W34669   3.520   1.187   5.732  0.2569 -0.0723  0.1484
28070W        W34670  16.577   1.443   8.117 -0.1127 -0.1912 -0.0675
28071W        W34671   8.085   6.762   6.941 -0.1667 -0.0101 -0.0790
28072W        W34672  17.094   5.949  15.918  0.2158 -0.1633 -0.0168
28073W        W34673  25.424   2.384  20.095 -0.2001 -0.2689  0.0249
28074W        W34674  18.161   3.448  10.004 -0.1876  0.2014 -0.4317
28075W        W34675  24.654   1.559   9.445  0.0607 -0.3807 -0.1876
28076W        W34676  12.676   3.192   1.292  0.0376  0.1935 -0.2691
28077W        W34677   5.338   3.362   3.007 -0.1441  0.3171 -0.3293
28078W        W34678   6.071   1.912   9.599  0.2881  0.0495 -0.1810
28079W        W34679  21.305   5.204  16.399 -0.1418  0.0290  0.0219
28080W        W34680  21.449   4.984   3.566  0.1176 -0.0129 -0.0803
28081W        W34681   0.840   3.434   3.031 -0.0778  0.1636 -0.0139
28082W        W34682  14.778   4.742  10.628  0.4189 -0.4676  0.0430
28083W        W34683   6.720   2.604   6.731 -0.1867  0.0100  0.1832
28084W        W34684  26.615   5.562   0.964  0.0974 -0.0272 -0.0265
28085W        W34685  23.421   2.751  17.093 -0.2174 -0.1879  0.1060
28086W        W34686  12.677   7.101  24.850 -0.0749  0.0846  0.0974
28087W        W34687  18.351   6.755   2.438  0.0111  0.0416  0.1057
28088W        W34688  17.293   3.647   6.876  0.1065  0.0649  0.3242
28089W        W34689   1.284   2.066   1.314  0.1416 -0.2875  0.1099
28090W        W34690  13.902   4.907   9.775  0.0141  0.1095  0.0245
28091W        W34691  10.622   6.870   0.395 -0.0306  0.1517 -0.0724
28092W        W34692   0.740   1.584  23.139 -0.2122  0.0899 -0.0767
28093W        W34693  27.259   6.101   8.266  0.0879  0.2706  0.3447
28094W        W34694  27.032   0.927  21.402  0.1106  0.1670 -0.3242
28095W        W34695  14.370   2.545  10.137 -0.3787 -0.3560 -0.0245
28096W        W34696  28.468   6.534   2.753  0.1326  0.1517 -0.1745
28097W        W34697  14.051   3.536   4.136  0.1566  0.1124 -0.0385
28098W        W34698  14.010   7.247  16.318  0.0900 -0.1654  0.3929
28099W        W34699  26.423   0.432  20.196  0.1989 -0.3128  0.1433
28100W        W34700  19.703   3.914  20.210 -0.1421 -0.0258 -0.1279
28101W        W34701  10.432   1.124   7.657 -0.1826  0.0630 -0.1172
28102W        W34702  19.654   3.918  22.125  0.1337  0.2606  0.2003
28103W        W34703   1.924   7.401  18.217  0.1527  0.0291  0.3566
28104W        W34704  18.452   3.843   7.395 -0.1040  0.2618 -0.1044
28105W        W34705  15.295   3.781  26.186  0.1520 -0.0510 -0.0157
28106W        W34706  16.023   6.279  18.092  0.1627  0.2847 -0.3998
28107W        W34707   3.329   1.005   6.201  0.1499 -0.2674 -0.2558
28108W        W34708   1.195   0.532   3.999  0.0055 -0.2180  0.0441
28109W        W34709   2.387   4.247  18.851  0.1485 -0.0811 -0.1883
28110W        W34710  16.020   0.957  14.827  0.2642  0.3421 -0.2756
28111W        W34711   5.042   0.230  21.595 -0.3065 -0.2262 -0.0444
28112W        W34712  17.737   1.218   0.631 -0.1863 -0.2057 -0.0943
28113W        W34713   4.974   2.332   2.341 -0.0618  0.1558 -0.0016
28114W        W34714  22.989   5.613   8.716  0.1557 -0.0291 -0.1105
28115W        W34715  29.415   7.060  21.526 -0.2254 -0.0588  0.1941
28116W        W34716   9.043   5.771   6.994  0.2110  0.2268 -0.1754
28117W        W34717   3.987   3.643   5.188 -0.0101 -0.0322  0.1529
28118W        W34718  22.396   6.699  18.177  0.2577 -0.1989  0.0595
28119W        W34719   4.511   5.536   4.456  0.0968  0.2161  0.1973
28120W        W34720  17.104   7.308  22.825 -0.1693 -0.1365 -0.1643
28121W        W34721  14.281   2.469   7.923 -0.2490  0.2550 -0.2386
28122W        W34722   3.273   3.912   2.855 -0.0138 -0.1938 -0.0593
28123W        W34723  19.349   7.420   1.722 -0.2675  0.1618  0.0672
28124W        W34724  14.446   4.253  17.070 -0.2978 -0.0030 -0.0515
28125W        W34725  19.280   2.518   0.897 -0.2652 -0.0730  0.1256
28126W        W34726   1.333   5.503  17.393  0.0923 -0.3275  0.0676
28127W        W34727  20.722   4.265  20.890  0.3440 -0.1018 -0.0361
28128W        W34728   4.896   3.772  10.633 -0.0134 -0.1092  0.0240
28129W        W34729  11.852   4.897  23.984 -0.2906 -0.0274 -0.0678
28130W        W34730   0.335   7.138   7.156 -0.0558  0.1038  0.1202
28131W        W34731   5.428   2.883  21.351  0.1036 -0.0034  0.3677
28132W        W34732  11.577   5.016   8.954 -0.0604 -0.1201 -0.0141
28133W        W34733  12.175   4.923  26.157 -0.0944 -0.2365  0.0189
28134W        W34734  11.641   7.047  16.774  0.0811 -0.0395 -0.0587
28135W        W34735  15.862   2.930   5.661  0.0051  0.1271  0.3499
28136W        W34736   3.004   5.034   7.393  0.0145  0.2690 -0.0073
28137W        W34737   2.463   4.403   9.938  0.0981  0.2025  0.2711
28138W        W34738   9.241   3.552  24.974 -0.1906  0.2653  0.0137
28139W        W34739  17.901   1.318   8.538 -0.0275  0.0799  0.3318
28140W        W34740  22.775   4.969  16.520 -0.0910 -0.0345 -0.0575
28141W        W34741   6.643   0.382  21.536 -0.2167 -0.1114  0.1596
28142W        W34742   9.659   2.587  19.246  0.0817 -0.2971 -0.1503
28143W        W34743   6.281   0.126   4.216 -0.0155 -0.0312 -0.0469
28144W        W34744  16.848   4.526   9.376 -0.1055  0.2831  0.1301
28145W        W34745  15.065   2.804   4.552  0.0071 -0.2124 -0.1722
28146W        W34746  26.513   4.946  18.217  0.0259 -0.2087 -0.2097
28147W        W34747   7.068   3.492  24.605  0.1301 -0.1676 -0.0159
28148W        W34748  16.459   1.239  14.945  0.0703 -0.4032 -0.2249
28149W        W34749   6.792   6.433  19.848 -0.1202  0.0399  0.1491
28150W        W34750  17.771   4.701  14.836  0.0883 -0.1174 -0.1792
28151W        W34751  26.352   6.450   0.503 -0.0750 -0.3818 -0.1295
28152W        W34752   1.545   3.280   2.557 -0.0381  0.0399 -0.4088
28153W        W34753   3.719   0.310   6.723  0.3534  0.3479 -0.1656
28154W        W34754  13.824   4.597  21.960 -0.0106  0.3725  0.0950
28155W        W34755   9.659   4.588   3.069 -0.1072  0.2362  0.0541
28156W        W34756  23.654   0.303   0.523 -0.1394  0.2101  0.0869
28157W        W34757   3.306   2.533  24.135  0.0762  0.4589  0.0630
28158W        W34758  12.020   2.506  25.049  0.1457 -0.2408 -0.3541
28159W        W34759  23.875   2.143  24.701 -0.0188 -0.1862 -0.0690
28160W        W34760   1.328   0.448   3.391 -0.2779 -0.0890 -0.2221
28161W        W34761   6.612   4.347   7.982 -0.1449 -0.4601 -0.1120
28162W        W34762  15.246   7.249  16.765 -0.0409  0.1247  0.2844
28163W        W34763   2.949   3.278   1.019 -0.0191 -0.1293  0.2481
28164W        W34764  30.458   3.432   4.227 -0.1692  0.0910 -0.2591
28165W        W34765  19.438   4.970  16.681 -0.1267 -0.1199 -0.0134
28166W        W34766  10.547   0.237   9.156  0.2424  0.1174 -0.0888
28167W        W34767  20.870   5.123   1.195  0.1766  0.1121  0.3124
28168W        W34768  10.476   5.017  22.037 -0.1427 -0.1531 -0.3828
28169W        W34769  27.474   4.580   2.322  0.1366  0.0965 -0.1497
28170W        W34770  14.141   3.200  17.881 -0.0176  0.2354 -0.3494
28171W        W34771  15.139   7.011  11.298 -0.2757  0.2052  0.3394
28172W        W34772   3.999   0.205  26.073 -0.0814  0.1023  0.1190
28173W        W34773  18.472   1.105   2.993  0.1296  0.1237  0.1876
28174W        W34774  17.846   2.706   1.252  0.1620  0.2106 -0.2245
28175W        W34775   3.421   4.740  21.914  0.0122 -0.1748 -0.0773
28176W        W34776   1.650   2.225  24.982  0.0610  0.0828 -0.3462
28177W        W34777  22.414   6.920  21.594  0.0204  0.0992  0.2424
28178W        W34778   9.213   6.996   3.239 -0.0770 -0.3084  0.0344
28179W        W34779  17.525   1.384  15.347 -0.3188 -0.2555  0.0067
28180W        W34780  17.474   6.268   4.293  0.3152 -0.0725 -0.0600
28181W        W34781   7.512   1.170   9.197  0.2565 -0.1959 -0.0200
28182W        W34782  25.719   7.015   7.522  0.1306  0.1164  0.0723
28183W        W34783  14.264   6.048  25.978  0.3581  0.1490 -0.0841
28184W        W34784   4.030   0.460  20.332 -0.0934  0.2468 -0.2303
28185W        W34785   0.020   4.104   6.802  0.1316 -0.0504 -0.3300
28186W        W34786  19.709   0.136   1.010  0.1091 -0.2118 -0.2984
28187W        W34787  31.228   4.131   7.465  0.0112 -0.1154  0.0677
28188W        W34788  19.850   3.876   7.925  0.0420  0.0533  0.0708
28189W        W34789   2.464   0.910  10.447 -0.1876  0.1492 -0.1702
28190W        W34790   4.390   7.429  21.366  0.2927  0.0184 -0.1428
28191W        W34791  16.270   6.509   3.266 -0.1047  0.0397 -0.3178
28192W        W34792   6.166   7.431   2.316  0.1668 -0.1562  0.0631
28193W        W34793  29.754   2.920  15.002 -0.0566  0.0685  0.0876
28194W        W34794  14.488   7.042   1.648 -0.0858 -0.0097  0.0523
28195W        W34795  13.721   5.820  10.094 -0.1128 -0.1563 -0.0365
28196W        W34796  21.755   6.427   8.728 -0.1023 -0.1698  0.2181
28197W        W34797  26.467   5.367   9.072 -0.1814 -0.4135  0.0398
28198W        W34798  11.911   3.981  15.926  0.2721 -0.0794  0.0615
28199W        W34799  23.513   0.511   6.665  0.1137 -0.0607  0.2275
28200W        W34800  13.366   6.084   7.074 -0.3425  0.1796  0.1065
28201W        W34801   4.325   7.185  19.391 -0.0797  0.0822 -0.0324
28202W        W34802   7.286   4.484  22.353 -0.2324  0.1355 -0.0930
28203W        W34803  18.958   2.454   8.121  0.2286  0.5295 -0.1089
28204W        W34804  13.264   2.016   0.695  0.1414 -0.0297  0.0575
28205W        W34805   2.458   3.249   0.775 -0.0692 -0.2067 -0.1891
28206W        W34806  28.107   3.127  16.727 -0.0024  0.1721  0.0989
28207W        W34807  25.113   1.221   3.936  0.1398 -0.3409 -0.0982
28208W        W34808  14.577   3.420  11.166 -0.0162 -0.3413  0.0514
28209W        W34809  30.398   3.020   9.776 -0.0065  0.0361  0.0311
28210W        W34810  19.322   0.287  21.500  0.1568 -0.3695  0.0134
28211W        W34811  22.689   0.973  25.470  0.2430  0.0988  0.2231
28212W        W34812  26.234   2.420  16.182  0.0188  0.1284 -0.0141
28213W        W34813  21.679   6.569  20.496  0.1304 -0.0554  0.0588
28214W        W34814  26.585   4.240   8.143  0.1353 -0.1791  0.0709
28215W        W34815  24.568   0.380  26.098 -0.0189  0.2402  0.0518
28216W        W34816  30.561   0.372  21.892  0.0723 -0.1371 -0.0645
28217W        W34817   1.884   4.156   2.382  0.1428 -0.0862 -0.0285
28218W        W34818   5.366   1.739  24.093  0.0818 -0.0352 -0.0862
28219W        W34819   8.900   6.021   8.415  0.1347 -0.3134 -0.2451
28220W        W34820   5.585   0.023   3.661  0.4815  0.3486 -0.2345
28221W        W34821  31.011   1.344   8.413 -0.1999 -0.0687 -0.3269
28222W        W34822  26.750   5.077  17.316  0.2058 -0.1937  0.0623
28223W        W34823  26.563   7.144  10.447  0.3458  0.0604 -0.0058
28224W        W34824   5.298   5.067  16.727  0.1455 -0.3233 -0.3536
28225W        W34825  15.943   7.250   3.709  0.1681  0.0823 -0.0296
28226W        W34826  11.955   0.477   1.826 -0.2772 -0.2945 -0.1362
28227W        W34827   2.520   5.414   0.948 -0.0736  0.1234 -0.1313
28228W        W34828  16.095   1.805  23.954 -0.1081 -0.0964  0.2055
28229W        W34829  13.725   1.345   0.587 -0.0126 -0.0176 -0.1470
28230W        W34830   2.115   5.335   2.226 -0.0252  0.0033 -0.2531
28231W        W34831  23.644   6.883   3.237  0.0151  0.0393  0.1679
28232W        W34832  28.156   3.204  25.203  0.0289 -0.1075  0.0691
28233W        W34833  12.145   1.088   4.216  0.0666  0.1908 -0.1329
28234W        W34834  27.846   1.772   2.435  0.2216  0.0528 -0.4637
28235W        W34835  20.474   4.849  24.560  0.0713  0.0020  0.0630
28236W        W34836  21.871   5.630   5.234  0.0694  0.0390  0.3766
28237W        W34837   6.779   5.269  17.657  0.2467  0.3583  0.4241
28238W        W34838   5.374   0.809  15.725  0.0844  0.3146 -0.0509
28239W        W34839  11.122   6.034  25.515 -0.3439 -0.0031  0.0486
28240W        W34840   0.391   6.400   2.736  0.0267 -0.0012  0.3029
28241W        W34841  20.628   0.460   9.252 -0.2260  0.1989 -0.2018
28242W        W34842   8.694   0.563  16.044  0.3528  0.0279  0.1271
28243W        W34843  23.431   1.038   9.045 -0.0163  0.1215 -0.1402
28244W        W34844  16.719   4.645   6.509  0.2593 -0.3010  0.2826
28245W        W34845  18.998   6.960  22.945 -0.0998 -0.2525  0.4820
28246W        W34846  28.989   1.911  11.503 -0.1332  0.3697  0.2192
28247W        W34847  17.933   3.967   1.760  0.3171 -0.1343 -0.0383
28248W        W34848  21.058   7.627   9.038 -0.0611 -0.2103  0.1434
28249W        W34849  26.775   6.258  15.776  0.0800 -0.3346 -0.2239
28250W        W34850   5.318   6.992   4.853  0.0537  0.0580 -0.1174
28251W        W34851  22.579   4.946  15.411  0.2156 -0.0191  0.0051
28252W        W34852  28.415   2.288  18.038  0.1463 -0.0222 -0.1278
28253W        W34853  25.884   1.150   6.320 -0.0235 -0.1164 -0.1201
28254W        W34854   7.477   6.231   8.444 -0.1996 -0.3722 -0.2848
28255W        W34855  23.008   4.437   7.167  0.0359  0.1445 -0.1918
28256W        W34856  16.425   7.674  10.369 -0.1698  0.2567 -0.0551
28257W        W34857   2.177   5.251   3.806 -0.1761  0.3585 -0.1155
28258W        W34858   0.640   6.991  10.798 -0.4411 -0.0475 -0.1754
28259W        W34859   7.021   2.013   8.768 -0.0947  0.1100 -0.0285
28260W        W34860   1.334   1.972   1.798 -0.1753  0.1465 -0.1424
28261W        W34861  15.484   1.755  25.197 -0.0769 -0.0199  0.3867
28262W        W34862   8.419   2.235  19.310  0.2074 -0.2440  0.2670
28263W        W34863   0.374   1.881  10.031 -0.1452  0.2102  0.1353
28264W        W34864  10.966   0.459  16.835 -0.1112 -0.0815 -0.0296
28265W        W34865  28.978   0.479  18.601  0.5087 -0.0637 -0.2108
28266W        W34866   0.877   1.601   8.607  0.0232  0.3717  0.0795
28267W        W34867   6.685   2.066   6.393 -0.1225 -0.0817 -0.4359
28268W        W34868  29.220   1.129  23.922 -0.0316 -0.6061  0.4854
28269W        W34869  28.837   7.084   4.390 -0.1825  0.0345  0.2290
28270W        W34870  28.854   1.733   7.195  0.2331  0.1332 -0.1157
28271W        W34871  17.593   2.553  19.549 -0.0181  0.2021  0.2028
28272W        W34872  30.211   7.652   2.712 -0.0277  0.1321 -0.0114
28273W        W34873  20.435   3.907   6.803  0.1080  0.0755  0.0856
28274W        W34874  30.700   3.717  25.451 -0.1970 -0.1518  0.0694
28275W        W34875  13.646   7.616   8.214  0.1960  0.0102  0.0905
28276W        W34876   7.337   4.418   9.612 -0.2132  0.1276  0.1420
28277W        W34877  25.618   4.693  18.346 -0.1439  0.1900  0.1646
28278W        W34878  17.242   5.704   0.563  0.1440 -0.1237  0.1971
28279W        W34879   0.877   3.749   1.412 -0.0777 -0.0137 -0.1052
28280W        W34880  23.171   5.122   9.731  0.0433  0.1831 -0.2407
28281W        W34881  14.324   5.111  20.438  0.0420  0.1140 -0.3768
28282W        W34882   1.065   1.259  19.970  0.0043  0.1880 -0.3188
28283W        W34883  26.880   3.884  25.820  0.2839 -0.0123  0.2211
28284W        W34884  25.522   7.130   9.251 -0.0304  0.2419  0.2526
28285W        W34885   4.642   0.927  24.921 -0.0897 -0.0274  0.1307
28286W        W34886   5.574   4.537  22.621 -0.2854 -0.3009 -0.2224
28287W        W34887  28.191   6.260  19.670 -0.0793  0.1054 -0.3240
28288W        W34888  27.670   3.574   3.818 -0.1514  0.0467 -0.1356
28289W        W34889   8.204   1.464  18.515 -0.2601 -0.1598  0.0431
28290W        W34890   8.751   5.342  22.390  0.1002 -0.0920 -0.0155
28291W        W34891   1.158   1.325  17.197  0.1265  0.0827  0.3853
28292W        W34892  14.811   7.561   8.772  0.0197 -0.2034 -0.0995
28293W        W34893  23.515   4.424  16.199 -0.0042 -0.2836 -0.0152
28294W        W34894  25.197   4.769  16.793  0.0215  0.4051  0.0909
28295W        W34895  22.168   7.820  20.159  0.1249 -0.1964  0.0794
28296W        W34896   1.729   4.812  23.495  0.1395  0.0634 -0.3755
28297W        W34897  26.856   0.324   2.168 -0.2050  0.1852  0.0767
28298W        W34898  15.691   5.023   8.842 -0.0982 -0.1766 -0.1030
28299W        W34899  30.235   2.445  22.439 -0.2821  0.0250 -0.1539
28300W        W34900  30.309   4.949  19.490  0.0634  0.1243 -0.0129
28301W        W34901  14.842   6.184  18.604  0.3267 -0.0927 -0.0154
28302W        W34902  14.581   3.747  17.135  0.1551  0.4444  0.2632
28303W        W34903  31.271   0.908   3.397 -0.1521  0.2040  0.0317
28304W        W34904   3.213   5.171  22.114 -0.1066  0.3348 -0.1392
28305W        W34905  19.668   4.791  16.161  0.2151  0.0451 -0.2737
28306W        W34906  22.372   1.915   2.417  0.0575 -0.1077  0.0236
28307W        W34907  19.673   4.985  18.420  0.0326  0.2203  0.1075
28308W        W34908  16.764   7.690  22.874  0.0186  0.0133  0.2268
28309W        W34909   7.089   0.897  19.929  0.2703 -0.1814  0.0051
28310W        W34910   3.025   7.308   0.234  0.0927  0.0344 -0.0457
28311W        W34911  20.320   7.180  17.776  0.4497 -0.2122  0.3157
28312W        W34912   8.189   1.707   0.722  0.3138  0.0291 -0.2015
28313W        W34913   7.266   4.273  18.900 -0.4342  0.0634 -0.0676
28314W        W34914  20.729   1.703   1.075 -0.0441  0.1442  0.0160
28315W        W34915  29.874   3.201   9.667 -0.1691  0.1034 -0.3295
28316W        W34916  17.043   7.564  16.730 -0.2260 -0.2065 -0.0599
28317W        W34917  18.228   5.125  25.213  0.0778  0.3727 -0.2224
28318W        W34918  28.860   6.021   5.679  0.0314 -0.0600 -0.0488
28319W        W34919   0.807   5.319  23.509  0.1802  0.3732  0.0938
28320W        W34920  10.709   5.852   2.154  0.1318 -0.0556  0.4587
28321W        W34921  13.177   2.428  20.799  0.2827 -0.1237  0.1415
28322W        W34922  22.733   2.700  20.809 -0.2787  0.0922 -0.0442
28323W        W34923  27.022   3.714  24.147 -0.2486 -0.1235 -0.0701
28324W        W34924  28.325   1.209  10.447 -0.0168  0.2023  0.4044
28325W        W34925  27.029   4.048  22.516  0.2198 -0.0950 -0.0407
28326W        W34926  17.332   4.893  23.379  0.1900  0.0154 -0.1034
28327W        W34927  13.704   4.804  21.509 -0.0235  0.0309  0.0962
28328W        W34928  21.509   3.410  16.396 -0.2336  0.1123  0.2849
28329W        W34929  18.867   5.696  25.334 -0.1997 -0.0900  0.4561
28330W        W34930  15.952   1.155   8.340  0.0069 -0.1042  0.0988
28331W        W34931  22.080   0.220   7.302  0.1937  0.2402 -0.1649
28332W        W34932  23.311   3.680   6.801 -0.1723  0.1906 -0.2549
28333W        W34933   8.388   7.099   8.185  0.1348 -0.0436 -0.0213
28334W        W34934   5.534   4.425  10.530  0.0552  0.1847  0.3349
28335W        W34935  10.561   5.554  24.117 -0.0563  0.0714 -0.0038
28336W        W34936  23.089   5.486   4.979  0.0919  0.0140  0.0930
28337W        W34937   3.016   2.199   6.400 -0.0492 -0.2566 -0.1881
28338W        W34938  26.208   6.060  19.673 -0.1150  0.2920 -0.0169
28339W        W34939  26.844   3.009  23.182  0.0159  0.2351  0.2159
28340W        W34940   8.924   2.004  19.231 -0.1374 -0.0124 -0.3730
28341W        W34941  21.164   7.065   6.543  0.1560  0.1332 -0.5146
28342W        W34942   7.642   0.131  24.603 -0.0549  0.0549 -0.1922
28343W        W34943  18.338   6.761  10.332  0.2768 -0.1783  0.0644
28344W        W34944  13.762   1.410  25.070  0.1327 -0.1301 -0.1463
28345W        W34945   8.916   7.793  20.897  0.0255  0.1011 -0.3636
28346W        W34946  26.147   1.352  16.553 -0.3384 -0.2310 -0.1122
28347W        W34947   8.766   7.471   5.147 -0.0788 -0.1665  0.0532
28348W        W34948  21.165   5.041   0.254  0.0470  0.3301 -0.0107
28349W        W34949  25.061   7.016   1.587 -0.0132  0.1424 -0.0961
28350W        W34950  16.920   5.412   9.621  0.1252  0.1695 -0.0361
28351W        W34951  26.230   2.930   0.288  0.0513  0.0193 -0.1388
28352W        W34952  26.635   1.796   5.046  0.0650 -0.3046  0.0104
28353W        W34953  25.070   6.737   7.564 -0.2291 -0.0054 -0.1335
28354W        W34954  17.008   4.254  18.803 -0.1072  0.3532 -0.1758
28355W        W34955  13.812   7.681  22.649 -0.0258  0.2649 -0.0511
28356W        W34956  16.271   6.330  20.807 -0.4080  0.1138  0.0100
28357W        W34957  11.977   1.262  17.752 -0.0937 -0.0557 -0.2414
28358W        W34958  26.327   2.556  19.576 -0.0241 -0.1783  0.1180
28359W        W34959  31.064   0.867   3.961 -0.1196 -0.0274  0.0768
28360W        W34960  25.937   0.317   6.702 -0.2861 -0.3203  0.4058
28361W        W34961  18.496   6.798  15.195 -0.2533  0.0127  0.0167
28362W        W34962  22.550   4.272  18.337 -0.1936  0.1108  0.0782
28363W        W34963  28.540   2.907  16.833 -0.1967  0.0693 -0.2600
28364W        W34964  28.538   3.148  18.569  0.0536  0.1601 -0.2504
28365W        W34965  18.449   6.587  21.802  0.0608 -0.0590 -0.0523
28366W        W34966  22.943   2.359  24.916 -0.1252 -0.1551 -0.0309
28367W        W34967  29.381   3.885  23.898  0.1030 -0.1872  0.1956
28368W        W34968  17.034   6.683  18.215 -0.3650  0.1667 -0.1530
28369W        W34969  31.185   6.491  19.237  0.0583  0.0846 -0.0340
28370W        W34970  15.436   2.266   7.328 -0.2137 -0.1110  0.0504
28371W        W34971  29.090   1.517  24.227  0.1650  0.0442 -0.2260
28372W        W34972   9.418   7.069  17.881 -0.0466 -0.2572 -0.0690
28373W        W34973  10.317   5.508   4.012 -0.1077 -0.0103  0.1026
28374W        W34974  16.699   3.379  18.264  0.3084  0.2794  0.0092
28375W        W34975  16.639   6.612  17.725 -0.0532  0.1180 -0.0440
28376W        W34976  13.166   6.275  25.190  0.2787  0.1522 -0.0707
28377W        W34977  15.588   7.242  21.411 -0.2864 -0.3781  0.1548
28378W        W34978  13.343   2.883  24.629  0.1318 -0.1281 -0.3371
28379W        W34979  20.036   6.877   4.719  0.0885 -0.3311 -0.2621
28380W        W34980   1.617   1.075  21.641  0.0360  0.2141  0.2394
28381W        W34981   0.856   4.305  16.783 -0.0591  0.0115  0.0408
28382W        W34982   1.427   7.562  18.260 -0.0174  0.2046 -0.2339
28383W        W34983  16.290   6.321   6.198 -0.0263 -0.0336  0.2682
28384W        W34984   8.563   5.572  18.077 -0.0033  0.2163 -0.0293
28385W        W34985   4.622   7.099  17.550  0.1814  0.0985  0.1285
28386W        W34986  25.816   1.779   8.097  0.0517  0.0981 -0.1219
28387W        W34987   2.424   0.424   0.053  0.0608  0.2313  0.0922
28388W        W34988  29.789   4.077  24.189  0.1365 -0.0678  0.2766
28389W        W34989   5.465   3.877   3.772  0.0360  0.0753 -0.2048
28390W        W34990   7.943   2.375   8.706  0.2326  0.0622  0.0384
28391W        W34991  19.258   3.896   7.234 -0.2751 -0.3369 -0.2338
28392W        W34992  24.894   5.982  25.278 -0.2158 -0.0433  0.0799
28393W        W34993  20.076   0.103   6.333  0.2833 -0.1538  0.1601
28394W        W34994  20.682   0.491   0.274 -0.0276  0.0295  0.1046
28395W        W34995   6.511   2.969   4.697 -0.1926  0.1514  0.0425
28396W        W34996  12.685   7.442  25.680  0.3339  0.1496  0.1897
28397W        W34997   2.488   2.651  16.539 -0.4141 -0.1117 -0.1263
28398W        W34998  10.101   6.172  25.263  0.3332 -0.1267 -0.1329
28399W        W34999   2.419   3.924  25.170 -0.2020  0.0810  0.0392
28400W        W35000  27.655   0.150  21.857 -0.1260  0.1622  0.1764
28401W        W35001  14.879   6.289   2.715  0.2185  0.1363 -0.1454
28402W        W35002  26.155   0.474  25.023 -0.4387  0.0274 -0.0270
28403W        W35003  31.212   5.915  21.366  0.3172  0.4117  0.2190
28404W        W35004   5.350   0.465  24.874  0.2867 -0.0783  0.1372
28405W        W35005  24.403   6.346  21.417 -0.0257  0.1999  0.1813
28406W        W35006  17.900   4.171  15.256  0.3455 -0.1310 -0.0809
28407W        W35007   9.192   7.715  24.540 -0.1246  0.0016  0.1119
28408W        W35008  21.094   2.380   4.753 -0.3433 -0.2329 -0.1363
28409W        W35009   9.113   3.185   6.500  0.0468 -0.0157 -0.0630
28410W        W35010  21.532   3.897  25.183  0.0477  0.0091 -0.2390
28411W        W35011  29.224   1.714  17.023 -0.1376 -0.2883  0.0577
28412W        W35012  21.132   5.904  23.417 -0.1424  0.0370 -0.1981
28413W        W35013  11.193   2.241  17.719 -0.0630  0.3427 -0.0423
28414W        W35014   7.167   5.078   8.362 -0.0645 -0.2029  0.1711
28415W        W35015  22.954   3.483   7.306 -0.0252 -0.0115  0.1433
28416W        W35016  17.206   3.704  24.523  0.1670 -0.0363 -0.1122
28417W        W35017   5.284   4.834  10.378 -0.2157  0.0606  0.1032
28418W        W35018   8.399   3.206  20.004  0.3637  0.1951 -0.1622
28419W        W35019  19.007   3.508  14.982  0.0339  0.2060 -0.1545
28420W        W35020  13.358   5.781  19.324  0.3523  0.2091 -0.2420
28421W        W35021  19.190   6.691   2.254  0.0393 -0.0490  0.0338
28422W        W35022   6.518   6.134  23.562 -0.0290  0.2495  0.0799
28423W        W35023  24.403   4.169   4.312 -0.0833  0.2181  0.0674
28424W        W35024  18.016   1.179  24.345 -0.0956 -0.0046 -0.3078
28425W        W35025   6.858   3.834  22.617  0.0799 -0.0027  0.1226
28426W        W35026  10.191   3.902  21.534 -0.2996 -0.2405 -0.0118
28427W        W35027   0.894   5.920  26.121 -0.3206 -0.0414 -0.2420
28428W        W35028  24.118   2.642  25.939  0.2571 -0.0890  0.3545
28429W        W35029   2.333   4.988   3.402 -0.1459 -0.1110  0.1227
28430W        W35030   7.535   1.108   8.638  0.1953  0.1077 -0.0621
28431W        W35031  21.753   7.685  24.507  0.0528 -0.2664  0.1374
28432W        W35032  18.212   0.174  21.753  0.1799 -0.1322 -0.2268
28433W        W35033  26.037   6.182   7.610 -0.0683  0.0840 -0.1299
28434W        W35034  17.320   1.962   7.970 -0.1608 -0.0632  0.1338
28435W        W35035  16.723   4.362  18.388 -0.1587 -0.0131 -0.2650
28436W        W35036  23.857   5.005   1.111  0.0688 -0.2031  0.2916
28437W        W35037  20.513   5.199   9.219  0.0010 -0.0110 -0.1748
28438W        W35038  27.979   7.819  19.201  0.1568  0.2432  0.1833
28439W        W35039  20.841   5.655   6.242  0.0860  0.1325  0.2438
28440W        W35040   6.967   3.244  25.552 -0.0914 -0.1192 -0.1344
28441W        W35041   4.482   3.182   4.897  0.2644  0.0625  0.3844
28442W        W35042  15.252   5.436   6.378  0.1779 -0.1962  0.2684
28443W        W35043   9.276   2.745   0.081 -0.1593  0.2704 -0.0166
28444W        W35044   3.722   7.816   1.908 -0.1210  0.0305  0.0989
28445W        W35045   8.347   6.679   7.406 -0.2047 -0.2438 -0.2170
28446W        W35046   4.857   1.857   6.971 -0.2605  0.0532  0.0925
28447W        W35047  17.943   0.808   1.993  0.4446  0.0779 -0.0854
28448W        W35048   4.775   6.890   6.358  0.1051  0.0772  0.0499
28449W        W35049  30.659   5.599   4.675  0.3445 -0.0408 -0.4226
28450W        W35050  13.736   3.558  22.021  0.1417  0.0623 -0.2377
28451W        W35051   1.070   1.337   7.390  0.1190 -0.1501  0.2040
28452W        W35052  23.237   0.121  10.361 -0.2173  0.0567  0.2117
28453W        W35053   8.732   3.499  20.384 -0.3062 -0.2079 -0.3750
28454W        W35054  12.737   4.341   8.955  0.0904 -0.1968  0.0990
28455W        W35055  12.887   0.734   6.500  0.2031  0.0315 -0.0026
28456W        W35056  24.943   7.625  25.350 -0.3488  0.4485 -0.0934
28457W        W35057  14.440   6.176  25.368  0.1257  0.0881 -0.3067
28458W        W35058  23.960   2.287   0.653  0.2343 -0.1469  0.1964
28459W        W35059  19.994   6.306   1.198  0.2487  0.0869 -0.1188
28460W        W35060  25.982   5.073  18.072 -0.0292 -0.1820 -0.3972
28461W        W35061   9.679   0.435  18.770 -0.1133  0.0905 -0.1320
28462W        W35062  13.880   3.601  17.516 -0.0242  0.0549 -0.2900
28463W        W35063   4.828   6.742  16.539 -0.1090 -0.1257  0.2126
28464W        W35064   0.460   0.204   3.835  0.0407  0.1856 -0.0314
28465W        W35065   2.278   1.554  22.496  0.1951 -0.1320  0.3740
28466W        W35066   7.198   0.887  17.329  0.3003 -0.1003  0.1791
28467W        W35067  17.240   7.049  21.560 -0.1418  0.1625 -0.1099
28468W        W35068  18.280   1.288   7.534 -0.3267 -0.0242 -0.0165
28469W        W35069  18.736   1.182  24.897 -0.0377 -0.5558 -0.0463
28470W        W35070  16.152   1.850  17.870  0.1140 -0.2767 -0.1636
28471W        W35071  29.018   2.618  16.467  0.1897  0.0669  0.0605
28472W        W35072  22.071   1.802  17.476  0.1841  0.2685  0.1258
28473W        W35073   3.522   4.823   7.659  0.0529 -0.1260 -0.1972
28474W        W35074   6.194   1.098   9.300  0.2692 -0.4530 -0.1443
28475W        W35075  31.181   6.529   1.062  0.2067  0.1953  0.1798
28476W        W35076  15.340   4.664   5.819 -0.1103 -0.4136 -0.1946
28477W        W35077  25.358   1.968  17.447 -0.0358  0.3812 -0.1843
28478W        W35078  21.112   6.722  22.913  0.2433  0.1727 -0.1367
28479W        W35079  26.746   2.504   0.574 -0.1713  0.0042  0.3838
28480W        W35080  20.586   6.110  24.240 -0.0746  0.0279  0.1705
28481W        W35081  30.774   6.551  25.371 -0.0061 -0.1727  0.1380
28482W        W35082  20.206   0.599  21.246  0.0772 -0.0914  0.3353
28483W        W35083   9.189   6.837   0.120  0.1868  0.3510  0.0905
28484W        W35084   6.067   3.380  24.901  0.2077 -0.0429  0.0593
28485W        W35085   2.707   0.769   0.303  0.1399  0.0135 -0.3126
28486W        W35086  17.712   1.012  23.976 -0.2284 -0.0504  0.1148
28487W        W35087  20.110   7.772   0.641  0.2894 -0.0531  0.1267
28488W        W35088   5.367   1.023   5.781 -0.2156 -0.0669  0.1311
28489W        W35089  14.823   6.752  19.490 -0.1319  0.0439 -0.2854
28490W        W35090  30.332   0.805  22.708  0.2538  0.2053 -0.1325
28491W        W35091  28.231   1.522  11.181  0.0617  0.2659  0.1794
28492W        W35092  12.616   2.803  23.121 -0.0385  0.2323 -0.0402
28493W        W35093  10.455   6.729   4.963 -0.1222  0.3213  0.1027
28494W        W35094   4.942   5.114  17.469  0.0625 -0.1293 -0.2354
28495W        W35095  21.664   7.779  19.879 -0.0843  0.1957 -0.1280
28496W        W35096  25.406   2.871   9.165 -0.1250 -0.2118 -0.0685
28497W        W35097  19.149   5.392  21.863  0.1559  0.1280 -0.2051
28498W        W35098  10.553   3.234  19.948 -0.1453 -0.0015 -0.0768
28499W        W35099   7.285   4.928  20.371  0.1184  0.0209 -0.2662
28500W        W35100  19.756   6.076   7.164 -0.2008 -0.1275 -0.0858
28501W        W35101   4.805   0.303  20.952 -0.1433  0.1407 -0.0687
28502W        W35102  23.534   6.680  25.266 -0.0336  0.2130  0.0085
28503W        W35103  12.081   6.440   4.315 -0.0453 -0.0820  0.1039
28504W        W35104  26.149   0.317  19.626 -0.0341 -0.1082  0.0727
28505W        W35105   6.874   5.165  14.975  0.3508 -0.0351 -0.2589
28506W        W35106  15.605   5.396   5.964 -0.0891  0.1044 -0.2220
28507W        W35107   5.752   7.801   1.771 -0.1749 -0.1337 -0.2017
28508W        W35108  25.828   5.389   3.980  0.0604  0.0178  0.1723
28509W        W35109  23.761   7.582   3.856 -0.1014  0.1674 -0.1044
28510W        W35110  19.780   7.048  23.240 -0.0214 -0.2562  0.0201
28511W        W35111  30.569   1.088  23.990  0.3616  0.0464 -0.0882
28512W        W35112   7.646   2.546  19.873  0.1746 -0.1148  0.1049
28513W        W35113   9.617   4.595   7.836 -0.2316  0.1954  0.4246
28514W        W35114  27.903   4.663   5.524  0.0023 -0.2740  0.2209
28515W        W35115  27.012   2.037  22.705 -0.1949 -0.1042 -0.2307
28516W        W35116  20.111   4.668   8.729  0.2717  0.3144 -0.0385
28517W        W35117   5.096   7.539  21.477  0.1369  0.1665  0.0156
28518W        W35118  16.550   2.638  19.768 -0.0204  0.1504 -0.1369
28519W        W35119   8.198   5.401   9.083 -0.1051 -0.2320  0.0235
28520W        W35120   0.257   7.410   9.771 -0.2331  0.0184  0.0442
28521W        W35121  20.819   5.444  22.089  0.1916 -0.1178 -0.4263
28522W        W35122   6.439   6.123  19.962  0.0211 -0.2269 -0.1020
28523W        W35123   0.188   1.792   5.798  0.0651  0.1695 -0.3408
28524W        W35124   9.798   2.525  17.284  0.2073 -0.0233  0.1678
28525W        W35125  24.749   0.734  19.472 -0.0863 -0.2187  0.1480
28526W        W35126  15.276   5.828  17.818 -0.2260 -0.1615  0.0972
28527W        W35127   3.945   3.792  10.307  0.1134  0.1307  0.1534
28528W        W35128  22.242   3.192  15.798 -0.1782  0.0278  0.2203
28529W        W35129  27.147   4.729  20.494 -0.0542 -0.0858  0.0188
28530W        W35130  22.594   2.738   8.623  0.0732  0.4380  0.2713
28531W        W35131  24.182   0.709  24.060  0.0773 -0.0262 -0.2698
28532W        W35132   3.393   3.223   3.124 -0.0265 -0.1410 -0.0985
28533W        W35133  12.800   0.108   3.291 -0.1579  0.1571 -0.1436
28534W        W35134  16.260   5.853   6.541  0.2330  0.0498  0.0620
28535W        W35135   9.301   5.919   8.007  0.1323 -0.0409  0.0640
28536W        W35136   0.254   4.082   5.065  0.1839 -0.1976 -0.1288
28537W        W35137  21.488   5.681  17.537  0.0229 -0.2632 -0.0747
28538W        W35138  22.031   2.142  19.935 -0.0053  0.0814 -0.1416
28539W        W35139  28.407   2.736   7.320 -0.2680 -0.0991 -0.3779
28540W        W35140   1.388   6.794  17.488  0.1084  0.2067 -0.1817
28541W        W35141  18.961   0.160  16.294  0.3207 -0.2599 -0.0155
28542W        W35142  10.439   2.261   8.725  0.0398  0.1664 -0.1845
28543W        W35143  15.160   0.522   9.827 -0.0363  0.0700  0.0410
28544W        W35144  23.085   1.427   2.161 -0.3009  0.0412  0.0683
28545W        W35145  21.232   4.681   2.358  0.0969 -0.0123 -0.0258
28546W        W35146   4.366   4.423   9.264 -0.1178 -0.3109 -0.1351
28547W        W35147  20.043   3.613   8.903 -0.0112 -0.1272 -0.0128
28548W        W35148  25.137   2.533  24.535 -0.2285 -0.0618  0.0886
28549W        W35149  24.982   4.071  20.287 -0.2031  0.4222 -0.0870
28550W        W35150  19.941   5.217   1.323 -0.3881 -0.0595  0.1329
28551W        W35151  19.142   1.274   6.588 -0.0644  0.0797 -0.0451
28552W        W35152  21.720   4.461  17.040  0.2277 -0.0428 -0.1254
28553W        W35153   8.727   5.531  22.921  0.2919  0.1269  0.0157
28554W        W35154  30.979   7.252   4.242  0.2589  0.2016  0.0211
28555W        W35155   9.446   4.289   0.766  0.2949  0.2395  0.2083
28556W        W35156  26.541   1.141  19.443  0.1124  0.0736  0.0150
28557W        W35157  23.023   4.979  25.946 -0.3418  0.1946  0.0614
28558W        W35158  25.739   4.242  16.187  0.1936  0.0952 -0.2592
28559W        W35159  25.590   2.268  24.946  0.1322 -0.1131 -0.1151
28560W        W35160   2.706   2.537   1.702  0.0068  0.3333 -0.2394
28561W        W35161  12.463   0.460   6.755  0.0672 -0.3400 -0.2959
28562W        W35162   3.430   3.058   7.902 -0.1226 -0.0352  0.2991
28563W        W35163   7.720   6.028   3.751 -0.1310 -0.0553  0.0190
28564W        W35164  11.554   2.743  21.791  0.0244 -0.1579 -0.0816
28565W        W35165   5.570   0.762  11.083  0.2532  0.0087 -0.0811
28566W        W35166   1.292   6.202   8.815  0.1318  0.0969 -0.0191
28567W        W35167  22.883   2.026  16.062 -0.1726  0.0916  0.2650
28568W        W35168   5.417   0.721   7.376  0.1708  0.0576  0.1319
28569W        W35169  27.075   5.740   5.907 -0.1608 -0.2238  0.1237
28570W        W35170   6.208   4.849  16.767 -0.1395 -0.0339  0.0091
28571W        W35171  19.506   4.512   1.143  0.0370 -0.1494  0.0795
28572W        W35172  19.080   6.239   7.648  0.2407 -0.2141 -0.5000
28573W        W35173   9.418   3.925   0.323  0.0470  0.0299  0.2491
28574W        W35174  12.908   7.612  16.236  0.0810  0.1482 -0.0834
28575W        W35175   3.774   0.780  11.265 -0.2895  0.2257  0.2913
28576W        W35176   9.041   1.895  15.810 -0.2394 -0.3143 -0.1035
28577W        W35177  25.830   3.754  16.238 -0.2403 -0.1059 -0.0803
28578W        W35178   8.740   0.638  18.944  0.0289  0.0113 -0.2513
28579W        W35179   5.963   3.244  16.241 -0.2376 -0.4597  0.2409
28580W        W35180   0.201   7.302  23.431  0.3307  0.1019  0.2456
28581W        W35181  24.835   0.165  25.709 -0.0488  0.1232  0.1971
28582W        W35182  12.364   3.575  22.644 -0.0351 -0.1145 -0.1371
28583W        W35183   6.226   3.491   5.549  0.2165  0.0518 -0.0972
28584W        W35184  13.201   6.078  22.261  0.0274 -0.2508  0.1582
28585W        W35185  25.858   0.130   5.328  0.1896  0.1153  0.0402
28586W        W35186  14.561   4.166   9.779 -0.0756  0.3834 -0.1671
28587W        W35187  15.836   7.741   9.818 -0.1952  0.2246 -0.2356
28588W        W35188  11.585   2.968   9.675  0.3631 -0.0542  0.0361
28589W        W35189  24.436   7.632   8.465 -0.2857  0.1728  0.1955
28590W        W35190   5.730   3.853  26.139  0.0095 -0.0788  0.0369
28591W        W35191   2.193   6.063  22.232 -0.3801 -0.0496  0.2158
28592W        W35192   3.969   2.417   9.656  0.0447 -0.2535 -0.2311
28593W        W35193  11.466   7.146  18.268  0.0868 -0.0559  0.3352
28594W        W35194   7.819   2.644  20.541 -0.1075 -0.0437  0.0402
28595W        W35195  27.442   0.406  10.687 -0.2143 -0.1576  0.0099
28596W        W35196  30.864   5.513  19.008 -0.2675 -0.1225  0.3941
28597W        W35197   8.475   5.460  25.352 -0.2478 -0.1975 -0.1125
28598W        W35198  11.633   0.735  21.033 -0.0790  0.0320  0.1500
28599W        W35199  17.046   4.314  15.929 -0.0281 -0.0280  0.0190
28600W        W35200  17.791   5.967   6.065  0.0287  0.0863  0.0037
28601W        W35201  14.293   5.527   8.028 -0.2133 -0.1394 -0.1085
28602W        W35202  21.867   1.485   2.822  0.2040 -0.0919  0.0983
28603W        W35203  11.782   6.349  24.008 -0.0152 -0.0765  0.3424
28604W        W35204   9.995   1.162  17.092  0.0629  0.1851 -0.2472
28605W        W35205  11.293   6.763  24.761  0.1521  0.1951 -0.0730
28606W        W35206   1.716   1.103  18.958 -0.0896 -0.2936  0.0821
28607W        W35207  17.905   2.805  25.905 -0.0135  0.0995 -0.1986
28608W        W35208  16.055   2.798   3.838  0.3478 -0.0162  0.0592
28609W        W35209  11.596   0.340   9.583  0.2685 -0.3218  0.0524
28610W        W35210  25.047   0.181  15.586  0.3723  0.4796 -0.0772
28611W        W35211   0.827   1.367   3.318  0.2448  0.2098 -0.3734
28612W        W35212   8.539   6.931   0.344 -0.1027  0.1376  0.0251
28613W        W35213  26.925   1.562  17.180 -0.2494 -0.0345 -0.1306
28614W        W35214  26.615   7.176  14.845 -0.2100 -0.0016  0.0233
28615W        W35215   3.754   4.145  19.107 -0.0897 -0.1169  0.1353
28616W        W35216   5.096   0.081  15.987 -0.0631 -0.2044 -0.0447
28617W        W35217  18.235   6.276   2.769  0.0020 -0.0866  0.2397
28618W        W35218   4.126   7.305  11.177 -0.0897  0.1107  0.0070
28619W        W35219   0.098   0.799  20.894 -0.0570 -0.0441  0.1216
28620W        W35220  15.559   6.172   3.811 -0.0074 -0.0224 -0.3112
28621W        W35221  13.801   5.571  22.083  0.1659 -0.0226 -0.0623
28622W        W35222   5.602   5.130  15.418  0.1243  0.0292  0.0636
28623W        W35223  11.002   2.761  10.429  0.1638  0.1486 -0.0659
28624W        W35224  19.118   4.130  22.409 -0.0744  0.1049 -0.0707
28625W        W35225  23.153   4.868  20.009  0.1222 -0.3420 -0.0652
28626W        W35226  14.635   3.779  21.730 -0.2083  0.0965  0.0105
28627W        W35227  17.190   5.898   2.484  0.1392 -0.0642 -0.0156
28628W        W35228  29.178   0.943  22.955  0.2720 -0.1281  0.2598
28629W        W35229  11.730   2.372   6.992 -0.0170  0.0968 -0.3140
28630W        W35230   4.466   5.989   7.419  0.1450  0.1173 -0.0361
28631W        W35231   9.013   6.688   4.330  0.0340 -0.2292 -0.1607
28632W        W35232  10.914   0.586   4.712  0.1649  0.1507 -0.0539
28633W        W35233  11.114   5.648  25.947 -0.0586 -0.1745  0.0619
28634W        W35234  25.349   2.822  18.302  0.0845 -0.1364  0.1192
28635W        W35235  13.877   1.433  14.973 -0.1144 -0.1251 -0.2887
28636W        W35236  10.023   5.741  22.409  0.0424  0.0384 -0.0437
28637W        W35237  20.893   0.290   7.201 -0.0871 -0.0635  0.2869
28638W        W35238   9.478   1.624   1.769  0.0734  0.5939  0.1235
28639W        W35239  27.998   4.066   4.861  0.2915 -0.1979  0.1160
28640W        W35240  19.178   2.272   3.858  0.0369  0.1549  0.1422
28641W        W35241   6.544   5.967   7.016 -0.0013  0.1841 -0.1026
28642W        W35242  20.398   2.907   3.540 -0.0043 -0.1818 -0.3435
28643W        W35243  20.283   6.859  23.025 -0.1257 -0.6001  0.2394
28644W        W35244   5.626   3.788   2.773 -0.2167  0.1959 -0.1540
28645W        W35245  10.392   1.242  18.102 -0.1577  0.1421  0.3179
28646W        W35246   0.757   4.952   7.784 -0.2804 -0.0869 -0.0631
28647W        W35247   5.454   6.175   0.133 -0.1777 -0.0023  0.2007
28648W        W35248   9.816   2.176   6.990  0.0257  0.2250  0.1670
28649W        W35249  27.086   2.055   8.669  0.1847 -0.1238 -0.3492
28650W        W35250  21.735   6.462  24.112 -0.1704  0.2139  0.0396
28651W        W35251   4.202   7.621   8.640 -0.0239  0.0535  0.2222
28652W        W35252  20.588   5.267   6.384 -0.2084 -0.2312 -0.1565
28653W        W35253  17.712   5.062   1.386  0.0418 -0.1677 -0.0417
28654W        W35254   0.567   2.239  21.488  0.2459 -0.0869  0.0999
28655W        W35255   3.464   0.762  19.511  0.0506  0.0840  0.2118
28656W        W35256   7.883   4.983   4.556 -0.0740 -0.0389  0.1829
28657W        W35257   9.533   2.013  21.838 -0.1320  0.0678  0.0207
28658W        W35258  16.061   3.341  25.912  0.2577  0.0501  0.1672
28659W        W35259  17.687   3.342  18.623  0.0729 -0.0032  0.3098
28660W        W35260  28.086   3.019  20.564 -0.1483  0.2789  0.3721
28661W        W35261  20.205   3.439   0.512 -0.0243 -0.2809 -0.0781
28662W        W35262  15.273   2.718   9.724  0.0499  0.3672 -0.5368
28663W        W35263  27.876   6.871  11.213 -0.0371 -0.1786  0.1983
28664W        W35264  25.411   6.103  15.760  0.0493 -0.2385 -0.2200
28665W        W35265   5.760   5.843   4.298 -0.4301  0.0168  0.2666
28666W        W35266   9.946   5.115   5.078  0.0545 -0.3043 -0.2474
28667W        W35267  27.828   0.916  15.599 -0.2251  0.0162  0.0334
28668W        W35268  24.836   7.530  11.502 -0.1565 -0.0404 -0.0449
28669W        W35269  27.224   1.958   8.146  0.0154  0.2353  0.0054
28670W        W35270   9.610   0.469   3.732  0.1812 -0.4298  0.1769
28671W        W35271  10.877   5.999  14.892  0.3191  0.1041 -0.2986
28672W        W35272   4.643   2.257  19.435 -0.0783  0.0761 -0.1566
28673W        W35273  12.916   0.116  15.796 -0.0290 -0.2354 -0.1670
28674W        W35274   8.593   3.056   1.310  0.2463  0.3070 -0.3378
28675W        W35275  21.466   7.262  22.833  0.1876 -0.0953  0.0678
28676W        W35276  30.853   7.492   9.138  0.2339  0.0453 -0.1392
28677W        W35277   5.317   6.009   8.673  0.0476  0.1738  0.2922
28678W        W35278   7.347   5.232   7.206 -0.0745 -0.1160  0.0801
28679W        W35279   9.940   7.446  19.615 -0.1602 -0.3317 -0.1701
28680W        W35280   1.566   4.010  22.915  0.1709  0.0484 -0.0496
28681W        W35281  12.558   1.518   1.257 -0.2252  0.1605 -0.0508
28682W        W35282  14.357   2.291  26.034 -0.0265  0.0078  0.1652
28683W        W35283   7.863   0.429  17.379  0.3983 -0.1350 -0.0918
28684W        W35284  16.041   6.189   4.046  0.1980 -0.0048 -0.0649
28685W        W35285   8.205   0.607   8.042  0.0520  0.2541  0.1431
28686W        W35286  23.579   2.139   2.179 -0.1876 -0.2416  0.2292
28687W        W35287   0.820   4.784  23.904  0.1087 -0.1089 -0.0353
28688W        W35288  22.860   0.317   5.850 -0.0146  0.1131  0.1532
28689W        W35289  19.231   6.797   5.707 -0.2618 -0.1010  0.0595
28690W        W35290  29.932   2.037  17.137  0.0475  0.0270  0.2068
28691W        W35291   5.335   5.654   4.001 -0.0383  0.1890 -0.0776
28692W        W35292   7.146   6.562   7.961  0.1740 -0.0415 -0.1781
28693W        W35293   2.405   0.018   5.272  0.0474 -0.0118  0.1088
28694W        W35294   8.277   2.404   6.726 -0.0931  0.0991  0.1323
28695W        W35295   8.461   3.962  10.347  0.1953  0.3009 -0.1845
28696W        W35296  22.421   6.095   2.806 -0.1341  0.0162 -0.0011
28697W        W35297   3.321   0.150  10.436 -0.0182  0.1690  0.0120
28698W        W35298   0.706   2.468  10.684 -0.0277  0.2279 -0.2237
28699W        W35299  14.681   0.691  18.971  0.1495 -0.0853  0.0754
28700W        W35300  10.270   2.124   7.219 -0.1306  0.3327 -0.0056
28701W        W35301  16.216   5.036   2.994 -0.1130  0.1205  0.1614
28702W        W35302  11.133   4.202   1.324 -0.3117  0.0333 -0.0131
28703W        W35303  30.903   6.788   9.119 -0.2067  0.0035 -0.1549
28704W        W35304  21.615   1.031   1.187 -0.2092 -0.1740  0.1535
28705W        W35305  27.424   6.885  17.825  0.0822  0.0420 -0.3378
28706W        W35306   6.270   5.533  18.820 -0.1912  0.0432 -0.1528
28707W        W35307   9.567   6.366  19.115 -0.2398  0.1949 -0.0689
28708W        W35308   3.107   3.403  24.834  0.1836  0.0262 -0.1186
28709W        W35309   9.378   0.696  21.073 -0.2303  0.3769 -0.0575
28710W        W35310   2.024   6.955   9.418 -0.1258  0.3062 -0.1286
28711W        W35311   5.773   2.575  20.006  0.2864  0.2713 -0.1657
28712W        W35312   5.274   1.640   9.814 -0.0562  0.3079 -0.0611
28713W        W35313   7.104   3.019   7.527  0.1639  0.2680 -0.2674
28714W        W35314  15.298   5.095   9.325  0.3859 -0.1322 -0.1540
28715W        W35315  16.163   6.610  22.425 -0.0743  0.1757  0.0410
28716W        W35316  17.937   0.176   8.469  0.0308  0.2391  0.0202
28717W        W35317  26.296   3.673  16.326 -0.1624 -0.1871 -0.2593
28718W        W35318  23.339   0.243  20.378 -0.0742 -0.3977  0.1639
28719W        W35319  19.306   7.540  22.166  0.0882 -0.2341 -0.1897
28720W        W35320   5.846   0.610   6.383 -0.0201  0.1801  0.0354
28721W        W35321  19.127   6.318   4.962  0.1358  0.0278  0.0230
28722W        W35322  13.684   1.471  22.296 -0.2126  0.3207  0.1368
28723W        W35323   3.376   3.610  18.618  0.1205  0.1933  0.0261
28724W        W35324   9.723   7.069  19.873 -0.1290 -0.0607  0.3761
28725W        W35325  18.154   6.483   7.537 -0.0449  0.0998 -0.0595
28726W        W35326   5.766   4.375   8.040  0.0781  0.2294 -0.0521
28727W        W35327  30.676   4.715   9.363  0.2828 -0.0532 -0.1075
28728W        W35328  24.678   1.573  18.689 -0.1797  0.0545 -0.0403
28729W        W35329   4.893   7.077  21.805  0.1013  0.0851  0.5028
28730W        W35330   4.651   4.114  23.651  0.0527  0.0689  0.0990
28731W        W35331   2.481   1.427   5.726  0.1058  0.2195  0.0174
28732W        W35332  31.220   7.436   6.162 -0.2942  0.1230  0.0737
28733W        W35333   1.165   7.824   6.160 -0.1349  0.0012  0.0523
28734W        W35334  20.239   3.194  17.096 -0.2278  0.2002  0.0820
28735W        W35335   5.967   5.887  15.977 -0.1903 -0.0487  0.1350
28736W        W35336   1.660   2.803   7.939 -0.3025 -0.2211  0.2619
28737W        W35337  14.483   3.912  16.285  0.0908 -0.1330 -0.0243
28738W        W35338  17.424   0.702  18.516 -0.1496 -0.1739  0.1649
28739W        W35339  13.480   4.689   2.431 -0.0640  0.0774  0.1979
28740W        W35340  11.041   4.083  24.990 -0.0640  0.3363  0.0737
28741W        W35341  20.139   6.204   6.252 -0.0925 -0.0544  0.0238
28742W        W35342  21.328   5.066  18.798 -0.1106  0.1198 -0.1219
28743W        W35343  22.328   0.056   3.032 -0.0349 -0.1292  0.2053
28744W        W35344   6.250   6.315   2.589  0.0682  0.1564  0.1596
28745W        W35345  18.338   6.438   1.578  0.0962  0.0805 -0.0860
28746W        W35346   8.381   3.899   7.537  0.1389 -0.0735  0.2460
28747W        W35347  12.184   7.801  14.593 -0.1924 -0.1838  0.1125
28748W        W35348  13.648   4.701   5.303  0.1352 -0.0835 -0.0178
28749W        W35349  30.571   4.642  10.538 -0.0073 -0.0957  0.2005
28750W        W35350  16.432   0.719  18.712 -0.1317 -0.2490 -0.1980
28751W        W35351   5.860   5.910   0.071  0.3185 -0.0441 -0.1811
28752W        W35352  22.439   3.965  21.032 -0.0662  0.0746 -0.0396
28753W        W35353  25.219   5.568  24.561 -0.2563  0.0760  0.2666
28754W        W35354   5.683   7.084   7.242  0.1625  0.4754 -0.0090
28755W        W35355  10.187   0.945  25.390 -0.0968 -0.3127  0.0583
28756W        W35356  15.423   2.069   5.636  0.1302 -0.0431 -0.4389
28757W        W35357  23.570   6.435   7.782 -0.2631  0.0975  0.2798
28758W        W35358   3.889   3.719  17.422  0.1148  0.2477 -0.0162
28759W        W35359  10.411   0.597  15.859  0.0460  0.1471  0.3272
28760W        W35360   0.981   4.827  21.866 -0.0152 -0.2498  0.3463
28761W        W35361  11.188   4.954   1.605 -0.3099  0.3316 -0.0565
28762W        W35362  17.190   5.278   9.067  0.2160 -0.0295  0.1202
28763W        W35363  13.874   6.298  18.684 -0.0911 -0.2065 -0.0895
28764W        W35364  10.259   4.673  24.893 -0.1864 -0.1350  0.2659
28765W        W35365   6.535   3.563  20.718  0.0411  0.0285 -0.5202
28766W        W35366  28.529   4.959  10.594  0.3083 -0.2239  0.5926
28767W        W35367   2.369   5.766  11.556 -0.1834 -0.1023  0.2124
28768W        W35368   5.019   2.040   7.435 -0.0642  0.2254 -0.2566
28769W        W35369  17.836   5.684  20.452  0.1110 -0.2716 -0.3535
28770W        W35370  30.405   0.463  16.499  0.1535 -0.2175  0.1057
28771W        W35371   6.880   0.615   9.727 -0.0456 -0.1766  0.0569
28772W        W35372   6.514   5.014  20.978 -0.0780 -0.0572 -0.1168
28773W        W35373   4.196   1.638  10.873  0.2447 -0.0336 -0.0871
28774W        W35374  20.548   2.664   7.172  0.2732  0.4128 -0.0138
28775W        W35375  21.209   3.782  16.288 -0.0191 -0.1210 -0.2235
28776W        W35376  21.078   2.254   8.580 -0.1678 -0.2032  0.0262
28777W        W35377  12.503   3.957  21.479  0.0049 -0.1524  0.2335
28778W        W35378  12.815   1.028  21.537  0.2038  0.1433  0.0949
28779W        W35379   2.399   5.713  24.946 -0.0050  0.2263 -0.1169
28780W        W35380  26.624   1.572  17.623  0.1624  0.0717 -0.2535
28781W        W35381  19.593   1.797   9.122  0.0274  0.1318 -0.1573
28782W        W35382  22.467   7.794   8.240  0.0453 -0.0461 -0.0331
28783W        W35383  29.011   2.085   7.510  0.1618  0.0370 -0.0104
28784W        W35384   5.344   6.186  24.010  0.1151  0.1774  0.1836
28785W        W35385   3.668   5.190   7.315  0.0438  0.4915  0.2212
28786W        W35386  26.661   3.481  18.902 -0.0422  0.4414 -0.0083
28787W        W35387  14.097   4.988  24.607 -0.2441 -0.2161  0.1079
28788W        W35388  12.090   2.733   0.148 -0.1402  0.1114 -0.0737
28789W        W35389  11.178   1.372   0.809 -0.0406  0.2136 -0.0242
28790W        W35390  11.686   1.769  25.512 -0.2272 -0.1966 -0.0141
28791W        W35391  18.723   0.314   5.905  0.0437  0.0125  0.0139
28792W        W35392  14.675   1.303   5.810  0.1572  0.0862 -0.1996
28793W        W35393  13.310   1.203   5.065  0.0306  0.0283  0.4596
28794W        W35394  25.111   7.715  23.235 -0.1930  0.0027  0.1370
28795W        W35395   0.419   0.333  20.341 -0.1207 -0.1558 -0.0248
28796W        W35396  19.916   4.155   4.475 -0.0058 -0.0976 -0.2234
28797W        W35397  21.732   2.922   4.596  0.0641  0.2471  0.1679
28798W        W35398   5.844   3.645   9.183 -0.1190  0.2878  0.2532
28799W        W35399   6.912   7.230   6.437  0.1806  0.0444  0.1723
28800W        W35400   1.269   0.740  19.175  0.0789 -0.1603 -0.1006
28801W        W35401  20.704   1.244   6.926  0.2753 -0.1551 -0.0938
28802W        W35402  24.798   0.150  18.834  0.3368 -0.1646 -0.1812
28803W        W35403  17.977   0.721   6.738  0.2424 -0.4595 -0.1139
28804W        W35404  26.444   0.557  20.705 -0.1164 -0.0573  0.1358
28805W        W35405  24.584   4.568   4.911 -0.1861  0.2193 -0.2337
28806W        W35406  25.484   4.515   9.129 -0.1340  0.1074 -0.2617
28807W        W35407   4.711   4.844   4.945  0.1135 -0.2640  0.1474
28808W        W35408   9.905   3.713  24.118 -0.0449 -0.1092  0.1057
28809W        W35409   5.795   6.639   1.153  0.2875  0.2475 -0.1462
28810W        W35410   9.687   2.347   7.429 -0.1054  0.4852 -0.0075
28811W        W35411  16.331   5.730  22.128 -0.1456  0.3461  0.4754
28812W        W35412  26.324   2.151  18.458  0.2835  0.1396  0.3878
28813W        W35413  31.242   7.443   0.072  0.0796 -0.0799 -0.0073
28814W        W35414  31.283   4.451   9.648 -0.0104  0.1557  0.2070
28815W        W35415  27.154   1.398  20.741  0.6441 -0.0895 -0.0203
28816W        W35416  21.390   6.316  23.097 -0.1049  0.1362  0.1769
28817W        W35417  26.177   3.364   2.623 -0.2185 -0.1357  0.0705
28818W        W35418  20.410   0.090  21.157 -0.1533 -0.3198 -0.2072
28819W        W35419  19.585   3.224  24.573 -0.0300 -0.1611  0.0638
28820W        W35420  19.456   7.000  22.777  0.2430 -0.2469  0.1035
28821W        W35421  14.392   2.315  19.568  0.0181 -0.0591  0.1259
28822W        W35422  23.376   5.092   2.237  0.4911  0.0518 -0.0285
28823W        W35423   8.870   4.175  24.291  0.1025  0.2859  0.0958
28824W        W35424  11.255   5.308  18.299  0.2500 -0.1028 -0.1227
28825W        W35425   8.286   6.387  25.637 -0.1536  0.0626 -0.0174
28826W        W35426   8.326   5.125   2.965  0.2529  0.1774  0.0793
28827W        W35427  22.853   5.448   7.216 -0.1341 -0.1123  0.0080
28828W        W35428  30.851   6.240   0.104 -0.1199  0.1179  0.0821
28829W        W35429   2.717   6.004   6.594 -0.1447 -0.2762  0.1032
28830W        W35430  29.971   6.061   5.444  0.0061  0.1006 -0.1337
28831W        W35431   6.351   7.442  22.056 -0.1417  0.0828 -0.1140
28832W        W35432  21.437   2.044   7.239  0.0730  0.0261 -0.1419
28833W        W35433  17.338   1.835   0.524 -0.0808  0.1833  0.0184
28834W        W35434   3.703   2.731  19.039 -0.0682  0.1187  0.0680
28835W        W35435  22.547   3.946  23.604 -0.0910 -0.0486  0.1818
28836W        W35436  30.036   3.233  23.878 -0.2228  0.2220 -0.0555
28837W        W35437  18.768   1.034  23.800  0.4319 -0.0846  0.1179
28838W        W35438  17.506   4.588   3.201 -0.0579  0.0251  0.1204
28839W        W35439  23.975   3.244  22.493  0.2345  0.0574  0.0509
28840W        W35440  15.488   0.850  18.667  0.0696 -0.3343 -0.0708
28841W        W35441   7.592   1.821   7.389  0.2211  0.0940  0.1657
28842W        W35442  21.482   1.237   0.389 -0.1534 -0.3421  0.3305
28843W        W35443   7.008   0.270   3.632 -0.0815 -0.1092 -0.2337
28844W        W35444  10.918   1.034   8.038  0.0462 -0.1394  0.2398
28845W        W35445  10.689   7.524   0.843  0.2881  0.2130  0.0436
28846W        W35446   5.603   3.691   2.269  0.1148  0.1821  0.0165
28847W        W35447   2.612   3.500  20.286 -0.0536 -0.0828  0.0576
28848W        W35448  19.198   3.274   3.382  0.0263  0.0741 -0.0470
28849W        W35449  13.167   2.037  15.661  0.1567  0.0099  0.1464
28850W        W35450  17.183   5.190  19.731  0.0285 -0.0972 -0.2560
28851W        W35451  30.558   2.728  17.552  0.2012 -0.1466 -0.0424
28852W        W35452   8.304   7.299  17.374  0.3230 -0.0990 -0.0486
28853W        W35453  11.768   2.063  16.929  0.0319 -0.1443  0.2533
28854W        W35454  30.193   5.482   6.518  0.1097 -0.1397  0.2160
28855W        W35455   7.129   3.171   9.715  0.0401  0.2348 -0.0640
28856W        W35456   3.244   1.143   7.051  0.3067  0.0173 -0.0430
28857W        W35457  24.665   0.797  23.311  0.1774 -0.1910  0.2408
28858W        W35458  26.609   7.476   4.687 -0.1431  0.1477 -0.2321
28859W        W35459  26.108   4.316  10.219 -0.0683  0.3122  0.1226
28860W        W35460  17.295   4.199  24.183 -0.0465 -0.2783  0.0460
28861W        W35461  11.047   7.072   6.469 -0.0772 -0.1953 -0.0245
28862W        W35462  17.931   7.649  23.519  0.1009  0.3934  0.0870
28863W        W35463  30.482   5.222  10.561 -0.0114  0.3956 -0.0563
28864W        W35464  21.727   5.536   0.697 -0.0998 -0.0482 -0.1645
28865W        W35465  27.135   0.553   2.504 -0.0818  0.0980 -0.2305
28866W        W35466   8.583   4.223  15.248  0.0284  0.0028  0.0970
28867W        W35467  19.838   2.334   5.438 -0.1828 -0.0384  0.2147
28868W        W35468  21.096   7.528  25.332  0.0169  0.0866 -0.2508
28869W        W35469   8.394   6.601  20.510 -0.0328 -0.1275  0.1688
28870W        W35470   8.395   6.890  20.074 -0.0622 -0.0759  0.1036
28871W        W35471  21.659   0.077  21.205  0.0586 -0.1214 -0.3378
28872W        W35472  27.115   4.260  23.425 -0.2346  0.0145  0.0577
28873W        W35473   0.920   7.578   4.306 -0.1194 -0.1757 -0.1297
28874W        W35474   8.664   3.103  17.524  0.1805 -0.1814  0.2047
28875W        W35475  20.766   5.666  23.748 -0.1016 -0.1498 -0.2221
28876W        W35476  10.008   7.640   5.806 -0.1651 -0.1209  0.0824
28877W        W35477  23.076   2.594  20.046  0.1806  0.0840  0.2245
28878W        W35478  12.369   5.031   2.613 -0.1468  0.1564 -0.2506
28879W        W35479  14.054   4.398   6.610 -0.1807  0.0814 -0.2842
28880W        W35480  16.496   5.383  25.548 -0.2919 -0.2019  0.1453
28881W        W35481  23.047   5.507  22.617 -0.1052 -0.2313 -0.1273
28882W        W35482  26.653   4.236   8.738 -0.2802  0.1364  0.0721
28883W        W35483  18.292   1.441   7.024 -0.1272 -0.1693  0.0359
28884W        W35484  17.901   3.277   7.512  0.0626 -0.0576  0.1508
28885W        W35485  27.969   0.912  17.799  0.0111 -0.0911  0.1905
28886W        W35486  12.312   6.636  17.276 -0.1240 -0.0521  0.0887
28887W        W35487   5.952   5.380  25.530 -0.1777 -0.1077 -0.3775
28888W        W35488  22.525   5.532  17.295 -0.0526  0.1197  0.2876
28889W        W35489  24.203   7.352   1.385 -0.3495  0.3278  0.2585
28890W        W35490  15.989   3.703  22.248 -0.1078 -0.2271  0.1767
28891W        W35491  13.357   2.251  19.265 -0.2068  0.1082 -0.0308
28892W        W35492  12.739   1.157   6.860  0.1205  0.2210  0.3083
28893W        W35493   2.609   4.611   2.521  0.1050  0.1787  0.1856
28894W        W35494  12.064   3.804  25.793  0.0141  0.1466  0.1876
28895W        W35495  20.932   5.458   4.679 -0.1967  0.0267  0.2761
28896W        W35496  11.079   4.321  15.572 -0.1629  0.0224 -0.0212
28897W        W35497  25.484   7.673  18.960 -0.0370 -0.1014 -0.0819
28898W        W35498   5.382   4.111   7.169 -0.2015  0.0995 -0.1773
28899W        W35499  12.496   7.388   0.446  0.1949  0.0863 -0.0477
28900W        W35500  23.211   1.336   9.692  0.2121  0.1510  0.1027
28901W        W35501  29.806   0.375  17.910 -0.0016 -0.0314  0.1659
28902W        W35502  17.360   2.777  16.312 -0.3729 -0.0876 -0.4633
28903W        W35503  13.316   3.276  18.627 -0.1619 -0.1399 -0.0281
28904W        W35504  23.167   7.765  15.519 -0.1883 -0.3137  0.1949
28905W        W35505  12.993   3.108   8.771  0.0249 -0.1396  0.0331
28906W        W35506   3.895   2.871  11.136 -0.0908  0.0670  0.2698
28907W        W35507  10.359   6.022  26.128  0.1365 -0.1163 -0.2785
28908W        W35508  18.560   2.286  25.096  0.1947 -0.0648  0.0480
28909W        W35509  29.117   2.043  18.067 -0.0219  0.1910  0.3170
28910W        W35510  22.168   1.960  24.588  0.1270 -0.0681  0.1135
28911W        W35511   1.078   6.697  24.095  0.0265  0.0570 -0.2335
28912W        W35512  19.119   1.667   3.070 -0.3492 -0.2020 -0.1671
28913W        W35513  16.126   1.465  16.230 -0.4617  0.2552  0.0160
28914W        W35514   5.365   0.227   6.866  0.0620 -0.0896  0.1398
28915W        W35515  25.460   1.865  23.302  0.3755 -0.0042 -0.2000
28916W        W35516   3.771   5.305  19.465 -0.0150 -0.1680 -0.4460
28917W        W35517  23.545   5.640  22.601 -0.4472  0.0665  0.0221
28918W        W35518  30.058   6.469   6.002  0.0394 -0.2258  0.2355
28919W        W35519   0.215   5.961  25.402 -0.0030 -0.0206  0.0059
28920W        W35520  28.779   7.107  11.636 -0.2301 -0.1884  0.0331
28921W        W35521  14.746   6.855  22.007 -0.0600  0.0430 -0.3745
28922W        W35522  12.917   7.429  21.987 -0.0488 -0.0007 -0.1208
28923W        W35523   9.083   5.922  17.247  0.0314  0.1099  0.1296
28924W        W35524  28.225   3.254   5.086  0.0306 -0.2331  0.2891
28925W        W35525  10.028   1.158  21.798 -0.0391 -0.5171  0.0452
28926W        W35526   2.985   1.526  19.659  0.2959  0.1295 -0.2936
28927W        W35527   5.227   3.195  25.610  0.1093  0.0979 -0.1737
28928W        W35528  21.488   6.306  22.583  0.1621  0.1492  0.0976
28929W        W35529  27.352   5.997   0.301  0.0979  0.1019 -0.0047
28930W        W35530   1.308   5.444   5.838  0.0982 -0.0062 -0.2384
28931W        W35531  12.046   1.498   3.170 -0.1169 -0.0370  0.0626
28932W        W35532  20.827   0.282   8.779 -0.1125  0.2046 -0.0429
28933W        W35533   8.595   0.649   2.153 -0.0032 -0.0106 -0.0025
28934W        W35534  16.165   2.485   9.208  0.0793 -0.2062  0.1959
28935W        W35535  14.332   1.845  16.274  0.0391  0.0233  0.0321
28936W        W35536  27.009   1.405   6.967 -0.0242 -0.2336 -0.0096
28937W        W35537   5.905   3.539  17.298 -0.0199  0.0790 -0.2904
28938W        W35538  26.715   7.194  24.899  0.0670  0.1231  0.0892
28939W        W35539  18.327   1.036   3.948 -0.0094  0.0740 -0.2862
28940W        W35540   4.708   4.304   7.688  0.0857 -0.0490  0.1134
28941W        W35541  22.204   4.582  17.343 -0.0651 -0.1522  0.1703
28942W        W35542  13.477   3.651   9.662 -0.2503  0.0810  0.1628
28943W        W35543  12.763   2.918   0.603 -0.1059 -0.1102  0.0417
28944W        W35544   1.452   1.041   7.645  0.0073  0.1446 -0.0930
28945W        W35545  19.567   6.963   4.925 -0.0575  0.1805 -0.0690
28946W        W35546   5.321   1.949  25.040 -0.0867 -0.0488 -0.1719
28947W        W35547  21.189   4.559   6.920 -0.0334  0.2526 -0.2455
28948W        W35548  26.247   4.772   2.710  0.2443  0.0067 -0.0314
28949W        W35549   9.826   0.619  17.576  0.0003 -0.0026  0.0544
28950W        W35550  13.477   3.689  17.738 -0.2014 -0.1124 -0.0106
28951W        W35551   3.464   3.626  19.144 -0.1341 -0.4660 -0.0745
28952W        W35552  11.314   4.389   7.468 -0.1968 -0.2438  0.3299
28953W        W35553   4.979   7.180  11.448 -0.2877 -0.0102 -0.1256
28954W        W35554  15.007   7.216  17.283  0.0980  0.1333  0.1967
28955W        W35555  18.390   3.742   1.900  0.0383 -0.1465  0.3691
28956W        W35556  27.075   5.950  24.327  0.2369  0.1513  0.2719
28957W        W35557  17.531   7.272   2.917 -0.2207  0.0009  0.1878
28958W        W35558   4.649   5.797  21.452  0.0471  0.5491  0.0923
28959W        W35559   3.372   1.922  19.304  0.0719 -0.0601  0.0762
28960W        W35560  22.386   3.352   4.241  0.0535  0.3352  0.0783
28961W        W35561  18.044   2.056  21.764  0.3066  0.0372 -0.2208
28962W        W35562  24.585   1.164  11.264  0.1132 -0.1875  0.0595
28963W        W35563  15.829   0.362  21.043 -0.1865 -0.3173  0.0228
28964W        W35564  30.794   5.868  19.532  0.0470 -0.0466 -0.1857
28965W        W35565   9.064   7.116  14.730 -0.2459  0.0474 -0.2110
28966W        W35566  17.553   6.640  17.602  0.1642  0.1985 -0.1472
28967W        W35567   2.430   6.694  23.430  0.0942  0.1833  0.4269
28968W        W35568   9.563   4.319   9.027  0.1276 -0.1545  0.1135
28969W        W35569  13.821   0.085  21.291  0.1003 -0.1505 -0.1191
28970W        W35570   5.025   0.967   2.572 -0.2616  0.3937 -0.0781
28971W        W35571  23.284   6.353  23.974  0.0137  0.0931 -0.1255
28972W        W35572  20.482   3.881   7.284  0.0800 -0.0221 -0.0251
28973W        W35573   0.759   0.745  18.041  0.1765  0.0324 -0.1268
28974W        W35574   1.527   3.949   7.345  0.0174  0.1649 -0.1939
28975W        W35575   7.057   0.760   4.485 -0.1600  0.2018 -0.0579
28976W        W35576  24.882   1.785  16.846 -0.0694  0.1153 -0.2589
28977W        W35577   0.041   0.362   2.210 -0.0357  0.1488  0.2420
28978W        W35578  11.236   0.131  16.544  0.2157 -0.1492 -0.0003
28979W        W35579  27.136   2.220  18.899  0.0571 -0.2078 -0.0337
28980W        W35580  14.338   3.636   9.170 -0.1757 -0.0781  0.0656
28981W        W35581  19.936   2.613   9.282  0.0400 -0.0154 -0.0053
28982W        W35582  11.184   0.334  22.056  0.4253 -0.0652 -0.2417
28983W        W35583   2.586   1.786  25.935 -0.0070 -0.1282 -0.0982
28984W        W35584  28.243   2.692  11.471  0.2898  0.2671  0.1703
28985W        W35585  14.790   4.114  17.393  0.0466  0.1497 -0.0610
28986W        W35586  27.173   6.803  21.348 -0.1870 -0.0061  0.1078
28987W        W35587  12.722   4.807   1.688  0.2168 -0.2256 -0.0892
28988W        W35588   6.096   1.197  25.119 -0.1113  0.0445 -0.1312
28989W        W35589  16.203   4.047   4.345  0.0553 -0.1453 -0.0108
28990W        W35590  31.171   3.817  19.332  0.0355  0.6662  0.1642
28991W        W35591  29.080   4.805  18.825  0.1328  0.0066  0.4147
28992W        W35592  29.299   7.193   9.067 -0.2031  0.1545  0.1407
28993W        W35593  13.799   3.122   2.731 -0.1353  0.3586  0.2391
28994W        W35594   2.051   5.313  20.919 -0.1919  0.0039 -0.0339
28995W        W35595   9.754   0.237  20.959  0.1095 -0.2332  0.3427
28996W        W35596  26.815   0.416   4.264 -0.0864 -0.0754  0.3669
28997W        W35597  12.852   1.451   0.050  0.2264  0.1593  0.1455
28998W        W35598  17.657   3.216  17.056  0.1840 -0.0111  0.1092
28999W        W35599  11.150   7.274  15.905  0.0663 -0.1981  0.0148
29000W        W35600   1.592   0.366   2.662 -0.1437  0.2644  0.3660
29001W        W35601   0.029   5.127   5.854 -0.0370 -0.0872  0.2408
29002W        W35602   0.260   0.604  17.870  0.4230 -0.0020  0.0768
29003W        W35603  13.149   4.885  19.489 -0.1268  0.3511 -0.0717
29004W        W35604  15.078   1.040   6.619  0.2780 -0.2767 -0.0810
29005W        W35605  23.646   3.418  20.738 -0.1682 -0.0418  0.0475
29006W        W35606   8.573   3.516  18.776 -0.0686  0.2000 -0.0553
29007W        W35607  16.577   1.117  21.662 -0.2161 -0.1554 -0.0161
29008W        W35608   9.911   3.599  19.580 -0.3680  0.0881  0.1315
29009W        W35609   5.940   3.292   5.959  0.2441 -0.1546 -0.2006
29010W        W35610  11.205   5.621  20.679 -0.3067 -0.2317  0.2627
29011W        W35611   3.800   6.421  21.019 -0.0508  0.0970  0.2768
29012W        W35612   3.282   0.199  16.873 -0.0172  0.1840 -0.1253
29013W        W35613   7.423   4.806   3.131  0.0665  0.1585 -0.0243
29014W        W35614  10.504   6.029  21.019  0.0299  0.0605  0.0813
29015W        W35615   3.586   7.571   4.660  0.1709 -0.1163  0.2393
29016W        W35616  31.149   3.275  24.391  0.1494  0.1682 -0.0554
29017W        W35617   2.964   7.238   9.587  0.0419  0.0460 -0.1127
29018W        W35618   1.558   6.500  19.067  0.3149  0.3990 -0.0468
29019W        W35619  20.538   5.821  25.458  0.0760 -0.0557 -0.4619
29020W        W35620   9.332   2.366   7.062  0.1539  0.0042 -0.1349
29021W        W35621  26.345   4.326  16.262  0.2509  0.1073  0.1645
29022W        W35622  12.636   3.388  15.618  0.0806  0.0792 -0.2026
29023W        W35623   1.877   3.471   8.552  0.1076 -0.2037  0.1552
29024W        W35624  28.825   3.586  21.549  0.2029 -0.0412 -0.3885
29025W        W35625  17.772   7.741  21.059 -0.2780  0.0086  0.2290
29026W        W35626   4.005   3.304   1.367  0.0938 -0.1435  0.1364
29027W        W35627   7.838   2.115  10.278  0.0903  0.1607  0.0101
29028W        W35628  24.404   7.189   8.193 -0.2088 -0.1744 -0.0327
29029W        W35629   4.789   2.958   9.648 -0.4659  0.1099  0.1325
29030W        W35630  12.050   3.792  24.551  0.0713 -0.2884 -0.0309
29031W        W35631  17.928   6.109  22.661  0.0529  0.1202  0.4246
29032W        W35632  22.462   1.487   1.363 -0.2466 -0.0630  0.3595
29033W        W35633   5.289   1.701   0.096 -0.0151  0.1711 -0.0522
29034W        W35634  17.889   1.664  17.420  0.0415 -0.1950 -0.4006
29035W        W35635  14.047   7.671   6.416  0.1615  0.1266  0.2619
29036W        W35636  29.546   1.918  17.344 -0.1703  0.4395 -0.0488
29037W        W35637  15.552   6.181  23.248 -0.0430  0.1480  0.1162
29038W        W35638   4.556   6.958  20.359 -0.2422 -0.0485 -0.0811
29039W        W35639   7.176   2.867   4.726 -0.4054 -0.1365 -0.4630
29040W        W35640  11.244   2.752   1.699 -0.0908  0.4476 -0.0467
29041W        W35641   3.924   0.530   4.775 -0.2595 -0.0033 -0.0505
29042W        W35642  13.777   0.354   7.074  0.1692  0.2315 -0.0203
29043W        W35643  19.300   0.055  15.309 -0.0044 -0.0580 -0.2971
29044W        W35644  18.161   0.726  20.043 -0.2318 -0.1244 -0.0435
29045W        W35645  14.297   7.490  22.816 -0.4105  0.0146 -0.4528
29046W        W35646  20.243   3.340   6.380 -0.0686  0.4746 -0.0544
29047W        W35647  31.190   3.055  10.756 -0.0078  0.0151 -0.2417
29048W        W35648  26.274   4.562  18.942  0.1695 -0.2726  0.0765
29049W        W35649  11.540   6.486   2.280  0.0682 -0.0668 -0.0431
29050W        W35650  31.012   1.162  20.984  0.1162 -0.3265 -0.0590
29051W        W35651   5.595   3.805  23.044 -0.0278  0.2598  0.0143
29052W        W35652  27.651   6.686  21.488 -0.2700 -0.1360 -0.0222
29053W        W35653  12.876   5.250  22.263 -0.0796  0.0235  0.0239
29054W        W35654  18.979   5.709  10.468 -0.1433 -0.1920  0.0589
29055W        W35655  23.502   2.209   3.015 -0.2157 -0.2306  0.0235
29056W        W35656   8.245   6.517  23.089 -0.0290  0.2092  0.3721
29057W        W35657   1.920   6.489  15.623  0.0094  0.1849 -0.0852
29058W        W35658  20.452   6.197  17.010  0.1291  0.1459 -0.0753
29059W        W35659  14.766   4.929   5.097  0.1159  0.0984 -0.0825
29060W        W35660  23.907   1.049  11.072 -0.3837  0.2542 -0.1133
29061W        W35661  30.548   6.098   4.638  0.2580  0.0855  0.1204
29062W        W35662  21.144   1.266   1.016  0.0021 -0.0655 -0.0352
29063W        W35663  13.556   7.790   6.359  0.0228 -0.0684  0.0506
29064W        W35664  20.163   0.759  22.708  0.1463 -0.0035  0.0331
29065W        W35665  17.975   4.198  20.095  0.0797  0.0878 -0.3104
29066W        W35666   2.583   6.955   9.404 -0.2400  0.3535 -0.0136
29067W        W35667   7.378   6.355   9.842 -0.1097  0.0228  0.0424
29068W        W35668  11.743   3.380  15.875  0.0144 -0.3038  0.2866
29069W        W35669  27.506   2.727  18.359 -0.2135  0.0007  0.1540
29070W        W35670  22.442   3.806   9.993  0.0322  0.1502  0.0062
29071W        W35671  26.152   0.106  16.467 -0.2384  0.0725 -0.0311
29072W        W35672  14.888   6.543   6.524 -0.4089 -0.0922  0.0978
29073W        W35673  21.926   4.609   8.047  0.1230 -0.2339  0.0763
29074W        W35674  11.887   4.134  20.894 -0.2045  0.0250 -0.1387
29075W        W35675   1.571   7.550   9.577  0.2272 -0.0328  0.0492
29076W        W35676  21.259   0.133   8.365  0.0528 -0.1306 -0.2001
29077W        W35677  29.246   3.116  10.477 -0.0405 -0.0722  0.1414
29078W        W35678   5.489   4.031  22.575 -0.0595  0.1221  0.0066
29079W        W35679  20.733   0.424  23.261 -0.2200 -0.2199 -0.1575
29080W        W35680   0.286   7.159  19.314  0.1214 -0.1018 -0.2500
29081W        W35681  31.091   6.405  21.554  0.0835  0.0150  0.1599
29082W        W35682   5.449   2.445  11.429  0.0000 -0.1343 -0.2471
29083W        W35683  16.946   1.976  16.539 -0.1006 -0.1211  0.0679
29084W        W35684   9.217   4.072  19.129  0.1500  0.0936 -0.2057
29085W        W35685  22.354   1.603   2.809  0.0401  0.1892  0.3878
29086W        W35686  28.548   7.165  19.820 -0.4265 -0.4553  0.0943
29087W        W35687  23.995   1.275   0.185 -0.1467 -0.1168  0.0512
29088W        W35688   6.455   2.255  20.916  0.4577  0.1569  0.0350
29089W        W35689  21.114   1.861  24.396  0.1732  0.3516  0.2409
29090W        W35690  22.543   6.768  19.342 -0.0773  0.0335  0.0992
29091W        W35691   6.645   0.918   4.092  0.2235 -0.3244 -0.0352
29092W        W35692  26.426   5.420  26.118  0.0933  0.2396  0.1295
29093W        W35693  12.858   2.853  20.486 -0.0360  0.2857 -0.0123
29094W        W35694  30.514   3.381   7.098 -0.2492  0.3072  0.0472
29095W        W35695  30.174   5.974   6.041  0.0466  0.0811 -0.1077
29096W        W35696   0.772   7.449  10.693 -0.0729  0.2634 -0.2599
29097W        W35697  26.691   1.172  16.917 -0.0277 -0.0894  0.2203
29098W        W35698  14.986   2.543   6.351 -0.3687 -0.0432  0.0184
29099W        W35699  14.755   5.070  17.890 -0.1736 -0.2099 -0.0975
29100W        W35700   9.400   2.150   4.920  0.3283  0.0482 -0.0992
29101W        W35701   4.686   2.904  16.733  0.0237  0.2472 -0.0109
29102W        W35702   3.072   3.869  17.224  0.3295  0.0474  0.1086
29103W        W35703  15.261   2.705  10.650 -0.2456 -0.3343  0.1254
29104W        W35704  11.015   0.992   9.502 -0.0479  0.0068  0.0388
29105W        W35705  20.783   0.194  25.509 -0.0958 -0.0764  0.0513
29106W        W35706  29.516   1.906   7.567 -0.1836  0.1248 -0.0311
29107W        W35707   7.261   3.938  21.635 -0.0644 -0.1408  0.1604
29108W        W35708  23.324   0.113   1.251 -0.1277 -0.2511  0.0432
29109W        W35709  14.637   6.148  21.150 -0.3646  0.0820  0.1131
29110W        W35710  29.232   4.366  19.636 -0.0021  0.1618 -0.0112
29111W        W35711  10.439   1.896  18.827 -0.0587  0.1586 -0.0441
29112W        W35712   3.379   5.722   6.640  0.1167 -0.3379  0.0144
29113W        W35713  17.311   1.000   3.228  0.0397  0.0170  0.3578
29114W        W35714  19.285   0.135  23.533 -0.0749 -0.1372  0.0366
29115W        W35715  11.384   1.114  20.697 -0.1236  0.6396 -0.1337
29116W        W35716   5.527   2.902   1.970  0.1586  0.0342  0.1458
29117W        W35717  16.850   3.696  15.437  0.0351  0.3557 -0.0640
29118W        W35718  10.994   5.326  17.857 -0.1046  0.1069 -0.1064
29119W        W35719   7.853   7.826   3.205  0.0278 -0.3951 -0.0830
29120W        W35720   8.330   0.408   5.006 -0.0488  0.0615 -0.0105
29121W        W35721   7.316   3.137  14.562 -0.1937 -0.0434 -0.0068
29122W        W35722  12.549   1.652  20.680  0.1835  0.4625 -0.3685
29123W        W35723   0.166   6.628   2.273 -0.1057  0.0961  0.0166
29124W        W35724  21.866   6.364   2.215  0.2535  0.0798  0.0481
29125W        W35725  15.469   1.942  24.689 -0.0594 -0.3143  0.2286
29126W        W35726   8.941   2.396  20.393  0.1059 -0.3404 -0.0802
29127W        W35727  14.251   5.575  18.759  0.1538  0.0277  0.1328
29128W        W35728   0.655   5.233  19.917  0.2006 -0.1712 -0.3551
29129W        W35729  13.424   4.679  22.319  0.2138 -0.0248 -0.2904
29130W        W35730  10.198   0.149  20.131  0.0830 -0.1253 -0.1931
29131W        W35731  24.082   2.273  25.129  0.1997 -0.0653  0.0753
29132W        W35732  24.318   5.076   0.418  0.0883  0.3524 -0.0496
29133W        W35733  29.043   7.693   5.275  0.2769 -0.1292 -0.0542
29134W        W35734  17.512   6.623   9.324  0.1624  0.2510  0.0147
29135W        W35735   0.992   0.068   3.749  0.0818 -0.0033  0.3557
29136W        W35736  13.375   6.170  18.555  0.2226  0.1249  0.0553
29137W        W35737  15.492   1.196  18.328  0.0503 -0.2247 -0.0982
29138W        W35738  24.954   5.353  15.636  0.0693  0.2282 -0.1682
29139W        W35739  16.450   7.437  23.975  0.1038 -0.0348 -0.1063
29140W        W35740  19.746   7.742  24.612  0.1970  0.0173 -0.1492
29141W        W35741  24.586   3.407  18.367  0.0833 -0.0044  0.0542
29142W        W35742  24.178   6.168   4.273 -0.2029 -0.0390 -0.0570
29143W        W35743  15.358   7.605   4.278  0.2408 -0.2297 -0.0057
29144W        W35744  29.709   0.584  11.660  0.0730 -0.0931  0.1484
29145W        W35745  11.393   3.237   0.914 -0.3042  0.1999 -0.2493
29146W        W35746   2.365   0.916  26.141  0.2501  0.0175 -0.2869
29147W        W35747   9.889   5.693  15.425 -0.0644  0.1583  0.1178
29148W        W35748  10.148   1.835   8.102  0.0956 -0.0409  0.0066
29149W        W35749  23.422   4.128   6.629  0.0034 -0.2064  0.0834
29150W        W35750   7.830   2.400  24.640 -0.0992  0.1987  0.2794
29151W        W35751  19.918   1.675  16.391 -0.1228  0.1822  0.0711
29152W        W35752  28.183   4.572   0.520  0.0446  0.0187 -0.0968
29153W        W35753  19.282   1.034  25.068  0.1785  0.0131 -0.0745
29154W        W35754  28.276   6.298  24.251 -0.0056 -0.1787  0.0539
29155W        W35755  18.263   3.046  16.893  0.1073  0.1913 -0.2817
29156W        W35756  22.327   5.550   9.875 -0.0102 -0.1313 -0.2299
29157W        W35757  10.192   6.668   7.347 -0.0254 -0.0547  0.0102
29158W        W35758   9.258   5.444   1.826  0.2256  0.0380 -0.1284
29159W        W35759  13.064   7.530  10.007 -0.1014 -0.1321 -0.0427
29160W        W35760  21.301   1.184  19.287  0.1060  0.0784 -0.1184
29161W        W35761   0.938   3.886   0.222 -0.0064  0.1655  0.0005
29162W        W35762   7.041   2.328  24.673 -0.1059  0.0737  0.4146
29163W        W35763   6.093   2.335   8.668  0.0755 -0.0337  0.1729
29164W        W35764  27.544   3.805   9.447 -0.3655 -0.1008 -0.0938
29165W        W35765  28.932   1.125  25.053  0.1022 -0.0187  0.1121
29166W        W35766   5.295   3.393  10.738  0.0331  0.3014  0.1748
29167W        W35767   9.700   5.003  17.877  0.2503  0.0075  0.0165
29168W        W35768  21.593   7.104   6.281  0.2183 -0.0183  0.1597
29169W        W35769   1.415   1.553  23.510  0.2255 -0.1868 -0.1513
29170W        W35770  10.945   1.764  10.960 -0.0582 -0.2363 -0.2519
29171W        W35771  28.233   2.370  22.068  0.1748  0.0376 -0.0471
29172W        W35772   0.042   6.896  24.013  0.1911 -0.1933 -0.1543
29173W        W35773   5.036   6.589   6.051 -0.1948 -0.0615  0.2492
29174W        W35774  23.516   5.286   1.379 -0.0585 -0.2077 -0.0604
29175W        W35775  25.043   2.027  15.093  0.2959 -0.1537  0.1841
29176W        W35776   4.751   4.797  22.812  0.2680  0.0630  0.0872
29177W        W35777   9.331   2.848  20.462  0.1170 -0.0656  0.0528
29178W        W35778  12.636   7.008  21.766  0.1278  0.0260  0.0775
29179W        W35779  10.273   7.430  22.797  0.2047  0.3592  0.2137
29180W        W35780   8.684   6.516  17.431  0.1939  0.0031  0.0776
29181W        W35781   9.516   0.284   1.823 -0.1099  0.1192 -0.0661
29182W        W35782   7.400   3.038  22.373  0.0141 -0.1373  0.1611
29183W        W35783  12.894   6.735   9.577 -0.0549 -0.0491 -0.1994
29184W        W35784   0.452   4.710  18.333  0.0101  0.0410 -0.0443
29185W        W35785  30.437   4.092   5.865  0.1080  0.0995  0.2038
29186W        W35786   5.062   0.995  23.697 -0.0635 -0.2046 -0.2376
29187W        W35787   7.452   2.160   5.693  0.1189  0.3419 -0.1301
29188W        W35788   4.340   5.184  25.919  0.2849 -0.0254  0.1378
29189W        W35789   9.766   4.249  21.241 -0.0330  0.2240  0.0377
29190W        W35790  29.792   3.723  18.716  0.0167  0.0709  0.0626
29191W        W35791   7.805   2.157   0.283 -0.1018  0.2498 -0.3024
29192W        W35792  22.067   6.369   3.068  0.1873  0.0900 -0.1355
29193W        W35793  24.621   3.625  24.949  0.3853  0.0493 -0.2188
29194W        W35794   6.528   4.799  17.138 -0.1793 -0.0947  0.0372
29195W        W35795   4.361   6.904  24.377  0.2716  0.1297 -0.0845
29196W        W35796   2.549   4.769  24.173  0.1307  0.1789  0.3491
29197W        W35797  22.752   2.715   9.658 -0.0293  0.1385  0.0058
29198W        W35798   5.090   6.945   9.988  0.1363 -0.1090  0.3088
29199W        W35799  26.667   0.152  22.194  0.0828  0.1629  0.3049
29200W        W35800  16.875   7.709  24.373  0.2650  0.1206  0.1046
29201W        W35801   3.349   4.778  23.046 -0.0754  0.1058  0.0436
29202W        W35802  25.135   3.088   1.755  0.0383 -0.0804  0.4807
29203W        W35803  23.485   4.705   3.492  0.1505  0.1046  0.0071
29204W        W35804  19.679   5.838  17.219 -0.0899  0.3401  0.1370
29205W        W35805   6.144   4.141  23.212  0.2588 -0.1270  0.1154
29206W        W35806   4.045   5.634  20.817  0.1624 -0.1597 -0.0384
29207W        W35807  14.135   2.856   7.323  0.0267 -0.0610  0.2527
29208W        W35808  28.043   2.214  10.598  0.3403  0.0987  0.0096
29209W        W35809  21.563   6.921   3.476 -0.2356 -0.1747  0.0314
29210W        W35810  25.386   6.198   4.119  0.0799  0.2146  0.3102
29211W        W35811   8.585   4.097  16.704  0.0303  0.0042 -0.2633
29212W        W35812  27.286   6.940  23.195 -0.2322  0.1305 -0.3513
29213W        W35813  19.704   6.561   3.592 -0.0341 -0.0670 -0.0249
29214W        W35814   5.312   2.415  21.416 -0.0524  0.0370  0.3117
29215W        W35815  27.131   0.863   1.541 -0.1419  0.1006 -0.2007
29216W        W35816   7.183   1.537   7.475  0.0608  0.3387  0.3080
29217W        W35817   7.368   1.942  21.886 -0.0693  0.0939  0.1861
29218W        W35818  29.879   2.120  22.280 -0.0354 -0.1143 -0.0796
29219W        W35819   1.993   1.030   3.444  0.2196  0.1151  0.1099
29220W        W35820   9.043   5.742  23.745  0.0588 -0.3683 -0.0225
29221W        W35821   4.965   6.693  17.640 -0.1473 -0.1881 -0.0096
29222W        W35822   0.258   4.319  25.332 -0.1596  0.1163  0.1667
29223W        W35823  11.235   0.356  23.822 -0.0299  0.0312  0.1189
29224W        W35824  29.026   3.173  11.079 -0.2406 -0.0375  0.2924
29225W        W35825  29.665   0.844  25.398  0.1605 -0.0948  0.0658
29226W        W35826  13.509   4.621  15.812  0.2799 -0.3120  0.0194
29227W        W35827  12.774   3.956   3.448 -0.2379 -0.2668 -0.0561
29228W        W35828   8.900   6.142   6.686  0.2200  0.1149  0.0371
29229W        W35829  24.652   4.864   0.081 -0.0321  0.0793 -0.1732
29230W        W35830   1.195   5.469  18.548  0.1028 -0.0750  0.3289
29231W        W35831   0.670   5.688  10.831  0.0368 -0.0072  0.0615
29232W        W35832  14.012   4.164   2.963 -0.0995  0.0756 -0.0956
29233W        W35833  22.219   7.620   3.414 -0.1428  0.4786  0.0770
29234W        W35834  17.106   0.286  18.330 -0.1803 -0.1270  0.0935
29235W        W35835   0.371   5.351  21.079  0.0506 -0.1026 -0.1036
29236W        W35836   7.266   6.607  10.738  0.1713  0.0940 -0.0094
29237W        W35837   9.854   7.780  22.429 -0.0403 -0.0897  0.3444
29238W        W35838  24.099   0.218  25.517 -0.0545  0.0427  0.2675
29239W        W35839  17.175   4.514   3.570 -0.2833  0.1875  0.1455
29240W        W35840  13.732   0.248   5.530  0.0189  0.1887  0.1026
29241W        W35841  17.399   6.415   2.764 -0.1145  0.1875 -0.3430
29242W        W35842  26.102   1.285  19.220 -0.0520 -0.0292 -0.2938
29243W        W35843   1.058   0.987  16.748 -0.4025  0.3218  0.4959
29244W        W35844  14.185   0.150  26.102  0.0138  0.0289  0.0140
29245W        W35845   9.100   0.639   7.185 -0.2749  0.0030  0.0913
29246W        W35846  24.310   5.569   3.259 -0.0657  0.0351  0.1948
29247W        W35847  22.170   5.383  19.110 -0.0817  0.0132  0.3885
29248W        W35848  28.087   2.943  15.726  0.2630 -0.2604  0.1701
29249W        W35849  11.949   3.802  16.671  0.0353  0.4445  0.1347
29250W        W35850  10.592   6.153  19.058  0.2188  0.0038  0.1789
29251W        W35851  24.667   7.167   1.101 -0.1701  0.0495 -0.0615
29252W        W35852  15.950   3.834   5.504  0.1725  0.0390 -0.1737
29253W        W35853  21.280   2.841   5.160  0.0862 -0.1731  0.2074
29254W        W35854  12.955   0.254   2.126 -0.2276  0.1506  0.0302
29255W        W35855  29.833   4.293  18.967 -0.3323  0.2506  0.0657
29256W        W35856  30.657   4.578   3.386 -0.1425 -0.1830  0.2600
29257W        W35857   7.879   1.559   7.713  0.1254  0.0380 -0.2041
29258W        W35858  15.800   2.820   4.725 -0.1132 -0.0309 -0.4490
29259W        W35859  16.102   4.735  19.154  0.0010  0.4860 -0.2179
29260W        W35860  15.244   1.344   3.691  0.0217  0.1161  0.1083
29261W        W35861  26.298   3.098  20.723  0.0801  0.0017  0.1477
29262W        W35862  12.473   5.655  24.791  0.0070  0.0153  0.1816
29263W        W35863   9.615   1.036  24.524  0.1259 -0.2866  0.0375
29264W        W35864   6.608   3.770   6.774  0.0413  0.2031 -0.1891
29265W        W35865   2.129   2.975   9.720 -0.0816 -0.0913  0.0663
29266W        W35866  17.876   2.408  19.156 -0.0741 -0.0512  0.3013
29267W        W35867  17.283   3.576   4.253  0.0267  0.0595 -0.0881
29268W        W35868  26.072   0.380   4.182  0.1688 -0.3795 -0.3268
29269W        W35869  26.365   0.980   8.690 -0.0793  0.0301  0.0397
29270W        W35870  13.094   2.785  18.215  0.0951  0.2077  0.1099
29271W        W35871  14.629   4.205  23.580 -0.0279  0.0612  0.1219
29272W        W35872  14.436   1.795  15.793 -0.2410  0.1985 -0.0079
29273W        W35873  26.206   7.169  15.776  0.0442 -0.1058  0.1798
29274W        W35874  18.911   5.631  20.307  0.2888  0.1521 -0.0697
29275W        W35875  19.328   2.119   1.680  0.1391  0.2058 -0.2063
29276W        W35876  11.378   2.475   1.332 -0.1104  0.0093  0.3315
29277W        W35877  23.999   0.563  16.299  0.1914 -0.0445 -0.2841
29278W        W35878  25.154   2.094  19.699  0.0984  0.1544 -0.2997
29279W        W35879  14.251   5.356  21.910  0.2342  0.1580 -0.2744
29280W        W35880  16.221   1.242   5.616  0.0508  0.1610  0.0618
29281W        W35881  19.642   4.955  10.433 -0.6120  0.0912 -0.0530
29282W        W35882   2.522   2.992   3.913 -0.1112 -0.1530  0.1296
29283W        W35883  11.758   0.593  16.931  0.0726 -0.3197  0.3868
29284W        W35884  11.331   5.500   2.528  0.3010  0.0114  0.0359
29285W        W35885  25.747   3.795  22.022  0.1131 -0.2305  0.0630
29286W        W35886  27.249   7.519  18.489 -0.1946 -0.1580 -0.2255
29287W        W35887  21.374   2.314   4.308  0.2309 -0.1059 -0.0558
29288W        W35888   4.141   1.617  16.358 -0.0083  0.1405  0.1081
29289W        W35889  10.155   6.758  15.702  0.1276 -0.0548  0.1805
29290W        W35890  26.833   4.510   6.804  0.0422 -0.0616 -0.0320
29291W        W35891  19.625   6.237   5.943 -0.1167 -0.1417 -0.1963
29292W        W35892  13.818   2.348   8.134  0.1105  0.3318  0.1957
29293W        W35893  21.286   6.082  24.946  0.0846  0.0528 -0.0037
29294W        W35894  29.435   5.764   0.338  0.4817  0.1765 -0.2083
29295W        W35895   1.202   7.804  11.710 -0.1119 -0.0730  0.2086
29296W        W35896   9.582   4.072  25.619 -0.1288  0.1345  0.1032
29297W        W35897  27.076   2.558  10.646  0.1355 -0.0171 -0.0038
29298W        W35898  10.703   1.016  17.239 -0.1495 -0.0503 -0.2472
29299W        W35899  22.646   1.048  21.791 -0.1768 -0.1899 -0.0862
29300W        W35900   1.952   1.421   9.382 -0.0137 -0.2451  0.2864
29301W        W35901  30.189   1.256  15.992 -0.0847  0.0179 -0.1040
29302W        W35902   1.802   4.659  11.199 -0.0261  0.1923  0.0775
29303W        W35903  25.903   6.806  25.729  0.0803 -0.0293 -0.0042
29304W        W35904  28.404   4.004  19.728 -0.0453  0.2720  0.0243
29305W        W35905  25.813   1.152  20.622  0.0756  0.2934  0.0866
29306W        W35906  26.122   5.348   5.272  0.1025 -0.0111  0.1511
29307W        W35907  25.961   0.306   7.576 -0.0181  0.1106  0.3782
29308W        W35908   0.390   4.763  23.693 -0.0826  0.3252  0.0213
29309W        W35909  21.061   6.956   1.445  0.0034 -0.1740 -0.0864
29310W        W35910  30.983   1.075  25.431 -0.2627  0.1178  0.0515
29311W        W35911  12.459   1.973  18.408  0.1042  0.4217  0.1398
29312W        W35912  15.343   4.095   5.899  0.0033  0.0225 -0.1833
29313W        W35913  28.286   2.135   9.275 -0.2892 -0.0645  0.3203
29314W        W35914  29.495   4.799   6.966  0.1811 -0.0127  0.0106
29315W        W35915  26.224   5.722  24.517  0.3484  0.1097  0.0141
29316W        W35916  11.639   7.071  23.143 -0.1510  0.2578 -0.0611
29317W        W35917   1.720   6.906   3.212  0.0371  0.0498 -0.2182
29318W        W35918  21.962   2.436  20.368 -0.0311 -0.3379 -0.1147
29319W        W35919   7.533   6.266   3.063  0.1357 -0.2628 -0.2314
29320W        W35920  17.043   0.102  21.481 -0.0965  0.1747  0.2058
29321W        W35921  25.576   7.152   3.007  0.0900 -0.0949  0.1260
29322W        W35922  16.842   1.389   8.579 -0.3542  0.1128  0.0756
29323W        W35923   5.833   7.343   1.957 -0.0824  0.0441 -0.0551
29324W        W35924  13.655   2.023  17.142  0.0217  0.0479  0.0729
29325W        W35925  27.571   5.862  16.703 -0.0242 -0.0369 -0.1218
29326W        W35926  26.892   3.091   5.654  0.0377  0.0322  0.1798
29327W        W35927  15.364   0.118  22.624  0.0553 -0.4234  0.0959
29328W        W35928  29.024   6.304   3.489 -0.0649 -0.0865 -0.1930
29329W        W35929  10.941   3.719  22.940 -0.1430 -0.0201  0.0631
29330W        W35930  10.334   4.007   7.562 -0.1116 -0.0831  0.0579
29331W        W35931   1.881   1.707  21.444 -0.5587 -0.0375 -0.0297
29332W        W35932  21.221   2.666  15.893  0.2623 -0.0109 -0.0206
29333W        W35933  24.123   2.988  22.061  0.3078 -0.1209  0.0360
29334W        W35934  20.865   2.517   3.762 -0.1708 -0.3398  0.1310
29335W        W35935  10.427   1.909  25.375  0.1722 -0.1083 -0.1002
29336W        W35936  24.532   2.042   6.619  0.2922 -0.2197 -0.1701
29337W        W35937   2.026   1.735  15.453  0.0234  0.2336 -0.0826
29338W        W35938  17.061   2.426   4.706  0.0785  0.2794  0.0979
29339W        W35939  22.276   3.857  10.494 -0.0838  0.0244  0.0315
29340W        W35940   1.988   6.825  25.112  0.0141  0.0748  0.0497
29341W        W35941   7.559   3.094  25.562  0.0424 -0.0357 -0.2824
29342W        W35942  23.005   0.336  23.791 -0.0594  0.0733 -0.0159
29343W        W35943   8.229   3.397   2.093  0.0554 -0.1661  0.3799
29344W        W35944   9.474   0.551   4.197  0.0310 -0.2461 -0.1997
29345W        W35945  15.565   0.199  24.830 -0.0460 -0.0090 -0.2028
29346W        W35946   2.096   4.183  11.718  0.1364  0.2517 -0.1251
29347W        W35947  15.033   7.441   6.421  0.1172 -0.0597 -0.4331
29348W        W35948  10.064   4.697   0.292  0.4326 -0.1388 -0.0593
29349W        W35949  29.114   6.748  19.093  0.1992  0.0468 -0.4355
29350W        W35950  18.673   1.492   9.068 -0.2295  0.1066 -0.1474
29351W        W35951  13.352   6.587  17.312 -0.0487  0.1092  0.0048
29352W        W35952   6.980   2.528   8.420 -0.0394 -0.0644 -0.1764
29353W        W35953  12.716   4.197  17.082  0.0410 -0.1076 -0.1470
29354W        W35954  27.394   5.800  17.894 -0.0587  0.0454  0.0722
29355W        W35955   3.163   0.590   5.471  0.3198  0.1238 -0.0576
29356W        W35956  13.263   7.199   2.898 -0.1391 -0.1205 -0.4405
29357W        W35957  14.608   0.257   5.052 -0.1333  0.0759 -0.0231
29358W        W35958  12.075   2.593   4.803  0.1933 -0.1119  0.0641
29359W        W35959  11.949   5.633   7.290 -0.1096  0.1128 -0.3325
29360W        W35960  24.230   7.191  16.888 -0.1620  0.2699  0.1493
29361W        W35961   4.184   0.312   8.620 -0.2281  0.2608  0.1733
29362W        W35962  20.100   5.505  22.992 -0.1922  0.2562  0.0941
29363W        W35963   7.171   4.134   5.848  0.1138 -0.1958  0.0529
29364W        W35964  27.590   5.980  16.016  0.1745  0.1014  0.1605
29365W        W35965  17.127   1.865   4.762  0.0499  0.2114  0.3128
29366W        W35966  25.008   7.101   9.281  0.1052  0.3000 -0.1516
29367W        W35967  11.885   7.790   8.118  0.3379  0.3082 -0.0159
29368W        W35968  20.654   3.390  15.521  0.2660 -0.3366  0.2120
29369W        W35969  24.839   4.758   4.520  0.4015  0.1004  0.1448
29370W        W35970   4.325   2.666   5.377 -0.1575  0.0107 -0.2046
29371W        W35971   4.089   4.216   0.726  0.1269 -0.2145 -0.1058
29372W        W35972  29.805   0.065   8.586  0.0110 -0.2610  0.1510
29373W        W35973   6.182   3.784   2.968 -0.0773  0.2638 -0.2368
29374W        W35974  11.171   5.195   2.018 -0.0389  0.3532  0.0005
29375W        W35975   2.057   2.191   6.088 -0.2130  0.2673 -0.0488
29376W        W35976   6.589   0.447  16.636  0.0506  0.2386 -0.0784
29377W        W35977   1.731   0.745  16.287  0.0319 -0.0200  0.0898
29378W        W35978  10.892   2.470  20.659 -0.3782 -0.0668 -0.0979
29379W        W35979   0.849   1.333  18.918 -0.0255 -0.4008  0.0283
29380W        W35980  25.673   5.896  25.905  0.3416 -0.0229 -0.0541
29381W        W35981  26.342   0.195  25.564 -0.0929 -0.0320  0.1547
29382W        W35982  29.995   1.761  15.886 -0.0242  0.3319 -0.3402
29383W        W35983  15.819   6.292  17.602  0.1164 -0.0361 -0.0967
29384W        W35984  14.907   0.729   5.808  0.1150  0.0155  0.2886
29385W        W35985   1.941   0.712  25.298 -0.3510 -0.0757 -0.0978
29386W        W35986   5.699   6.531  19.690  0.1917 -0.0752 -0.0669
29387W        W35987  15.244   3.635   0.449 -0.1050 -0.0918  0.1754
29388W        W35988  28.192   1.156  15.810 -0.1209  0.4181  0.0835
29389W        W35989  25.699   7.447  26.069 -0.0167 -0.0908  0.0108
29390W        W35990  16.758   0.630  19.656 -0.0104  0.1298  0.3478
29391W        W35991   6.920   4.310  22.655  0.3318  0.1139  0.1461
29392W        W35992   5.863   3.555  20.642  0.2719  0.0501  0.2712
29393W        W35993  17.443   3.182   9.831  0.0658 -0.0074 -0.1450
29394W        W35994  24.201   1.349  21.393 -0.0476  0.0449 -0.0396
29395W        W35995   2.826   2.012  10.292 -0.1647 -0.1453  0.3073
29396W        W35996   7.862   0.760   1.454  0.0835 -0.2437 -0.0097
29397W        W35997   8.838   3.129   5.027  0.0274  0.2569 -0.0836
29398W        W35998   8.371   6.958  24.671 -0.3336  0.0213 -0.2485
29399W        W35999   4.047   0.930  20.106 -0.0791  0.0752 -0.1177
29400W        W36000  15.280   2.705  21.060  0.2390  0.0358  0.1927
29401W        W36001  10.181   6.912   6.362 -0.0767 -0.1414  0.2814
29402W        W36002   5.754   3.026  24.932 -0.0480  0.4960 -0.1388
29403W        W36003  27.949   1.889  15.146  0.2662 -0.3524  0.0859
29404W        W36004  14.162   2.353   3.390 -0.0958  0.0964  0.2013
29405W        W36005  24.520   3.793   1.452 -0.3633  0.1449 -0.0474
29406W        W36006  23.837   5.393  17.448  0.1132 -0.0371 -0.1450
29407W        W36007  20.691   5.802  14.223  0.2931 -0.2170  0.0720
29408W        W36008  27.702   2.495  16.474  0.0423  0.0672  0.2290
29409W        W36009  12.081   0.045   9.488 -0.1693  0.1715  0.1617
29410W        W36010   0.448   1.159  20.930  0.0787 -0.0147 -0.2215
29411W        W36011  24.621   3.832  18.137  0.0237  0.0988 -0.0062
29412W        W36012  10.719   1.562  17.293 -0.2275 -0.3679  0.2084
29413W        W36013  26.954   0.875  16.528 -0.1791  0.2567  0.1707
29414W        W36014   0.588   0.152  19.169 -0.1616  0.1272  0.0249
29415W        W36015  13.534   5.283  19.295  0.1369  0.2264 -0.0800
29416W        W36016  17.189   5.549   4.852 -0.1497 -0.0886  0.1559
29417W        W36017  21.397   3.371   1.744 -0.1000 -0.1935  0.0536
29418W        W36018  27.557   3.375  17.637 -0.1010  0.2140  0.2957
29419W        W36019  12.141   4.859   4.407 -0.0634  0.0265  0.0751
29420W        W36020   9.801   3.140  24.080  0.1554  0.1309  0.0352
29421W        W36021  10.966   4.415  17.854 -0.2579 -0.1106  0.0361
29422W        W36022  28.103   6.833  22.050 -0.0877  0.1642 -0.2547
29423W        W36023  16.279   5.154  10.385  0.1571 -0.1583  0.1751
29424W        W36024   9.644   4.110   8.019  0.0020 -0.0262  0.1871
29425W        W36025   6.882   5.578   1.456 -0.1311 -0.0749 -0.2383
29426W        W36026  25.232   6.407  19.905 -0.0432  0.0664  0.0572
29427W        W36027  14.871   0.492  15.802 -0.1575  0.0959  0.0168
29428W        W36028   0.762   0.329   3.367 -0.0780 -0.1649  0.0165
29429W        W36029  12.358   3.289  21.794  0.0827  0.0441 -0.1149
29430W        W36030  12.463   0.209   7.176  0.0915  0.0391 -0.1696
29431W        W36031  20.357   7.602   6.074 -0.2632  0.2892 -0.2210
29432W        W36032  17.304   0.278   0.476 -0.0303  0.2958  0.1362
29433W        W36033  14.599   0.605   5.402 -0.2734 -0.0805 -0.2392
29434W        W36034   9.387   2.499   5.932  0.1045 -0.4089  0.0172
29435W        W36035  29.882   4.168   7.842  0.0770  0.1326 -0.1094
29436W        W36036  10.220   1.041  19.386 -0.0806 -0.1014 -0.0428
29437W        W36037  22.771   1.012   5.129 -0.1200  0.0861 -0.2246
29438W        W36038  26.162   1.465   1.218 -0.1061  0.0866 -0.0664
29439W        W36039  13.318   4.174  25.479  0.2575 -0.2331 -0.0138
29440W        W36040  11.737   6.987   5.617  0.0369  0.0814  0.1693
29441W        W36041  18.914   1.848   0.282 -0.1979  0.0552  0.0765
29442W        W36042   2.938   0.736   8.656  0.2253 -0.3567 -0.2868
29443W        W36043  25.551   4.656   3.464 -0.1038  0.0424  0.1372
29444W        W36044  18.142   2.366   0.434 -0.0694  0.1503  0.2152
29445W        W36045   5.655   5.340  17.121  0.2050 -0.0905 -0.1746
29446W        W36046   8.086   5.366  17.872 -0.1486  0.2837  0.3451
29447W        W36047  14.682   2.002  23.550  0.2421  0.1774  0.1115
29448W        W36048  14.664   1.451   0.296 -0.1026  0.4020  0.0285
29449W        W36049  20.811   2.005  25.651  0.1325 -0.5257  0.3278
29450W        W36050   7.279   3.725  16.755  0.1976 -0.3693 -0.0384
29451W        W36051   1.700   1.491  20.874 -0.1500 -0.0945  0.0583
29452W        W36052  19.040   2.973  15.402 -0.1004 -0.0635 -0.1058
29453W        W36053  23.878   0.320   6.066  0.1849 -0.0808 -0.0509
29454W        W36054   3.793   6.096  17.619 -0.1813  0.0404  0.0310
29455W        W36055  30.478   6.549   9.459  0.4915  0.0245  0.0819
29456W        W36056   0.791   2.894   9.855 -0.1120 -0.0673  0.0064
29457W        W36057   7.481   7.078  20.840 -0.0484 -0.2392  0.1756
29458W        W36058   6.827   2.156  16.913  0.0748 -0.0902 -0.2751
29459W        W36059  31.237   1.563  10.716 -0.1818 -0.1035 -0.0170
29460W        W36060  18.917   4.370   3.250 -0.1251 -0.2955  0.0200
29461W        W36061  21.031   2.056  20.511 -0.0657 -0.1260  0.0846
29462W        W36062   2.132   3.404  22.556 -0.0681 -0.0475  0.1006
29463W        W36063  27.120   0.228  18.584 -0.2290 -0.0584  0.1171
29464W        W36064   9.220   1.335  24.674  0.0959  0.0289  0.1538
29465W        W36065  17.083   3.776   7.636 -0.2216 -0.0701  0.4753
29466W        W36066   4.240   6.018   0.055 -0.0509  0.1696 -0.1648
29467W        W36067   9.858   3.081   3.690  0.2632  0.2516 -0.0602
29468W        W36068  16.652   1.250  19.542  0.0183  0.0709  0.0135
29469W        W36069   9.557   7.300  18.328  0.0623 -0.1332 -0.1241
29470W        W36070  18.189   5.266   1.503  0.2916  0.0456 -0.1312
29471W        W36071  18.861   6.096  24.999  0.0914 -0.1440  0.3005
29472W        W36072  22.631   3.106  18.205  0.0616  0.4649 -0.2829
29473W        W36073   0.563   0.723   5.928  0.1514  0.2858  0.1655
29474W        W36074   8.843   4.561   1.251 -0.1370 -0.2659 -0.1406
29475W        W36075   2.657   5.054   2.269 -0.1262 -0.3545 -0.2254
29476W        W36076  14.039   5.516  16.098 -0.1829  0.1654 -0.2008
29477W        W36077   2.415   0.626   6.847  0.0534 -0.0606 -0.1841
29478W        W36078   4.049   2.865   5.802  0.3703 -0.1460 -0.1833
29479W        W36079  24.853   0.276   5.703  0.1175 -0.1704  0.1461
29480W        W36080  12.908   2.276  19.088  0.0302  0.0804 -0.1245
29481W        W36081   7.116   6.960   7.672 -0.0946  0.1714 -0.2112
29482W        W36082  20.253   0.638  24.449 -0.0113  0.1661 -0.0549
29483W        W36083  23.686   0.345  25.282 -0.0482 -0.2377  0.0487
29484W        W36084   9.428   3.717   5.819 -0.2422  0.1583  0.2119
29485W        W36085  21.806   0.416  15.070 -0.0996 -0.1989  0.0255
29486W        W36086  15.194   4.422   6.274  0.3171 -0.0674  0.0837
29487W        W36087  26.048   3.907   2.442  0.0446 -0.1438 -0.0375
29488W        W36088   5.950   3.707   6.198 -0.3115 -0.2709  0.1615
29489W        W36089  28.299   4.260  10.904  0.0825  0.3179 -0.1295
29490W        W36090  11.532   3.476   9.819  0.0226 -0.2499 -0.1564
29491W        W36091  27.488   3.746   5.329 -0.0994 -0.0595  0.0030
29492W        W36092   9.259   1.330   6.647  0.1916 -0.0955  0.1240
29493W        W36093  28.673   0.285  16.526  0.1149  0.2980 -0.1326
29494W        W36094  10.125   5.082   1.823  0.1798  0.0103  0.2562
29495W        W36095  25.556   6.668  26.153 -0.4307 -0.0587 -0.1555
29496W        W36096  21.076   5.617  16.228  0.2130  0.2378  0.1414
29497W        W36097  29.079   1.091   2.133 -0.1553 -0.1904  0.1385
29498W        W36098  30.117   2.192  16.696  0.1176  0.0647 -0.1914
29499W        W36099  25.526   2.337  11.262 -0.0783 -0.1086 -0.1892
29500W        W36100  15.368   3.266   1.923  0.3025  0.3047 -0.3715
29501W        W36101  13.045   1.198  25.836 -0.0111  0.0341  0.0160
29502W        W36102   2.227   5.433   5.191 -0.3237  0.1261  0.2345
29503W        W36103   2.808   6.928  11.624  0.0540 -0.1781 -0.0608
29504W        W36104  17.652   3.688   0.864 -0.1376  0.2078 -0.1041
29505W        W36105  11.360   7.573  21.243 -0.1710 -0.0815  0.0360
29506W        W36106   4.084   4.094  25.842  0.0619  0.1201  0.0201
29507W        W36107   3.864   1.901  10.612 -0.0159 -0.0098  0.1769
29508W        W36108  10.040   3.356   7.856  0.2424 -0.0457  0.2176
29509W        W36109  25.862   2.514   3.504 -0.1301  0.0087  0.0386
29510W        W36110   6.169   6.968  16.360  0.0749 -0.1529  0.1232
29511W        W36111  29.713   1.088  20.344 -0.1012 -0.3085 -0.1987
29512W        W36112   0.476   7.640  23.830  0.3812 -0.0297  0.1030
29513W        W36113   9.682   1.695  17.742 -0.1650 -0.2416 -0.0797
29514W        W36114  13.408   3.527   2.542  0.0336  0.0431 -0.2782
29515W        W36115  14.517   4.667  19.661  0.0091  0.0126 -0.2358
29516W        W36116  27.345   2.264  23.675 -0.0999  0.0024 -0.0299
29517W        W36117  21.876   6.740   3.915  0.1041 -0.0320  0.4354
29518W        W36118   8.424   1.070   8.978  0.3228  0.1599  0.2198
29519W        W36119  29.424   5.932  16.500 -0.3311  0.3213 -0.2779
29520W        W36120   1.981   0.732   0.213  0.0338 -0.1260  0.0669
29521W        W36121  31.026   2.861  21.919 -0.1441  0.0637  0.1125
29522W        W36122   2.554   6.400  24.770  0.0628  0.0154 -0.2210
29523W        W36123  22.460   0.534  21.003  0.0574  0.0979  0.3048
29524W        W36124  31.063   7.819   8.836 -0.0887  0.3363 -0.0803
29525W        W36125  14.373   5.825   0.702 -0.3116 -0.0585  0.1440
29526W        W36126  19.073   4.587   5.788  0.0955  0.2253  0.2806
29527W        W36127   3.133   7.759  24.144  0.0443  0.1805 -0.1199
29528W        W36128  18.216   1.948  19.293 -0.0209  0.0129 -0.0740
29529W        W36129  15.726   4.639  22.015  0.1408 -0.2313 -0.3172
29530W        W36130   2.791   5.887   0.776 -0.1405  0.1733 -0.0413
29531W        W36131  27.152   5.381   7.402  0.0744 -0.0344  0.2441
29532W        W36132   0.396   5.450   7.040  0.0548  0.2356 -0.0013
29533W        W36133  19.731   4.847   8.362  0.0440  0.0664  0.0518
29534W        W36134  29.595   6.751   8.942  0.1644  0.1168 -0.0023
29535W        W36135  21.728   1.586  19.193  0.2207 -0.0998  0.0216
29536W        W36136  21.876   6.002   1.409  0.2154 -0.0281  0.3221
29537W        W36137  12.825   0.951  20.333 -0.0445 -0.0501  0.0821
29538W        W36138   1.106   3.581  10.103 -0.2291 -0.1032  0.0518
29539W        W36139  25.188   7.204   6.297 -0.0500 -0.1030  0.0179
29540W        W36140  12.849   3.669   3.035  0.0297 -0.0324  0.1502
29541W        W36141  23.814   0.797   5.946  0.1280  0.2794  0.0802
29542W        W36142  16.339   0.572   6.207  0.1019 -0.0605 -0.1555
29543W        W36143  30.638   5.338   0.194  0.0586 -0.0503 -0.0012
29544W        W36144   0.329   6.999   1.235 -0.0314 -0.0771  0.1959
29545W        W36145  30.431   3.993   6.355 -0.0545 -0.0700  0.1359
29546W        W36146  29.902   5.732  21.086  0.1452  0.0104  0.0573
29547W        W36147  15.339   0.531   6.635 -0.1992 -0.1798  0.3665
29548W        W36148  25.430   7.443   8.297  0.4347 -0.0269 -0.2387
29549W        W36149   0.160   2.210  16.188  0.0616 -0.1836  0.0568
29550W        W36150  13.640   6.283  21.613 -0.0976  0.0887 -0.2572
29551W        W36151  27.150   1.569   2.154  0.1665  0.0197  0.0460
29552W        W36152  19.382   6.077   8.560 -0.0496 -0.0616  0.0230
29553W        W36153  11.834   7.058  21.168  0.0016 -0.1706 -0.3198
29554W        W36154   7.282   5.955  22.041  0.1157 -0.0380  0.1508
29555W        W36155   0.602   4.295  25.731 -0.0958  0.2818 -0.2151
29556W        W36156  17.792   1.335  16.528  0.3784  0.0912  0.1362
29557W        W36157   5.033   6.575  23.250 -0.0423  0.0963  0.1770
29558W        W36158  23.321   6.872   2.816  0.3032  0.0086 -0.3626
29559W        W36159  15.623   4.544   2.852 -0.3433 -0.1986 -0.1854
29560W        W36160   1.222   3.571   4.386 -0.0686  0.3257 -0.1066
29561W        W36161  18.160   5.046   4.321 -0.3100  0.0944 -0.0518
29562W        W36162   2.947   4.349  19.638  0.0817 -0.0834  0.0361
29563W        W36163  10.698   5.395   6.362  0.1152 -0.0092  0.1339
29564W        W36164   2.375   4.502  21.133  0.0321  0.1055  0.0654
29565W        W36165  26.152   1.654   5.186 -0.1382  0.0555  0.0998
29566W        W36166   2.146   5.785  23.734  0.0392 -0.0090  0.1391
29567W        W36167   4.609   0.380  11.318 -0.2388  0.2504 -0.1903
29568W        W36168   1.167   6.164   0.283 -0.1663  0.0825  0.3060
29569W        W36169  27.519   6.817   7.060 -0.2481 -0.3363  0.0877
29570W        W36170  17.087   6.015  24.861  0.0962 -0.1306  0.2478
29571W        W36171   5.512   7.269  10.742 -0.0795 -0.1892 -0.1003
29572W        W36172  25.289   0.920   5.607  0.0245  0.2429  0.0507
29573W        W36173  10.852   7.015  25.567  0.0946 -0.2054  0.2829
29574W        W36174  15.378   2.621  16.269 -0.0280 -0.0931  0.0644
29575W        W36175  25.982   0.318   0.613 -0.3992  0.0378  0.0641
29576W        W36176  15.944   0.307   7.516  0.0344  0.0966 -0.1265
29577W        W36177   5.552   4.912   9.929  0.1662 -0.0582  0.0389
29578W        W36178  26.519   5.635   4.363 -0.1253 -0.0385 -0.1213
29579W        W36179  29.543   4.670  19.869  0.0065  0.1550 -0.1836
29580W        W36180  24.227   5.988   6.187  0.3135 -0.0544 -0.2255
29581W        W36181  10.066   2.853   8.124  0.0792 -0.4198  0.1180
29582W        W36182  10.117   5.595  17.463  0.2200  0.1152  0.0302
29583W        W36183   7.905   4.114  22.888 -0.1752 -0.1453  0.0963
29584W        W36184  29.741   4.817  21.309 -0.0224 -0.0196  0.1399
29585W        W36185  30.567   7.365   3.808 -0.0220 -0.1147 -0.1180
29586W        W36186  21.018   5.868   0.517 -0.0239  0.3184 -0.0454
29587W        W36187  14.822   3.022  25.368 -0.1096 -0.0008  0.1798
29588W        W36188  27.087   4.547   4.313  0.0091 -0.2341  0.0020
29589W        W36189  17.471   5.171  20.871  0.1200  0.1737 -0.1510
29590W        W36190  14.751   1.559   5.287 -0.2277 -0.0788  0.0975
29591W        W36191   6.174   1.991  22.791 -0.1455  0.0072 -0.0684
29592W        W36192  19.638   1.679   7.582 -0.2540 -0.3614  0.4679
29593W        W36193   8.502   1.102  22.579  0.1532  0.1081 -0.1048
29594W        W36194  13.301   0.580  18.757 -0.1787  0.3845 -0.0849
29595W        W36195   3.034   1.992  23.351  0.0325 -0.3545 -0.0313
29596W        W36196   9.182   6.971   3.750 -0.1140  0.0140 -0.1768
29597W        W36197  28.802   0.574   0.627 -0.0476  0.1881  0.2638
29598W        W36198   0.243   1.777  25.238 -0.2557 -0.1804  0.0615
29599W        W36199  23.374   2.075   6.065  0.1554  0.0646  0.1445
29600W        W36200  11.007   3.756  15.561 -0.2322  0.1416  0.0971
29601W        W36201  22.321   5.541   4.421  0.4984 -0.1024 -0.0355
29602W        W36202  12.952   1.293  18.696 -0.1795  0.1139  0.3630
29603W        W36203  20.492   4.706   9.043  0.1143  0.1108  0.2367
29604W        W36204  29.934   4.093  21.888 -0.1076 -0.1742  0.0749
29605W        W36205  25.863   3.471   4.083 -0.1253 -0.0404 -0.2191
29606W        W36206  17.037   6.135  23.580 -0.1167  0.0523  0.0727
29607W        W36207  13.397   5.739   4.792 -0.0938 -0.0850  0.1196
29608W        W36208  15.330   6.280   0.967 -0.1607 -0.0408 -0.0322
29609W        W36209  26.855   2.538  22.874  0.2842  0.0770  0.0646
29610W        W36210  28.981   1.131   1.643  0.0084  0.1030  0.0602
29611W        W36211  24.680   6.513  19.722  0.0677  0.0012  0.0167
29612W        W36212   0.453   4.518   9.762 -0.1139  0.0444 -0.2326
29613W        W36213  21.524   3.785   4.967  0.1812 -0.0862 -0.1943
29614W        W36214  12.471   3.106   6.982 -0.1262 -0.3829  0.2402
29615W        W36215   0.496   4.785   6.988 -0.1102 -0.1762 -0.0971
29616W        W36216   8.917   0.302  26.004  0.3720  0.0224  0.4176
29617W        W36217  17.709   4.907  17.981 -0.1442 -0.2334  0.0341
29618W        W36218  31.156   0.388  23.624 -0.0962  0.2161 -0.0004
29619W        W36219  12.269   2.539  17.572  0.0125 -0.2544  0.0844
29620W        W36220  14.830   5.028   6.991  0.1355  0.0365  0.1227
29621W        W36221  10.508   4.235   2.388 -0.0806  0.3238 -0.1907
29622W        W36222   7.784   5.189  25.690  0.0625  0.0914  0.2360
29623W        W36223  10.839   7.418   5.360  0.1430 -0.0867  0.1118
29624W        W36224  10.883   2.983  21.284  0.1636 -0.0127  0.0047
29625W        W36225  22.148   6.065  25.707 -0.0256  0.1143 -0.3112
29626W        W36226  22.961   1.320  22.717  0.0652 -0.0855 -0.3941
29627W        W36227  16.690   5.692  18.255  0.0516  0.3011  0.1265
29628W        W36228  12.570   2.041   7.753 -0.1428  0.1102 -0.0572
29629W        W36229  16.938   5.494  17.872  0.2024  0.3257 -0.0149
29630W        W36230  29.821   6.084  17.690  0.0065 -0.0349 -0.3841
29631W        W36231   0.907   3.778  15.824 -0.2091 -0.0800  0.2026
29632W        W36232   3.009   1.751   2.287 -0.0791  0.3800 -0.2913
29633W        W36233  28.537   2.447  15.572  0.2412  0.0831  0.0872
29634W        W36234  22.531   5.485   5.774 -0.1757  0.0045 -0.0043
29635W        W36235  17.879   2.906  22.501  0.2926 -0.0847  0.1436
29636W        W36236   1.616   5.730  18.562  0.0656  0.3443  0.2093
29637W        W36237  21.974   2.102   0.321  0.2315 -0.1137  0.2627
29638W        W36238  15.737   5.434  16.786  0.1950  0.3200  0.1996
29639W        W36239  10.102   0.788   2.825  0.0888 -0.1887  0.1270
29640W        W36240   6.824   4.764   3.501  0.0880  0.0491  0.1598
29641W        W36241  31.251   6.336   1.942 -0.1347 -0.0085 -0.0491
29642W        W36242  20.687   7.493  15.330  0.2211  0.1153 -0.3136
29643W        W36243  27.129   7.222   1.125  0.0775 -0.1319  0.0619
29644W        W36244  23.038   2.030   3.140 -0.1978  0.0232  0.1569
29645W        W36245  17.839   7.776  19.100 -0.0671  0.3001  0.2395
29646W        W36246  21.361   0.699   9.626  0.2052  0.2318 -0.1367
29647W        W36247  21.888   4.568  16.055 -0.2212 -0.2599  0.1868
29648W        W36248  22.783   5.796  15.103 -0.5980 -0.0574 -0.5371
29649W        W36249  15.700   2.918  25.512 -0.1148 -0.0541  0.1900
29650W        W36250  19.035   7.706   4.316  0.2796  0.0724  0.4207
29651W        W36251  14.947   5.417   9.080  0.0176 -0.1298 -0.2831
29652W        W36252   7.632   1.939   4.900  0.0282  0.0569 -0.0427
29653W        W36253   9.375   3.119   5.231 -0.2339  0.2434  0.1652
29654W        W36254  31.090   2.704  20.629  0.0994 -0.1281 -0.2362
29655W        W36255  24.247   7.704   9.349  0.1629 -0.1139 -0.1666
29656W        W36256  15.532   6.293  18.098  0.3519 -0.0292 -0.2998
29657W        W36257  27.552   5.449  16.246 -0.3345  0.2040  0.1295
29658W        W36258  15.283   7.058   2.167  0.1354 -0.0700 -0.1408
29659W        W36259  14.460   7.483  18.267 -0.0740  0.1962  0.0495
29660W        W36260  26.596   1.383   2.868  0.3388 -0.1174  0.0128
29661W        W36261  14.221   7.248   2.598 -0.0759  0.1180  0.0607
29662W        W36262  10.145   3.835  18.715  0.0851  0.3091 -0.0753
29663W        W36263   6.747   3.298   3.732 -0.0848  0.0883  0.1512
29664W        W36264   4.125   5.918  11.136  0.0994 -0.0663 -0.1150
29665W        W36265   7.862   3.590  21.616  0.0224 -0.0536  0.3093
29666W        W36266   9.847   7.303  22.234  0.1503 -0.0306  0.0229
29667W        W36267  21.747   3.220  24.588 -0.0402 -0.1862 -0.2085
29668W        W36268  25.435   4.176   3.759 -0.1237  0.1967 -0.1350
29669W        W36269  12.331   3.822  20.791 -0.0945  0.2116 -0.0959
29670W        W36270  14.089   2.179  24.823  0.3628  0.0914  0.1798
29671W        W36271  15.737   0.941   3.848  0.0117 -0.1456  0.0201
29672W        W36272  26.185   2.025  15.866  0.3128 -0.3612  0.1053
29673W        W36273  19.839   7.230  18.364 -0.0705 -0.0094  0.1703
29674W        W36274   7.967   5.939   1.854 -0.0245 -0.0908  0.1673
29675W        W36275   0.321   2.297   8.508 -0.0929  0.1429 -0.0138
29676W        W36276   1.913   5.792   4.742 -0.0536  0.0237 -0.4697
29677W        W36277   0.201   6.966  20.202 -0.1428  0.2031  0.2839
29678W        W36278  15.877   1.764   1.550 -0.4170  0.2318 -0.0665
29679W        W36279  22.884   6.933  10.297  0.0707 -0.3539  0.1854
29680W        W36280   8.079   6.994   4.152 -0.2391 -0.2760 -0.2545
29681W        W36281   9.728   6.947  15.466 -0.1114  0.4869 -0.1177
29682W        W36282   7.674   4.558   6.207 -0.0400 -0.0777 -0.0220
29683W        W36283   4.133   6.647   8.923  0.1846 -0.3088 -0.0926
29684W        W36284   7.745   4.608   2.755  0.0005 -0.1773  0.1689
29685W        W36285  30.506   6.833   7.436 -0.0569  0.1357  0.2261
29686W        W36286   6.826   0.680   2.307 -0.0837 -0.2821 -0.0815
29687W        W36287  17.088   2.108   9.771  0.0913 -0.0758 -0.0521
29688W        W36288   9.747   6.686  21.054 -0.1066 -0.0399  0.0412
29689W        W36289  12.283   4.276  18.524 -0.1391 -0.0411 -0.0782
29690W        W36290  19.047   1.841   8.291  0.1094 -0.0719 -0.1763
29691W        W36291  16.250   0.085   3.594 -0.0900 -0.0109  0.0065
29692W        W36292   0.792   4.868   1.542  0.0939  0.0668 -0.1916
29693W        W36293  21.571   2.791  20.438  0.1446  0.3375  0.1194
29694W        W36294  18.602   7.433  17.641  0.1777 -0.1373 -0.0889
29695W        W36295  13.690   6.402   6.186 -0.1044 -0.1296 -0.0007
29696W        W36296   3.753   0.616   3.040 -0.2238 -0.0990 -0.0129
29697W        W36297   1.596   3.094  21.102  0.0893  0.0133  0.2108
29698W        W36298  23.812   4.652   4.382 -0.1694 -0.1302 -0.1295
29699W        W36299  26.192   7.618   4.042 -0.2203  0.0313  0.0084
29700W        W36300   8.505   4.510  25.290 -0.1698 -0.1821 -0.0681
29701W        W36301   3.657   3.658  11.299 -0.0289  0.0341 -0.0427
29702W        W36302   9.605   0.588   7.419  0.3934 -0.1891 -0.0142
29703W        W36303   2.066   0.291   2.212 -0.3166  0.0975  0.0684
29704W        W36304   9.322   2.589  17.402  0.0300 -0.1514 -0.3714
29705W        W36305  16.440   1.298   0.423 -0.0049 -0.1117  0.0363
29706W        W36306  12.729   1.731   1.674  0.3817  0.0326 -0.0700
29707W        W36307   3.941   7.290   2.861 -0.0971 -0.1764 -0.0495
29708W        W36308  28.367   2.247  24.502  0.2005 -0.2411 -0.0364
29709W        W36309  12.224   0.187   4.477 -0.0295 -0.1846 -0.0701
29710W        W36310  30.567   2.975   4.419  0.1006 -0.1841  0.3007
29711W        W36311  24.781   7.533   2.953  0.0313 -0.1888  0.0762
29712W        W36312  14.622   6.524  10.161  0.0642 -0.1503  0.0342
29713W        W36313  25.230   7.596  25.854  0.0873  0.1966  0.1863
29714W        W36314   5.619   4.379  23.056  0.0519  0.0060 -0.0628
29715W        W36315  20.084   1.784   5.463  0.2479 -0.0226  0.1676
29716W        W36316   6.314   0.970  17.889 -0.3084 -0.1296 -0.0557
29717W        W36317  31.151   1.426   7.463 -0.5023  0.0450  0.2070
29718W        W36318  18.603   5.005  15.801 -0.0380  0.0649 -0.2941
29719W        W36319  24.602   6.251   6.500 -0.1285 -0.0530 -0.0775
29720W        W36320  23.286   3.659  23.160  0.0120 -0.1590 -0.1857
29721W        W36321  24.392   3.114   6.198 -0.0034 -0.1745 -0.0514
29722W        W36322  10.336   0.289  22.212 -0.1987  0.2150 -0.0821
29723W        W36323  11.491   5.929  25.149  0.0539  0.0971 -0.1789
29724W        W36324  12.998   5.466  17.674 -0.0797 -0.0636  0.0797
29725W        W36325   3.062   2.758   8.091 -0.3020  0.4077  0.1615
29726W        W36326  25.410   5.687   1.593 -0.2439 -0.1510  0.0702
29727W        W36327  11.528   3.047  16.431  0.0444  0.2187 -0.0172
29728W        W36328  26.732   2.459  10.232  0.0359  0.1695 -0.0030
29729W        W36329  28.045   6.791   5.487  0.2094 -0.3143 -0.0420
29730W        W36330  27.285   3.335   5.509  0.4375  0.0259  0.0976
29731W        W36331  22.042   0.896  23.554  0.1090  0.2284 -0.2901
29732W        W36332  11.001   1.849   0.863 -0.2393  0.1697  0.0631
29733W        W36333   3.987   2.627  23.563 -0.3369 -0.3505 -0.0058
29734W        W36334  26.371   2.674   4.842  0.1349 -0.0106  0.0324
29735W        W36335   5.192   6.976   0.503 -0.0221  0.1841 -0.0261
29736W        W36336  16.221   4.764   3.817  0.0866  0.2131 -0.0126
29737W        W36337   0.122   0.580  24.115  0.0072  0.0518  0.0262
29738W        W36338   1.516   4.268   9.583 -0.0072 -0.1204 -0.2639
29739W        W36339   6.245   7.472   1.008  0.2471 -0.1548 -0.0078
29740W        W36340  16.870   2.923  19.992  0.1598  0.0517 -0.1019
29741W        W36341   3.072   4.867   5.640 -0.0717  0.0161  0.0399
29742W        W36342  26.470   5.502  17.076 -0.3247  0.2156  0.1663
29743W        W36343   1.831   3.745   5.471  0.0634 -0.2397 -0.1104
29744W        W36344  15.763   3.641   3.138 -0.1398 -0.0172 -0.2016
29745W        W36345  26.788   6.581  19.786  0.0422  0.1006 -0.2036
29746W        W36346   3.393   6.089  18.961  0.1011 -0.0750  0.2340
29747W        W36347  19.300   3.699   3.886  0.1661 -0.1961 -0.1501
29748W        W36348  12.653   3.447  24.081  0.2179  0.0926 -0.3051
29749W        W36349  24.569   0.655  24.416  0.1346 -0.2275 -0.3121
29750W        W36350  13.367   4.165  22.164  0.2466  0.1343  0.0241
29751W        W36351  14.345   4.279   2.526 -0.2594 -0.3271  0.0207
29752W        W36352   9.806   3.110  16.677  0.1198 -0.0224 -0.0595
29753W        W36353   0.473   5.448   7.807  0.2251 -0.2790  0.1002
29754W        W36354  16.535   4.843   8.638 -0.0695 -0.1032  0.2099
29755W        W36355  17.813   0.439  25.907 -0.2116 -0.1992  0.0386
29756W        W36356  28.807   5.667  17.635  0.1697 -0.4145  0.0051
29757W        W36357   0.819   4.960  19.514 -0.0496  0.0060  0.0653
29758W        W36358  19.612   7.693   0.376  0.1855 -0.0893  0.0103
29759W        W36359  12.271   2.940  25.929 -0.2202  0.1038 -0.0901
29760W        W36360   7.344   7.096  17.455  0.1271 -0.2091 -0.0214
29761W        W36361   5.458   6.646  18.387  0.1521 -0.2348  0.0700
29762W        W36362  18.029   6.653  20.029  0.1218 -0.0740  0.2034
29763W        W36363  25.731   7.597  10.662  0.0698 -0.0241 -0.2172
29764W        W36364   6.913   1.240  15.476 -0.0652  0.2999 -0.0316
29765W        W36365   2.800   2.333  19.751 -0.0211  0.2161  0.5220
29766W        W36366   9.527   5.907  21.393  0.2717  0.0725 -0.3850
29767W        W36367  11.513   0.862   1.260  0.1817  0.2176  0.0093
29768W        W36368  20.876   5.851  21.393 -0.1429  0.0973  0.0254
29769W        W36369  21.168   7.314  17.293 -0.0368  0.1340  0.0007
29770W        W36370  29.718   6.743   1.582  0.0097  0.1208  0.0540
29771W        W36371   6.421   6.410  24.078  0.0060  0.1939  0.1615
29772W        W36372  17.630   5.119   2.483 -0.2210 -0.1749  0.0336
29773W        W36373  11.275   3.231  18.610  0.0033  0.1586  0.2145
29774W        W36374  26.885   7.736  10.868  0.1929  0.2750 -0.2162
29775W        W36375   7.827   6.986  23.773  0.1538  0.3749 -0.0622
29776W        W36376  26.380   6.940   4.615 -0.0740 -0.0711 -0.0739
29777W        W36377  11.260   0.198  25.536  0.2060  0.1878 -0.1082
29778W        W36378  22.031   6.977  15.867 -0.0569  0.2617  0.0082
29779W        W36379  16.909   5.236  21.303  0.0254  0.0014  0.1209
29780W        W36380  18.554   5.578  19.816  0.2644 -0.1207  0.0826
29781W        W36381  21.626   1.131   9.457 -0.0635 -0.0199  0.1356
29782W        W36382  17.183   7.544  19.618 -0.0652 -0.1462  0.1209
29783W        W36383   7.574   7.466  24.500 -0.2536  0.1932 -0.0551
29784W        W36384   6.047   7.171  23.138 -0.0221  0.1036  0.2515
29785W        W36385  14.176   3.788  20.397 -0.0773 -0.0039 -0.0874
29786W        W36386  10.172   2.427   7.862  0.1378 -0.2405  0.0837
29787W        W36387   4.927   6.194  21.258  0.0319  0.0078 -0.2193
29788W        W36388  26.212   1.817   9.871  0.0762 -0.1492 -0.0453
29789W        W36389   3.043   6.554   7.851  0.0570 -0.0157 -0.1391
29790W        W36390  16.474   2.063  24.463  0.1766  0.0214 -0.0414
29791W        W36391  28.762   5.431   2.527  0.0803 -0.0060  0.1287
29792W        W36392  11.245   1.587  24.549 -0.0238 -0.0401  0.3312
29793W        W36393   2.771   3.646  21.402 -0.0956 -0.3206 -0.1873
29794W        W36394   2.423   4.192  20.203 -0.0649 -0.2154 -0.3502
29795W        W36395   7.261   6.270   0.250 -0.1564 -0.0284  0.2519
29796W        W36396   1.590   4.596   2.313 -0.2247  0.2196 -0.3956
29797W        W36397   3.662   5.106   1.592  0.0227  0.0621 -0.1518
29798W        W36398  11.761   5.696   0.006  0.2619 -0.1160 -0.0196
29799W        W36399  28.166   1.226  19.857  0.0057  0.0074 -0.2158
29800W        W36400  10.027   1.875   7.629 -0.1537 -0.1373 -0.0477
29801W        W36401   2.678   4.433  22.042  0.1628  0.0028  0.0891
29802W        W36402   9.487   5.894  15.601 -0.0717  0.0082 -0.1335
29803W        W36403   3.325   6.287   0.224  0.2750 -0.0133  0.2220
29804W        W36404  29.736   4.284   3.146 -0.0085 -0.1798  0.2698
29805W        W36405  27.940   4.330   3.439 -0.0864  0.2661 -0.0038
29806W        W36406  17.734   0.603   1.490  0.2015  0.0880  0.0841
29807W        W36407   1.997   2.389  23.685 -0.1530 -0.0935  0.1728
29808W        W36408  17.355   7.787  18.804  0.1109  0.2033  0.1024
29809W        W36409   5.313   1.519  25.328 -0.2024 -0.2320 -0.0350
29810W        W36410  21.676   1.231  25.577 -0.2529  0.1444 -0.2032
29811W        W36411   5.596   7.690   3.191  0.1399 -0.0250 -0.1062
29812W        W36412  14.753   6.797   7.613 -0.1544 -0.2275  0.2360
29813W        W36413  15.425   4.759   0.649 -0.3764 -0.3285  0.0760
29814W        W36414   8.209   6.419   2.343  0.0383 -0.3397 -0.0463
29815W        W36415  29.681   6.114  20.138  0.3011  0.0018  0.5051
29816W        W36416  25.845   6.589  16.416  0.0745  0.2034  0.0510
29817W        W36417  15.461   0.886   2.442 -0.5319 -0.0848  0.2528
29818W        W36418  27.952   6.991   4.524 -0.0919  0.1050 -0.1416
29819W        W36419  10.781   2.403   4.963 -0.3031 -0.1276 -0.0844
29820W        W36420  11.946   3.072   7.390 -0.3137 -0.0240 -0.1621
29821W        W36421  17.243   3.527  18.118 -0.0586  0.0846 -0.0980
29822W        W36422   1.904   2.717  25.063 -0.3316 -0.0298 -0.2933
29823W        W36423  10.463   0.458  19.368  0.3701  0.0390 -0.0340
29824W        W36424  29.010   5.663   6.712  0.1976  0.2227 -0.1024
29825W        W36425  24.317   2.980  18.551 -0.2027  0.2154  0.0561
29826W        W36426  22.379   5.068   9.870 -0.1998 -0.2085  0.1584
29827W        W36427  24.998   1.696  22.288 -0.2617 -0.0515 -0.0920
29828W        W36428   2.834   3.981  26.126 -0.0511 -0.2913  0.1262
29829W        W36429  12.238   7.535  25.454 -0.2567 -0.0969 -0.1467
29830W        W36430   1.641   2.451   9.292  0.1564  0.1862  0.0424
29831W        W36431  27.111   7.092  22.117 -0.1330  0.1744 -0.3085
29832W        W36432  28.995   0.340  20.377  0.0889  0.1537 -0.2083
29833W        W36433  29.496   3.672   0.685 -0.0892 -0.2140 -0.0361
29834W        W36434  11.763   3.092   8.351  0.1224 -0.1976  0.0162
29835W        W36435  28.262   0.144   6.714  0.1270  0.0753 -0.0045
29836W        W36436   3.530   2.089  24.858 -0.1100  0.1086  0.1106
29837W        W36437   2.050   7.753  20.290 -0.0840  0.0252 -0.2771
29838W        W36438  19.220   2.529  15.146 -0.1723  0.2296 -0.1739
29839W        W36439  22.791   5.684  10.637 -0.0693 -0.0397  0.2132
29840W        W36440  21.424   4.212  17.961 -0.0246  0.1735 -0.0794
29841W        W36441   8.521   5.525  20.184 -0.1455 -0.2652 -0.2198
29842W        W36442  23.858   5.961   5.291  0.0961 -0.2515 -0.0660
29843W        W36443  25.129   5.637  23.911 -0.0659  0.0312 -0.1940
29844W        W36444  20.862   3.939   5.483 -0.0890  0.3169  0.0230
29845W        W36445   0.404   6.712   8.591  0.0996  0.2233 -0.2773
29846W        W36446  22.440   0.779  20.110 -0.0286  0.2344 -0.0660
29847W        W36447  18.165   3.749   3.969 -0.0614 -0.1080  0.0031
29848W        W36448  13.920   3.828   1.682 -0.2206 -0.1005 -0.2608
29849W        W36449  31.195   2.649  22.424  0.0546 -0.3157 -0.2980
29850W        W36450  19.823   4.686  19.977  0.0292 -0.2849  0.2187
29851W        W36451   7.545   4.191  17.911 -0.3315 -0.1505  0.0810
29852W        W36452  21.868   5.587   7.646  0.2432 -0.1157 -0.1679
29853W        W36453  20.165   0.394   0.440 -0.2200  0.1814  0.0319
29854W        W36454  11.079   6.637   3.865 -0.1231 -0.0941  0.1127
29855W        W36455   7.624   6.241   7.141 -0.1242  0.1403 -0.1914
29856W        W36456  29.427   5.941  23.732  0.4335 -0.0270 -0.0407
29857W        W36457  26.724   3.953   1.433  0.0156 -0.0441  0.1421
29858W        W36458  18.982   7.030  19.226 -0.0102  0.0131 -0.0179
29859W        W36459  30.851   4.848   9.807  0.0803 -0.1331  0.0213
29860W        W36460  28.973   3.803  18.919 -0.0909  0.1307 -0.3741
29861W        W36461  13.338   1.393   7.728  0.0568 -0.0067 -0.1928
29862W        W36462   8.782   4.118  25.404  0.0272 -0.0148 -0.2340
29863W        W36463   5.889   6.500  24.117 -0.0831  0.0567 -0.2508
29864W        W36464   8.052   3.103  21.682  0.1269  0.1617 -0.0048
29865W        W36465  24.194   0.078   7.036  0.0276 -0.0377  0.0547
29866W        W36466   8.721   4.797   0.291  0.0824  0.1494  0.2716
29867W        W36467  15.323   4.285  21.086 -0.3871 -0.2065 -0.1459
29868W        W36468  22.733   2.646  14.655 -0.0238 -0.0760 -0.3150
29869W        W36469   0.531   5.159  24.794  0.3711  0.0508  0.0878
29870W        W36470   0.193   5.655   5.242 -0.1647 -0.1858  0.0488
29871W        W36471  11.106   1.058  19.131 -0.1629 -0.0688  0.2320
29872W        W36472  19.419   7.569   8.213 -0.1899 -0.1555  0.1065
29873W        W36473  10.119   0.625  21.915 -0.1118  0.2501  0.2778
29874W        W36474  19.163   1.599  22.477  0.1152  0.2525  0.0738
29875W        W36475  21.844   4.094  18.971 -0.4280 -0.2165 -0.1874
29876W        W36476  15.757   7.309   4.421 -0.1674 -0.2375  0.0546
29877W        W36477  21.806   5.185  18.225 -0.4607  0.0760 -0.0115
29878W        W36478  16.150   7.551   4.795 -0.1302 -0.3210  0.1297
29879W        W36479  20.803   0.365  20.890  0.2224  0.0953  0.1479
29880W        W36480   3.282   0.559   6.440  0.2588 -0.0459 -0.1847
29881W        W36481   4.541   3.268  19.888  0.0607  0.1229 -0.0753
29882W        W36482   0.831   6.325  10.287 -0.3492  0.1830 -0.0108
29883W        W36483   4.178   4.067  17.164 -0.1271 -0.0197  0.1372
29884W        W36484   8.084   1.256  23.715  0.3547  0.0038 -0.0938
29885W        W36485  25.219   1.104  14.876  0.2565 -0.0320  0.0066
29886W        W36486  11.623   5.884  23.563 -0.1050 -0.2535  0.1809
29887W        W36487   0.530   2.945  11.577 -0.0217 -0.2519 -0.1097
29888W        W36488  19.376   1.127   5.828 -0.0611 -0.1283 -0.0439
29889W        W36489  28.796   2.168  10.009 -0.0164 -0.1546 -0.3421
29890W        W36490  12.099   1.433  25.267  0.3803  0.1633 -0.1498
29891W        W36491   6.026   1.583   4.025 -0.0471 -0.1500 -0.1538
29892W        W36492  15.758   7.583   6.907  0.1117 -0.1416  0.1444
29893W        W36493   6.191   3.599   8.770 -0.4569  0.1846  0.0800
29894W        W36494  16.918   3.126   2.668  0.0193 -0.4119 -0.1663
29895W        W36495  20.581   0.119   9.644  0.1487 -0.2204 -0.0367
29896W        W36496  10.676   3.456  16.954 -0.0171  0.1258 -0.1527
29897W        W36497   7.003   7.718   2.907  0.2673  0.1403 -0.0381
29898W        W36498  28.076   0.885  18.344 -0.1575 -0.0890 -0.1785
29899W        W36499  16.520   7.654   6.603  0.2952  0.0480  0.2411
29900W        W36500   9.604   7.025   1.800  0.0161  0.1837 -0.2952
29901W        W36501  21.866   2.085   2.028  0.2850  0.1092  0.0035
29902W        W36502  28.396   7.465  19.312  0.1137  0.0859  0.1979
29903W        W36503  10.101   1.306   3.753  0.1270 -0.0563  0.0010
29904W        W36504   3.615   0.796   0.798 -0.1335 -0.3367  0.4005
29905W        W36505   6.303   3.482   9.240  0.0248  0.0885 -0.1611
29906W        W36506  30.677   1.350   7.182 -0.0425  0.1120 -0.0619
29907W        W36507   9.171   7.639  21.521 -0.2312 -0.0340 -0.0679
29908W        W36508   3.513   3.528   8.628  0.0491  0.1007  0.0754
29909W        W36509  15.892   2.502   0.002 -0.3924 -0.0690  0.2536
29910W        W36510   1.886   4.260  10.047  0.0476  0.0466  0.2000
29911W        W36511  14.838   5.292  17.084  0.3709 -0.2606 -0.1292
29912W        W36512  14.713   7.162   9.063  0.2734  0.1280  0.1664
29913W        W36513   0.814   2.613   7.639  0.0260  0.0432  0.0283
29914W        W36514  16.713   4.646   4.598 -0.1276 -0.0430  0.2606
29915W        W36515   9.936   5.597  20.540  0.0531  0.1965  0.0908
29916W        W36516   0.366   7.652  20.812  0.0733 -0.2972  0.0995
29917W        W36517  23.607   7.792   5.757 -0.0227  0.1433  0.2483
29918W        W36518   4.363   5.190   5.138 -0.1706  0.0606 -0.4282
29919W        W36519  29.484   7.150   4.811  0.0201  0.2499 -0.1543
29920W        W36520  23.762   2.480  17.514  0.3577 -0.0774 -0.1628
29921W        W36521  22.409   4.092   7.635 -0.5371 -0.0327 -0.0319
29922W        W36522  30.957   1.378  19.538 -0.3235  0.0582 -0.2476
29923W        W36523   7.787   0.509  25.774 -0.2078 -0.0301  0.1232
29924W        W36524  29.273   1.534   9.946 -0.1020  0.0726  0.2508
29925W        W36525   2.178   7.564  19.231 -0.0903 -0.0068  0.0020
29926W        W36526  13.464   5.093  18.252  0.1379  0.1791  0.0964
29927W        W36527   9.849   4.141  25.192 -0.0901  0.1162 -0.2901
29928W        W36528  10.479   3.911  20.616 -0.0281 -0.1100  0.1264
29929W        W36529   7.761   0.424   7.145 -0.1255  0.0714  0.0529
29930W        W36530  17.367   2.349  21.198 -0.2523  0.1210 -0.0779
29931W        W36531   6.660   4.109   5.597 -0.0483  0.0043 -0.1260
29932W        W36532   1.204   4.425   0.790  0.1626  0.0050  0.0138
29933W        W36533  21.494   7.803   0.201  0.3931 -0.1464  0.1321
29934W        W36534  14.284   6.811  20.621 -0.3216 -0.1260 -0.2484
29935W        W36535  31.168   4.396   0.133 -0.4160  0.3720  0.0603
29936W        W36536   0.817   5.779   4.029 -0.1897 -0.1814 -0.2750
29937W        W36537   3.667   5.015   6.378  0.1675 -0.0171  0.2335
29938W        W36538   6.937   2.224  20.923 -0.0261 -0.1915 -0.1015
29939W        W36539  13.507   2.402  14.404  0.1878 -0.0189  0.0028
29940W        W36540  30.817   3.736   4.045 -0.1007 -0.1897  0.1458
29941W        W36541  27.400   0.930  19.603  0.1220 -0.0731  0.0130
29942W        W36542  16.421   3.644   1.679  0.0826  0.0257 -0.1039
29943W        W36543  20.605   5.343   4.351  0.2068 -0.4117  0.1339
29944W        W36544  17.107   6.354  15.584  0.0090  0.0863 -0.4947
29945W        W36545   5.510   2.403   0.559  0.1871 -0.1322 -0.0063
29946W        W36546  24.233   6.669  22.129  0.0905  0.2347 -0.0540
29947W        W36547  29.044   0.070   4.743  0.1413 -0.3649 -0.0199
29948W        W36548   8.931   3.013   3.407 -0.2247  0.3771 -0.0198
29949W        W36549  17.608   2.449   8.219 -0.1528  0.2197  0.0831
29950W        W36550   7.376   0.874   8.218  0.1477  0.0154 -0.0682
29951W        W36551   7.599   0.046  17.533 -0.2023  0.0837  0.0592
29952W        W36552  13.554   4.579   7.171 -0.2284 -0.1009 -0.0380
29953W        W36553  10.244   5.635   8.301  0.0824 -0.0063  0.1072
29954W        W36554  10.037   4.515   4.552 -0.1487  0.0422 -0.1079
29955W        W36555   4.426   1.034   1.710 -0.1813 -0.3222  0.1208
29956W        W36556   5.743   5.573   7.412 -0.1338  0.0570  0.2287
29957W        W36557  12.574   1.259  23.407 -0.0936  0.2526 -0.0675
29958W        W36558   0.730   7.678  22.579 -0.2247 -0.0009 -0.0339
29959W        W36559  10.029   6.205  16.297 -0.0295 -0.0694 -0.1242
29960W        W36560  10.051   3.383  20.085 -0.1110 -0.1540 -0.1362
29961W        W36561  24.367   4.569   5.895 -0.0415  0.1232  0.0177
29962W        W36562  14.804   4.898  10.162  0.5788  0.2220  0.2316
29963W        W36563   5.217   4.346  15.659 -0.2141 -0.1220 -0.3193
29964W        W36564  23.432   0.879   1.113  0.2340 -0.1293 -0.2967
29965W        W36565  24.317   4.625   4.242 -0.0795  0.0937  0.0610
29966W        W36566  11.873   0.096  17.002  0.1462 -0.0482  0.1622
29967W        W36567   1.043   2.170  18.250 -0.2018 -0.1626  0.4589
29968W        W36568  22.362   0.362   5.805  0.1048  0.0166  0.1745
29969W        W36569  22.431   7.235   1.916 -0.0825  0.1599  0.1653
29970W        W36570  25.672   5.203  11.223  0.4750  0.1654 -0.0725
29971W        W36571  14.360   6.956  17.843 -0.1695 -0.0611  0.0958
29972W        W36572   4.381   7.222  16.863 -0.0258  0.0789 -0.0385
29973W        W36573   4.335   6.313  18.604 -0.0860  0.0273  0.3206
29974W        W36574  28.618   1.921   2.771 -0.0803 -0.0960 -0.1334
29975W        W36575   5.686   4.029   4.868  0.2033  0.0269 -0.1096
29976W        W36576  10.200   4.030   6.143 -0.0404 -0.2601 -0.1610
29977W        W36577  30.717   0.739   6.563  0.1833  0.0975  0.0332
29978W        W36578  27.022   5.012  24.247  0.0440 -0.1099  0.0862
29979W        W36579  17.103   6.766   9.574  0.0860  0.0681 -0.1930
29980W        W36580   2.581   7.066   8.156  0.0796  0.1558  0.1510
29981W        W36581  18.132   6.587   1.096  0.0335  0.1192 -0.2476
29982W        W36582   5.217   5.376  17.845 -0.0766  0.1103  0.0508
29983W        W36583  13.368   5.874  19.823 -0.0628  0.1297 -0.3137
29984W        W36584   0.487   0.536  17.411  0.0462  0.1777 -0.2838
29985W        W36585  25.127   0.660   1.419 -0.0300  0.2106 -0.2492
29986W        W36586  18.679   4.883   0.798  0.3530  0.0491  0.0384
29987W        W36587  27.516   4.070  22.642 -0.1236 -0.1932  0.1026
29988W        W36588  12.983   4.784   7.400  0.0177  0.1217  0.2112
29989W        W36589  25.141   6.000  18.973 -0.0179 -0.1387 -0.0061
29990W        W36590  28.180   0.348  23.763 -0.0639  0.0181 -0.1829
29991W        W36591  18.771   7.634  15.909 -0.1061  0.1445  0.3212
29992W        W36592  20.997   3.739   0.122 -0.0480 -0.0135 -0.0058
29993W        W36593  13.526   2.639  17.887  0.4106 -0.0362 -0.1808
29994W        W36594  18.442   7.820  25.203  0.2093 -0.0767 -0.2164
29995W        W36595   8.029   7.162   7.781 -0.1049  0.3600  0.0459
29996W        W36596  11.244   1.444  18.444 -0.4612  0.0626  0.0684
29997W        W36597  30.932   5.392  16.978  0.1240  0.2601 -0.0040
29998W        W36598   9.934   1.189   2.594 -0.2998 -0.0288 -0.0567
29999W        W36599  22.044   4.779   0.696 -0.1128  0.2320 -0.2809
30000W        W36600   1.099   6.865   5.366 -0.1424 -0.0463  0.3107
30001W        W36601  16.593   2.809  24.715 -0.2383 -0.1252  0.2134
30002W        W36602  10.447   1.008   5.413 -0.2257  0.0908  0.2464
30003W        W36603   5.100   4.874  20.595 -0.0703 -0.1657 -0.0635
30004W        W36604  28.586   1.756   7.780 -0.1240 -0.1810  0.2585
30005W        W36605  27.560   7.317  23.036 -0.1188 -0.1413  0.1287
30006W        W36606   1.440   2.611   5.441 -0.0683 -0.0207 -0.3141
30007W        W36607  31.278   2.110   9.789 -0.2929 -0.2857  0.0297
30008W        W36608  29.836   0.436  20.847  0.0751  0.2559 -0.0030
30009W        W36609  21.361   0.722  19.145 -0.1451  0.2359  0.3096
30010W        W36610  28.389   3.818   9.634 -0.0235  0.0549 -0.0976
30011W        W36611   4.586   3.994   6.644  0.2372 -0.3757 -0.1609
30012W        W36612   0.272   6.946  22.319 -0.1771 -0.1079  0.0453
30013W        W36613   1.342   1.192   2.476 -0.0035 -0.1645 -0.1105
30014W        W36614   8.334   0.942  19.181  0.1897 -0.1679 -0.1669
30015W        W36615  23.225   6.683  21.644 -0.3645  0.1968 -0.0738
30016W        W36616  26.304   1.690   3.644 -0.0763  0.1150  0.0337
30017W        W36617   3.358   2.393  10.768 -0.0383  0.2071 -0.1454
30018W        W36618  23.173   6.544   3.168  0.2585 -0.0081  0.1429
30019W        W36619  24.115   5.848   9.020  0.1254  0.1494  0.1047
30020W        W36620  15.460   2.804  11.097  0.0237 -0.0492  0.0944
30021W        W36621  26.400   4.821   2.164 -0.2938 -0.0467  0.5978
30022W        W36622   4.640   1.261   4.638  0.1910 -0.0318 -0.3014
30023W        W36623   5.844   4.772  24.220  0.0700  0.0739  0.2163
30024W        W36624   6.016   2.862  19.171 -0.1257  0.1319  0.1974
30025W        W36625  18.665   6.936   3.665 -0.2194 -0.2174 -0.1878
30026W        W36626  10.884   5.506  18.520  0.2603  0.0426 -0.1460
30027W        W36627  12.918   5.273   1.949  0.0473  0.1767 -0.0169
30028W        W36628  10.323   1.992  24.130 -0.2957 -0.2821 -0.0723
30029W        W36629   5.950   2.796   0.399  0.0627 -0.1832 -0.1682
30030W        W36630  18.019   7.049  25.293 -0.0141 -0.4466 -0.2238
30031W        W36631  15.252   1.018  17.865  0.0237 -0.4789 -0.0137
30032W        W36632   0.640   6.000   5.273  0.0496 -0.1876 -0.0590
30033W        W36633  19.980   3.145  25.329 -0.0326  0.2532  0.0829
30034W        W36634   3.962   0.215  19.886 -0.0248 -0.0492 -0.0746
30035W        W36635  27.612   7.437   0.246 -0.2883 -0.0296 -0.2980
30036W        W36636  23.579   2.898   2.948 -0.2451  0.1321 -0.0505
30037W        W36637   9.588   2.185   9.528 -0.2478 -0.2633  0.1390
30038W        W36638  24.886   4.259  21.965  0.0858 -0.0814  0.1204
30039W        W36639  14.868   6.971  22.479 -0.0777  0.1270  0.1780
30040W        W36640  20.921   5.723  24.946  0.0028  0.0117  0.5048
30041W        W36641  29.134   7.664  24.915 -0.0224 -0.0680  0.1220
30042W        W36642   5.778   3.846   7.117 -0.1334 -0.1233 -0.1283
30043W        W36643  25.130   1.781  26.188 -0.0188  0.2022  0.0922
30044W        W36644  26.762   0.393   0.294 -0.4978 -0.1767  0.2634
30045W        W36645  23.731   7.663  20.631 -0.0020 -0.1120 -0.0148
30046W        W36646  20.521   0.459  17.927 -0.0353 -0.0375  0.0311
30047W        W36647  19.758   0.241  10.613  0.0525 -0.0615 -0.2257
30048W        W36648   4.307   0.285  25.639  0.2778  0.1969  0.0846
30049W        W36649   9.332   3.732  17.065 -0.2665 -0.0390 -0.0136
30050W        W36650  24.630   1.381  21.694  0.2116 -0.0708  0.0814
30051W        W36651  15.712   5.568  19.695  0.1455 -0.1220 -0.1332
30052W        W36652  22.206   7.425  15.193 -0.0564  0.1939  0.0162
30053W        W36653  13.202   7.329  20.980 -0.1101  0.1897  0.1474
30054W        W36654  30.860   6.821  17.903 -0.0302  0.0151 -0.2623
30055W        W36655  25.901   3.111   0.710  0.1950  0.1175  0.0156
30056W        W36656  18.433   0.984  19.671  0.0587  0.1555 -0.2588
30057W        W36657   0.777   5.768  18.686 -0.3663 -0.0779  0.1483
30058W        W36658  19.273   6.686  22.412  0.1011  0.1278  0.0515
30059W        W36659  21.871   1.642   0.479 -0.5459  0.1809 -0.1922
30060W        W36660  12.172   2.203  15.714 -0.1936  0.1213 -0.1817
30061W        W36661  12.640   5.063   7.190  0.2063  0.0911  0.3071
30062W        W36662  20.818   2.893  15.760  0.1328  0.0313 -0.0233
30063W        W36663  19.677   3.596  19.263  0.3057  0.0328  0.1334
30064W        W36664  24.353   1.940  22.087 -0.0140  0.1059 -0.1338
30065W        W36665   5.010   1.132  25.130 -0.2912  0.0164  0.0783
30066W        W36666  17.454   7.481  20.734 -0.2921  0.0257 -0.1809
30067W        W36667  10.599   5.785  17.481  0.0823  0.0094 -0.1265
30068W        W36668  31.008   6.299  18.055  0.0453  0.0845 -0.2540
30069W        W36669  20.573   5.485   1.398 -0.0534 -0.1561  0.2495
30070W        W36670   4.097   0.125  15.312 -0.1510 -0.1670 -0.2188
30071W        W36671  14.468   7.380  17.482 -0.5387  0.2630 -0.2200
30072W        W36672  21.733   5.488  24.245 -0.2513  0.2662  0.0648
30073W        W36673  11.086   3.703   0.612  0.0796  0.0550 -0.1363
30074W        W36674  30.392   7.364  20.185  0.1013  0.0410  0.0380
30075W        W36675   6.101   7.655  23.317  0.0131 -0.4217 -0.2868
30076W        W36676  18.543   5.779   0.119 -0.2766  0.1567  0.0450
30077W        W36677  24.823   0.314  20.773 -0.2190 -0.0803  0.1911
30078W        W36678   4.115   1.192   1.337 -0.1485  0.2617  0.1208
30079W        W36679  28.119   4.388  19.810 -0.1054 -0.0027  0.0005
30080W        W36680  24.533   4.770   9.558 -0.0605  0.4698  0.2380
30081W        W36681   8.066   6.031   0.449  0.1257  0.1512  0.1220
30082W        W36682   9.971   1.054  19.910 -0.3614 -0.0216  0.3409
30083W        W36683   0.281   7.316   0.390  0.2108  0.2554  0.0569
30084W        W36684  24.983   6.313  15.845  0.1683  0.0912  0.2153
30085W        W36685   8.632   0.401  10.727 -0.0213  0.0471  0.0288
30086W        W36686   5.541   3.399   1.824  0.1636  0.0140 -0.0401
30087W        W36687  13.332   6.670   7.741 -0.0726  0.1188 -0.1541
30088W        W36688  17.439   7.551  18.233 -0.0856 -0.0787  0.2884
30089W        W36689  29.870   4.091   2.035 -0.1776 -0.1961 -0.0303
30090W        W36690  20.767   7.673   7.332 -0.0563  0.1014 -0.2737
30091W        W36691  11.291   5.077  20.736  0.1136 -0.1701 -0.1760
30092W        W36692  17.401   3.792  21.514 -0.0775  0.0107 -0.0419
30093W        W36693   0.797   0.052   5.175 -0.1298  0.2937  0.0823
30094W        W36694   8.623   5.344   7.970 -0.1285  0.1124 -0.2781
30095W        W36695  25.928   0.097  25.274  0.2699  0.0409  0.2120
30096W        W36696  16.944   7.539   9.292 -0.1521  0.0062  0.1245
30097W        W36697   9.054   1.654  18.442  0.0782  0.0749  0.1137
30098W        W36698   3.137   1.315  23.267  0.1813  0.1873 -0.0995
30099W        W36699  30.631   5.049  24.435 -0.2511  0.3712  0.0973
30100W        W36700  28.328   5.294   1.654  0.0211  0.0936 -0.2541
30101W        W36701  12.731   1.052   8.542  0.0331 -0.0780  0.0314
30102W        W36702  19.857   0.892  24.953  0.2056 -0.0716  0.0874
30103W        W36703  15.163   3.720  19.340 -0.1546  0.0838  0.1516
30104W        W36704  25.116   1.295  21.014 -0.0149 -0.0099  0.0814
30105W        W36705  11.515   4.020   9.804 -0.1616  0.3375  0.1136
30106W        W36706   4.772   7.558  17.243 -0.0083 -0.0735  0.1751
30107W        W36707   5.255   0.038   1.436  0.0082  0.0661  0.1887
30108W        W36708   3.382   0.911  16.191 -0.0870 -0.0804  0.0537
30109W        W36709  19.567   4.871   1.518 -0.0346  0.0899  0.0079
30110W        W36710  17.003   2.603  23.301  0.3811  0.0305 -0.3472
30111W        W36711  15.431   6.685  23.221  0.0634  0.1880  0.1416
30112W        W36712  16.317   5.728  23.644  0.1200 -0.3354  0.0215
30113W        W36713  26.012   4.456   3.089  0.3205 -0.0520 -0.1377
30114W        W36714  24.789   2.357   1.643 -0.0656  0.1204  0.0322
30115W        W36715  14.886   2.434   9.070 -0.0613 -0.3211  0.1014
30116W        W36716  27.624   6.716   8.785  0.1790 -0.0062  0.2102
30117W        W36717  13.547   2.082  20.131  0.0155 -0.0818  0.0990
30118W        W36718  22.038   7.050   5.982 -0.6255  0.2689  0.1807
30119W        W36719  27.737   4.661  21.959  0.2066 -0.2943  0.0164
30120W        W36720  26.142   6.022   0.898  0.3672  0.1324  0.1908
30121W        W36721  22.094   0.874  24.205  0.2437  0.2201 -0.1877
30122W        W36722   9.407   0.419  19.573 -0.3294  0.0846 -0.2827
30123W        W36723  17.020   2.949  23.649  0.0906  0.0315 -0.1298
30124W        W36724   1.630   6.045  21.304  0.0227 -0.0171 -0.0540
30125W        W36725  29.105   3.319  25.023 -0.3609  0.0212 -0.0190
30126W        W36726  26.073   3.291  21.377  0.0583  0.2548 -0.0677
30127W        W36727  18.753   5.727   9.292  0.4435 -0.0693 -0.1468
30128W        W36728  11.750   0.354   9.083  0.0501 -0.0325  0.3528
30129W        W36729   4.754   5.308  24.123 -0.0272  0.2091  0.0141
30130W        W36730  28.255   4.446   7.478  0.0591 -0.2359 -0.0424
30131W        W36731  26.710   1.625  22.515  0.1084  0.1619 -0.2026
30132W        W36732   6.608   7.789   7.280 -0.2597 -0.1049  0.2156
30133W        W36733  10.502   4.957   0.482 -0.1749  0.0145 -0.1002
30134W        W36734  29.133   1.498  15.642 -0.0889 -0.4185  0.1816
30135W        W36735   7.686   2.235  22.052  0.0531 -0.0534  0.3612
30136W        W36736  23.099   4.071   8.188  0.0692 -0.4443 -0.1905
30137W        W36737  28.107   1.732  24.054 -0.2851  0.3345 -0.0706
30138W        W36738  23.064   0.441   7.607 -0.0429 -0.1270 -0.0309
30139W        W36739  12.943   6.993  23.025 -0.0759 -0.1583 -0.3311
30140W        W36740  11.331   2.290   2.569  0.2056  0.2786  0.1350
30141W        W36741  26.427   2.747  23.010  0.0827 -0.1551  0.1674
30142W        W36742  14.618   0.342  25.844 -0.0604 -0.1101  0.0465
30143W        W36743   3.289   2.146   7.212 -0.4523  0.0876 -0.4306
30144W        W36744  11.601   5.943   9.637  0.0070 -0.0788 -0.0666
30145W        W36745   3.385   1.004  18.417 -0.1717 -0.2865  0.0446
30146W        W36746  21.988   7.404   2.135 -0.0343  0.3672  0.0284
30147W        W36747   5.912   3.379  23.847  0.4101 -0.0949 -0.0096
30148W        W36748   1.698   7.573  19.124 -0.0231 -0.0097 -0.0525
30149W        W36749  25.640   2.810  11.039 -0.2493 -0.0351 -0.0532
30150W        W36750   4.425   1.035  16.920  0.2524  0.1518 -0.1404
30151W        W36751  18.528   6.353   0.350  0.1807 -0.0005 -0.0315
30152W        W36752  16.487   7.632  18.715 -0.1454  0.0028  0.0754
30153W        W36753  17.096   4.787   0.916 -0.0912 -0.3987 -0.3169
30154W        W36754  27.492   6.706  25.248 -0.0596 -0.0327  0.0468
30155W        W36755  17.367   2.559   4.190  0.1758 -0.0339  0.2017
30156W        W36756   9.929   6.433   1.097  0.0053 -0.0599  0.3250
30157W        W36757   8.640   5.192   1.894 -0.2251 -0.0180  0.1782
30158W        W36758   2.642   4.281   0.321 -0.1100  0.1878  0.0875
30159W        W36759  31.098   1.403  25.800  0.0967 -0.0738 -0.1928
30160W        W36760  25.936   4.038  15.381 -0.4973  0.3833  0.1481
30161W        W36761   1.405   5.390   9.253  0.2245 -0.1528 -0.1433
30162W        W36762   2.930   6.879   0.864 -0.1851 -0.2100 -0.0766
30163W        W36763   3.094   7.806   3.281 -0.1088  0.1089  0.1132
30164W        W36764  22.324   3.539  25.613  0.1064 -0.0859  0.2298
30165W        W36765  17.668   6.740   2.053 -0.1985 -0.2092  0.0015
30166W        W36766  11.866   5.800  19.312  0.0286 -0.2867  0.1165
30167W        W36767  25.776   3.710   0.633 -0.4284  0.1103  0.0521
30168W        W36768  23.333   0.775  24.647 -0.0830  0.1683 -0.1380
30169W        W36769   0.560   5.306   3.988 -0.1068  0.2824 -0.1142
30170W        W36770  28.675   3.860  15.637 -0.1060 -0.2740  0.0079
30171W        W36771  24.574   4.814  17.419  0.2579 -0.0657  0.1339
30172W        W36772  16.119   7.157  25.770 -0.1024  0.1182 -0.1252
30173W        W36773  19.960   0.649  22.215 -0.1262  0.2385  0.2513
30174W        W36774  17.181   7.580   9.732 -0.2338 -0.0182 -0.1662
30175W        W36775  24.990   7.416  23.600 -0.1615  0.1868 -0.2262
30176W        W36776   9.000   6.779  22.407  0.0847  0.0710 -0.1525
30177W        W36777  18.455   6.860   5.579 -0.1614 -0.0995  0.0959
30178W        W36778   5.421   0.195  17.630 -0.0153  0.2212  0.0728
30179W        W36779  18.183   2.361   8.002  0.0783 -0.1457 -0.0104
30180W        W36780  10.813   5.298   0.887 -0.1055  0.2391  0.0664
30181W        W36781  10.369   5.573  10.568  0.1562  0.0876 -0.0118
30182W        W36782   0.163   0.340  21.538  0.1158 -0.3184  0.1710
30183W        W36783  29.373   0.953   7.668  0.1539 -0.2706  0.2930
30184W        W36784  15.204   5.284   9.934 -0.2891 -0.1398  0.2273
30185W        W36785  27.189   5.001   5.498 -0.0841  0.1069 -0.1317
30186W        W36786  11.479   1.742   0.655  0.0656 -0.0404  0.0831
30187W        W36787  18.992   3.061   4.725  0.2164 -0.0084 -0.1520
30188W        W36788  12.601   3.622   2.576  0.2471 -0.1472  0.0961
30189W        W36789  11.191   6.642  20.638  0.1902 -0.0666 -0.0566
30190W        W36790   4.971   4.191  19.425  0.0610 -0.1607  0.3749
30191W        W36791  24.678   3.349   5.811  0.1268 -0.0246 -0.0937
30192W        W36792  12.811   6.789   3.995 -0.1356 -0.0045  0.5289
30193W        W36793  26.950   0.550   4.738 -0.1164 -0.1804  0.2126
30194W        W36794  11.338   6.873   2.088 -0.2586 -0.4318  0.2019
30195W        W36795  23.420   6.952  22.630 -0.0882  0.0444  0.0073
30196W        W36796  26.133   7.304   9.204 -0.1875 -0.0688  0.2722
30197W        W36797   0.778   0.103   0.117  0.3390  0.1734  0.0839
30198W        W36798   9.045   3.043  21.060  0.0356 -0.1926  0.0792
30199W        W36799  25.680   3.788  22.545 -0.2125  0.1832  0.1966
30200W        W36800  10.400   2.786   5.953  0.3055 -0.2452 -0.2231
30201W        W36801   7.652   3.456   9.213  0.0509 -0.0074 -0.0340
30202W        W36802  20.855   3.251  19.726 -0.3869 -0.2558  0.0801
30203W        W36803   3.503   0.336   1.499  0.0989  0.2304 -0.0917
30204W        W36804  13.443   1.642  10.170 -0.0181  0.0326 -0.2555
30205W        W36805  16.879   5.059   6.143  0.1018  0.0026  0.2440
30206W        W36806  20.793   4.812   9.475  0.2829 -0.1141 -0.1123
30207W        W36807  15.531   5.861  21.486 -0.0834  0.4381  0.3081
30208W        W36808   4.087   0.846  24.898 -0.1560  0.1458  0.1897
30209W        W36809  12.317   6.830  10.144 -0.1412 -0.4424  0.0897
30210W        W36810  10.017   0.035   1.689 -0.2230  0.0741  0.0590
30211W        W36811  23.887   0.015  18.326  0.1680 -0.1264  0.0250
30212W        W36812  30.431   3.045   5.032 -0.2143 -0.1537  0.1713
30213W        W36813  15.196   1.545   5.032  0.1552 -0.2476 -0.0530
30214W        W36814  16.846   1.943   5.568 -0.1793 -0.0907  0.3261
30215W        W36815  14.992   5.918   6.456 -0.2930  0.3339 -0.1737
30216W        W36816  10.709   3.376  24.238  0.3114  0.2717  0.1188
30217W        W36817   4.998   2.273  19.805 -0.0749  0.2828 -0.1494
30218W        W36818   4.160   3.585   3.240 -0.2537  0.2532 -0.1464
30219W        W36819   1.504   5.766   6.164 -0.0106 -0.0230 -0.1222
30220W        W36820   3.924   6.494   5.125 -0.0294  0.0863  0.1726
30221W        W36821   2.058   4.406  19.273  0.0727  0.3530 -0.1583
30222W        W36822   1.343   6.475  25.192  0.3003 -0.2174  0.1917
30223W        W36823  22.911   5.103   1.034  0.0363 -0.1851  0.0203
30224W        W36824  26.379   2.043   6.062 -0.1443  0.0556  0.0223
30225W        W36825   7.521   6.484   3.504  0.1140 -0.0494 -0.4531
30226W        W36826  23.701   0.704   3.975 -0.0560  0.1311  0.0139
30227W        W36827  18.365   4.677   5.699  0.0591 -0.1465  0.0975
30228W        W36828  19.070   2.320  16.823 -0.0866  0.2597 -0.2453
30229W        W36829  15.501   6.051  19.641 -0.1031  0.3595 -0.0701
30230W        W36830  28.288   6.336   9.241 -0.2595  0.1838 -0.0034
30231W        W36831  25.227   5.767   2.175 -0.2599 -0.3168  0.2483
30232W        W36832  10.871   4.032  10.080  0.1926 -0.1997 -0.2732
30233W        W36833  27.134   3.212  25.250  0.0643  0.1472  0.0902
30234W        W36834   4.298   2.216   9.215  0.0083 -0.1343 -0.2695
30235W        W36835   9.474   3.603  16.619 -0.3251  0.2898  0.0834
30236W        W36836   0.301   3.890  25.644 -0.2024  0.0539  0.0362
30237W        W36837  14.519   2.219   4.669  0.0838 -0.2014 -0.0485
30238W        W36838  29.578   4.402   3.657 -0.1850  0.1000 -0.1271
30239W        W36839  22.429   4.858   6.058 -0.0229  0.2158  0.1564
30240W        W36840  24.948   4.823  10.462 -0.3349  0.1115 -0.1415
30241W        W36841   3.063   4.903   9.987 -0.2815  0.2879  0.2372
30242W        W36842  18.783   4.549   8.610 -0.1247 -0.1157  0.1217
30243W        W36843   0.610   3.907  16.932  0.2647  0.0962 -0.1929
30244W        W36844  17.397   2.313   5.069 -0.3987 -0.1399  0.0242
30245W        W36845   1.189   7.269   9.640  0.0484 -0.2614 -0.1359
30246W        W36846   5.852   3.143   8.792  0.0778  0.0650  0.3352
30247W        W36847   4.351   7.092  10.565 -0.1485  0.0506 -0.0565
30248W        W36848  22.655   1.459   7.357  0.0209  0.1864  0.0301
30249W        W36849   8.947   6.406  21.956 -0.1190 -0.1511  0.2478
30250W        W36850  14.382   6.342   0.888  0.2595 -0.3285  0.1499
30251W        W36851   9.364   6.612  15.212 -0.1246 -0.0086  0.0836
30252W        W36852  22.404   7.772  14.908 -0.2938  0.3077  0.1936
30253W        W36853   1.444   0.210   7.660  0.0575 -0.0026  0.0496
30254W        W36854  27.960   1.973   8.873  0.1556  0.1120 -0.1591
30255W        W36855  15.999   1.918  15.418  0.1127  0.1316 -0.1306
30256W        W36856  16.958   5.804   9.065 -0.0997  0.2891  0.1145
30257W        W36857   8.499   5.873   2.997 -0.3600 -0.0697 -0.1249
30258W        W36858  10.978   5.713   2.880  0.0673 -0.3367  0.0520
30259W        W36859  20.571   1.501  22.338 -0.0607 -0.2754  0.1619
30260W        W36860  23.054   1.028  26.164 -0.0363  0.0958  0.0120
30261W        W36861  26.832   2.425   4.948  0.2785  0.0639 -0.2692
30262W        W36862  23.357   4.804   6.324 -0.2808  0.2834  0.2165
30263W        W36863  12.301   1.251  15.063  0.0575  0.1354 -0.3043
30264W        W36864  30.348   2.403  18.377  0.2118 -0.1761  0.4447
30265W        W36865  15.669   4.780  17.354 -0.3969  0.0693  0.2784
30266W        W36866   1.108   3.175  20.676  0.0951 -0.0858 -0.1017
30267W        W36867   1.292   1.397  11.002  0.1528  0.3282 -0.1324
30268W        W36868  21.780   7.194  15.106  0.2408 -0.1910  0.0968
30269W        W36869  11.087   5.784   6.149  0.2761 -0.0815  0.1093
30270W        W36870   4.931   5.010  18.177  0.0645  0.1598  0.0342
30271W        W36871  30.978   0.608  18.690 -0.2742  0.0113  0.0600
30272W        W36872  27.882   2.072   8.262 -0.1673 -0.1122  0.0407
30273W        W36873   1.049   2.710  10.422 -0.0237 -0.1552  0.0410
30274W        W36874  12.262   0.068  24.163  0.1053  0.1551  0.0649
30275W        W36875  20.235   4.682  19.740  0.3723  0.0669  0.0740
30276W        W36876  18.291   0.509  25.234 -0.1285 -0.0614  0.0614
30277W        W36877  27.366   5.117  23.723 -0.0595 -0.1772  0.0595
30278W        W36878   9.486   4.076  16.680 -0.0726  0.2826  0.0472
30279W        W36879  15.489   5.267  25.175 -0.1956  0.1321  0.3282
30280W        W36880  18.328   3.416  17.300 -0.1388 -0.4366  0.2183
30281W        W36881  23.728   2.300  15.577  0.3290 -0.0485 -0.2216
30282W        W36882  29.180   2.275   8.793 -0.1603 -0.0938  0.1288
30283W        W36883  21.103   4.028   1.099  0.2621  0.1502 -0.0384
30284W        W36884   2.776   5.094  10.987 -0.0966  0.1462 -0.0901
30285W        W36885  25.251   3.027  10.493 -0.3201  0.2830  0.0319
30286W        W36886  13.423   2.470   6.889  0.1202 -0.0671 -0.2568
30287W        W36887   5.220   3.496   4.007  0.2002 -0.0588  0.0212
30288W        W36888   8.446   0.995   8.428  0.2699 -0.3281  0.0593
30289W        W36889  24.123   4.307   8.883  0.1056  0.1626  0.1116
30290W        W36890   3.807   5.647  18.010 -0.0391  0.0619 -0.1396
30291W        W36891  19.056   0.310  17.173 -0.3179  0.1066  0.1608
30292W        W36892  21.002   7.094   5.228 -0.4147 -0.0847 -0.1723
30293W        W36893  11.922   4.845   2.706 -0.1006  0.1678  0.1675
30294W        W36894  23.894   5.120  19.750  0.2486 -0.0303  0.0303
30295W        W36895  10.564   5.509  26.013 -0.2763 -0.2978 -0.1690
30296W        W36896  26.688   2.104   2.933 -0.1541 -0.1124 -0.3699
30297W        W36897   4.526   4.739  26.188  0.3061 -0.1339  0.0317
30298W        W36898   2.812   7.356  20.087  0.2437 -0.1047 -0.1939
30299W        W36899  12.707   5.774   9.657  0.0455  0.0421 -0.4199
30300W        W36900  24.601   5.278  21.433  0.1636 -0.0950 -0.1278
30301W        W36901  11.989   3.996   8.681  0.2989  0.1507  0.0175
30302W        W36902  15.663   3.869   5.097  0.3725  0.0698 -0.2964
30303W        W36903  22.135   1.315   6.579 -0.1212  0.1949 -0.2163
30304W        W36904  12.947   3.075  24.959 -0.0487  0.2503 -0.1407
30305W        W36905  26.325   4.363   1.232 -0.1289 -0.1158 -0.1446
30306W        W36906  14.988   4.945  22.402 -0.1953 -0.1385 -0.0120
30307W        W36907  21.123   5.504   0.011 -0.0534  0.3609 -0.3128
30308W        W36908  11.523   5.361  21.703 -0.0565 -0.1125 -0.0223
30309W        W36909  18.576   6.373   5.842 -0.2166 -0.0316  0.0127
30310W        W36910  25.638   4.950   9.576  0.0625 -0.1375 -0.1072
30311W        W36911  26.456   4.350  22.188 -0.0057 -0.1017  0.3046
30312W        W36912  17.408   3.287  26.180 -0.0261  0.1284  0.0155
30313W        W36913   7.893   3.774  18.409 -0.1983 -0.1068  0.0518
30314W        W36914  29.774   2.242   7.805  0.0239  0.2854  0.0926
30315W        W36915  25.177   0.637   0.584  0.3339  0.0357 -0.1495
30316W        W36916   1.618   6.609   1.795 -0.1649 -0.2566  0.0900
30317W        W36917  10.799   3.034   7.374  0.4360  0.1070  0.0790
30318W        W36918   4.891   6.577   7.075 -0.0560  0.0766 -0.1017
30319W        W36919  19.993   2.196  19.713 -0.0618 -0.1258  0.1905
30320W        W36920   2.866   2.328  26.134 -0.0522  0.0507 -0.1275
30321W        W36921  16.410   1.267  25.073  0.0855  0.1167 -0.0497
30322W        W36922  26.979   7.085  19.837 -0.2713 -0.1956 -0.3698
30323W        W36923   4.499   5.399  17.403  0.2372  0.1093  0.0684
30324W        W36924  24.236   3.320   9.815 -0.0244  0.1024 -0.0951
30325W        W36925  23.175   1.382  17.054 -0.3337  0.3154 -0.1203
30326W        W36926  28.841   1.633  22.406  0.0978  0.2634  0.0209
30327W        W36927  19.794   7.538   1.913 -0.1641  0.0864  0.2054
30328W        W36928  30.799   6.198   2.639 -0.0884 -0.0162 -0.1516
30329W        W36929  11.037   3.087  25.659 -0.0841 -0.2299 -0.1901
30330W        W36930  24.123   3.074  10.787 -0.0570  0.2884  0.0952
30331W        W36931  14.293   1.320  10.771  0.2359 -0.0079 -0.0434
30332W        W36932   3.599   0.961  25.207 -0.1143 -0.0789  0.0787
30333W        W36933   0.625   4.412   1.375 -0.0783  0.2688  0.0470
30334W        W36934  18.464   4.155   4.090  0.1148 -0.0305 -0.0178
30335W        W36935  15.363   3.973  23.598 -0.1525 -0.0401 -0.0022
30336W        W36936  30.182   1.592  25.536 -0.1213 -0.2822 -0.3648
30337W        W36937   7.930   4.137  10.243  0.0196  0.1730  0.0555
30338W        W36938  18.215   3.103   5.525  0.0726 -0.3021  0.1502
30339W        W36939   4.522   4.332  25.454 -0.1184 -0.0959  0.1070
30340W        W36940  14.108   2.165   1.118  0.0360  0.0310  0.0461
30341W        W36941  22.568   4.418  23.033 -0.1089  0.1100 -0.1357
30342W        W36942  29.081   6.232   0.434  0.0609  0.0759  0.0460
30343W        W36943  27.643   6.728  25.886  0.0691 -0.0113 -0.3146
30344W        W36944  30.205   6.490  10.342  0.1368  0.0263 -0.0998
30345W        W36945  16.136   0.382  23.991 -0.1765  0.0475  0.1464
30346W        W36946   0.115   1.907   3.404  0.2159 -0.0603  0.3625
30347W        W36947   2.556   0.065   9.314 -0.2231 -0.0815  0.0202
30348W        W36948   6.799   0.788   7.016 -0.0243 -0.0162  0.2145
30349W        W36949  13.688   7.675   6.842 -0.0720  0.1005 -0.2056
30350W        W36950   5.843   6.715  25.242 -0.0359 -0.2422  0.1209
30351W        W36951   7.345   0.060  18.864  0.2120  0.1786 -0.0357
30352W        W36952  28.058   3.474   1.531 -0.1017  0.0104  0.2914
30353W        W36953  19.399   6.308  20.387  0.0864 -0.2979  0.0757
30354W        W36954   2.248   7.312   2.716  0.1890  0.2127  0.0092
30355W        W36955   6.251   1.935  19.567  0.2669  0.0776 -0.0985
30356W        W36956  29.573   4.331   1.340 -0.0038 -0.0931 -0.1506
30357W        W36957   1.615   4.899  16.106  0.0193 -0.0008 -0.2221
30358W        W36958  26.418   0.766   4.069 -0.0663 -0.0226  0.1614
30359W        W36959  14.845   7.524  24.619  0.0944 -0.2977 -0.0056
30360W        W36960   8.128   5.152   7.623  0.0350  0.0058  0.0083
30361W        W36961   8.282   3.869   2.231 -0.1179 -0.1178  0.0933
30362W        W36962  23.601   2.268  20.411 -0.1489 -0.0954 -0.1939
30363W        W36963  29.790   0.276   8.074 -0.1428 -0.1356 -0.1862
30364W        W36964   3.192   4.089  19.288  0.1647  0.0538 -0.1104
30365W        W36965   9.599   0.226  20.009 -0.0416  0.2315  0.0215
30366W        W36966   2.813   2.150   9.797  0.0956  0.0268 -0.0385
30367W        W36967   8.759   1.135  19.828  0.0231  0.1954  0.0630
30368W        W36968  15.931   0.892  23.757 -0.0879 -0.3975  0.1076
30369W        W36969  22.024   7.751  23.655 -0.2751  0.0448 -0.2938
30370W        W36970  18.725   2.231   9.670  0.1960 -0.0735 -0.0631
30371W        W36971  28.576   5.990  23.961 -0.0870 -0.2024  0.1434
30372W        W36972   2.911   7.172  19.610 -0.2212  0.0275 -0.0257
30373W        W36973   5.345   5.207   3.066  0.0212 -0.1331 -0.4991
30374W        W36974  26.208   5.010   0.493 -0.0964 -0.3635  0.1171
30375W        W36975  30.483   6.291   0.710 -0.4101  0.4038 -0.1754
30376W        W36976  11.724   6.308  20.939 -0.1483  0.2606  0.0735
30377W        W36977   4.663   6.513  20.159  0.0885 -0.2445  0.0346
30378W        W36978   9.750   1.834  25.388  0.4339 -0.0402  0.1640
30379W        W36979  18.059   4.162  25.951 -0.1310 -0.1457 -0.0717
30380W        W36980  19.727   1.824   5.872  0.0215 -0.1972  0.1791
30381W        W36981  14.474   7.643  21.014 -0.1766 -0.0719  0.1700
30382W        W36982  19.033   7.091   1.974  0.1533 -0.2662  0.0843
30383W        W36983  11.954   5.910  23.189 -0.1406  0.1978 -0.0712
30384W        W36984  15.119   0.972   0.236 -0.0777 -0.0014 -0.0683
30385W        W36985  16.008   6.363  15.242 -0.4087 -0.4229 -0.1222
30386W        W36986  15.141   4.265   4.506  0.0952  0.0027 -0.0920
30387W        W36987  22.757   3.723   2.375  0.0519  0.1287 -0.1542
30388W        W36988  24.501   0.595   1.837  0.2463 -0.0712 -0.1436
30389W        W36989   5.005   3.390  17.848  0.0680 -0.0473  0.1410
30390W        W36990  19.674   1.736  14.523  0.0211 -0.0080 -0.2999
30391W        W36991  27.213   7.765   5.397  0.0869  0.0726 -0.2245
30392W        W36992  24.745   1.742   5.288 -0.1093  0.1150  0.2226
30393W        W36993   2.189   1.160   2.455  0.0720  0.2682 -0.0033
30394W        W36994   1.074   2.113  20.304 -0.0943 -0.3564  0.0582
30395W        W36995   7.277   0.522   7.065 -0.1317 -0.0595  0.4356
30396W        W36996   7.566   2.175  19.042  0.0692  0.2296  0.1231
30397W        W36997  28.187   2.583  20.785 -0.3028  0.0451  0.0719
30398W        W36998  22.325   1.538  17.832  0.1061 -0.1696 -0.3161
30399W        W36999  26.646   5.436   9.984 -0.2189  0.0278 -0.0292
30400W        W37000  22.463   0.503  18.623  0.0704 -0.0880  0.2369
30401W        W37001  14.921   4.032   0.149 -0.1126 -0.1528 -0.3037
30402W        W37002  13.284   6.787  19.354  0.1369 -0.3071 -0.0784
30403W        W37003  23.060   0.308  16.355 -0.1008  0.1645  0.1738
30404W        W37004  27.201   4.183   6.253 -0.1853  0.1685  0.0657
30405W        W37005  26.759   7.544  15.767  0.1423 -0.2442 -0.0391
30406W        W37006  13.226   5.658  24.747 -0.3118 -0.2006 -0.1665
30407W        W37007  23.222   5.991   8.440 -0.1122 -0.2166  0.0037
30408W        W37008  12.639   7.803   6.371 -0.1607  0.1923  0.0566
30409W        W37009  15.054   6.012   1.764 -0.1909  0.3373 -0.0649
30410W        W37010  16.946   5.927   1.728 -0.1983  0.1046 -0.0346
30411W        W37011   0.288   7.095  17.358 -0.2022  0.1457 -0.2439
30412W        W37012  21.842   5.693   6.092  0.1326 -0.5900 -0.4405
30413W        W37013  27.027   4.143   8.365  0.0449  0.0981  0.1851
30414W        W37014  29.023   1.199   0.812  0.0298  0.0416  0.4124
30415W        W37015  12.275   1.423   6.776 -0.2268 -0.1502 -0.0127
30416W        W37016  19.049   4.162  16.056 -0.0748  0.3190 -0.0310
30417W        W37017   1.990   5.463  24.140  0.1059  0.1443  0.4874
30418W        W37018  16.681   6.830   3.102  0.2608 -0.2025  0.1021
30419W        W37019  24.338   6.317  23.989  0.2011  0.0952 -0.0889
30420W        W37020  19.090   6.030  10.072  0.0393  0.0438  0.1667
30421W        W37021   5.933   4.079  20.929  0.0325  0.1653 -0.1532
30422W        W37022  11.700   4.744   7.421  0.2905 -0.1821  0.0462
30423W        W37023   0.699   3.746  11.354 -0.0234  0.0788 -0.1389
30424W        W37024  25.944   4.536   5.125  0.2481 -0.0345  0.1155
30425W        W37025   7.369   1.118   4.287 -0.1472 -0.0300 -0.1468
30426W        W37026  18.985   7.658   0.419 -0.4426  0.2076 -0.1895
30427W        W37027   0.375   7.132  11.174 -0.0788 -0.1487  0.2511
30428W        W37028   3.919   7.754   7.722  0.1142 -0.1754  0.2051
30429W        W37029  11.095   6.064   7.429  0.0314  0.1096  0.0999
30430W        W37030  19.432   3.681  24.724  0.1752  0.0142  0.1249
30431W        W37031  11.612   4.864   6.238  0.0987 -0.1080 -0.1605
30432W        W37032  27.128   1.005   4.575 -0.0378  0.1371 -0.0171
30433W        W37033   8.285   5.239   4.374 -0.2979 -0.1515  0.1342
30434W        W37034   5.900   2.800   7.122 -0.0127  0.0849 -0.1450
30435W        W37035  24.278   1.115   2.235  0.0102  0.0176  0.0330
30436W        W37036  10.529   6.004   1.383 -0.1505 -0.1593  0.1371
30437W        W37037  19.926   2.550  17.645 -0.0118  0.3517 -0.1366
30438W        W37038   4.133   6.209  21.377  0.0767 -0.0203 -0.0932
30439W        W37039  19.599   0.562  20.171  0.1673  0.1279 -0.0538
30440W        W37040  30.671   5.199  22.509  0.0025 -0.0802  0.2538
30441W        W37041  15.118   7.697  23.045  0.2471 -0.1122 -0.2128
30442W        W37042  17.331   4.345  22.523  0.1095  0.4705  0.2424
30443W        W37043  18.982   5.957   8.037 -0.2871 -0.1279  0.0994
30444W        W37044  17.417   2.829   8.999  0.4239  0.2041  0.1136
30445W        W37045  12.416   4.718  18.819 -0.0137 -0.0812  0.1817
30446W        W37046   9.726   6.068  18.672  0.0714 -0.0758  0.0505
30447W        W37047   2.263   5.452   7.642 -0.0161  0.1967  0.2346
30448W        W37048   9.177   7.682   3.030  0.2533 -0.0375 -0.2045
30449W        W37049   1.006   1.021   5.948  0.2037 -0.0789 -0.0320
30450W        W37050  16.447   4.220   5.758  0.0659 -0.1999  0.2018
30451W        W37051   9.218   1.985  20.931 -0.1099 -0.0683  0.0701
30452W        W37052  21.237   0.030   7.552 -0.2613 -0.2276 -0.2828
30453W        W37053  28.792   1.098  11.818  0.1463  0.3502 -0.2882
30454W        W37054  21.459   2.752   9.985 -0.0027 -0.0063  0.0946
30455W        W37055  30.886   0.459   8.599  0.0014  0.3097  0.1199
30456W        W37056  23.388   4.328  24.206  0.0813 -0.0088  0.2103
30457W        W37057   4.970   4.013  22.771 -0.1899  0.2429  0.0942
30458W        W37058  16.566   5.751   9.801  0.1386 -0.0110  0.2603
30459W        W37059  22.306   0.347  23.428 -0.1112 -0.3404 -0.1087
30460W        W37060   2.542   0.407  22.072 -0.1233 -0.2109  0.1318
30461W        W37061  24.554   0.529  25.492 -0.2053  0.1203  0.1143
30462W        W37062  16.330   0.471   2.127 -0.0741  0.0600  0.0850
30463W        W37063  16.226   6.839   7.039  0.0348  0.5052  0.2181
30464W        W37064  11.251   1.474  19.491  0.0326  0.1358  0.1303
30465W        W37065   6.046   4.549  21.470 -0.1861  0.0143  0.0953
30466W        W37066   5.689   0.690  10.399  0.0590  0.0220  0.0435
30467W        W37067  11.174   5.919  18.422  0.1437 -0.0419 -0.0024
30468W        W37068  28.429   1.870   9.696 -0.1196 -0.2011  0.2979
30469W        W37069   2.871   5.320  25.591 -0.0785  0.0691  0.1746
30470W        W37070   2.449   3.040   0.306 -0.2428 -0.3675 -0.2610
30471W        W37071   1.473   1.982  20.557 -0.0647  0.1325  0.0061
30472W        W37072  23.362   7.548  17.195  0.2118  0.0552 -0.0416
30473W        W37073  16.268   6.067   4.992 -0.1231 -0.2149 -0.1322
30474W        W37074   3.576   1.529  18.415 -0.1639 -0.3636 -0.1349
30475W        W37075   3.561   4.900  19.595  0.1014  0.4314  0.3166
30476W        W37076  21.210   4.578   5.896  0.3104 -0.0235  0.0164
30477W        W37077  23.117   4.291  17.813 -0.0210  0.1391  0.0759
30478W        W37078  14.304   7.457   2.047  0.1416  0.0833 -0.0611
30479W        W37079  18.374   5.102  15.324 -0.1081 -0.0250  0.0131
30480W        W37080   6.373   2.597  17.940  0.1625  0.0804 -0.1784
30481W        W37081  18.406   3.861   6.349  0.1081  0.1773 -0.3748
30482W        W37082   8.895   4.478  21.694  0.1125 -0.0045  0.1478
30483W        W37083   0.610   2.978  25.540 -0.1464  0.0115 -0.3748
30484W        W37084   1.290   5.206  21.548  0.1797  0.0902  0.0688
30485W        W37085  11.613   6.269   2.728 -0.2202 -0.1093 -0.0760
30486W        W37086   1.870   4.630   6.777  0.0648  0.1545  0.0204
30487W        W37087  14.956   2.461  18.886  0.2501  0.0638  0.0599
30488W        W37088  30.300   5.187  20.002  0.0791 -0.1535  0.2152
30489W        W37089   5.014   1.097   8.498  0.0402 -0.0633 -0.0226
30490W        W37090   5.418   4.059  24.248  0.1947  0.0842  0.1774
30491W        W37091  10.218   6.385  15.375 -0.2766 -0.1137 -0.0351
30492W        W37092   7.031   3.562   2.775  0.2689 -0.2432 -0.0120
30493W        W37093  25.215   7.664   4.488 -0.1320  0.0109 -0.4408
30494W        W37094   1.907   4.304  22.604 -0.0204  0.0830 -0.2220
30495W        W37095  29.971   6.448  20.504 -0.3472  0.2336  0.1984
30496W        W37096   3.635   7.371  24.223 -0.1427  0.2355 -0.1056
30497W        W37097   9.950   5.273  25.951  0.5249 -0.0504 -0.2944
30498W        W37098   5.918   1.532  15.737  0.0765  0.0157 -0.1175
30499W        W37099   3.716   5.042  20.755 -0.0134  0.0105  0.0117
30500W        W37100  16.325   2.620   9.631 -0.0018  0.1640 -0.1065
30501W        W37101  17.642   5.793  23.069 -0.1985 -0.2012 -0.1424
30502W        W37102  30.277   0.229   8.564 -0.1461  0.2032  0.3248
30503W        W37103  16.286   6.003  11.007  0.1519  0.0915 -0.5369
30504W        W37104   0.641   5.268  10.442 -0.2043  0.0891  0.1361
30505W        W37105  29.869   1.368   1.578 -0.0043 -0.0052 -0.0049
30506W        W37106  28.814   1.278   6.889  0.0165 -0.1006  0.0258
30507W        W37107   3.263   3.406  21.061 -0.3010 -0.0429 -0.0113
30508W        W37108   0.796   3.397   6.121  0.1077  0.2187 -0.1719
30509W        W37109  26.971   0.933   1.090 -0.0180 -0.0707  0.0861
30510W        W37110  14.148   0.776  19.756  0.1028 -0.2133  0.0607
30511W        W37111   3.960   3.566   6.692  0.1607 -0.0105  0.3977
30512W        W37112  11.398   1.113   5.263 -0.1751  0.0136  0.1042
30513W        W37113   9.704   4.935  25.572 -0.0638 -0.0707 -0.2514
30514W        W37114  18.372   1.370  21.263 -0.0730 -0.2405 -0.4155
30515W        W37115   7.566   7.229  16.292 -0.0422  0.0113 -0.2886
30516W        W37116  30.048   3.362   5.942 -0.1400  0.2243  0.0407
30517W        W37117   9.061   3.232   1.067 -0.3026  0.0370 -0.2175
30518W        W37118   3.813   5.338  20.404 -0.2622 -0.0864 -0.1244
30519W        W37119   7.611   1.781   5.403 -0.0496 -0.0868 -0.2694
30520W        W37120   1.361   3.621   8.835 -0.1149  0.1228 -0.0239
30521W        W37121  18.597   6.938  21.300 -0.0735 -0.1496  0.1787
30522W        W37122   2.213   7.016  10.815  0.2327  0.2151  0.0138
30523W        W37123   3.693   6.634  23.037 -0.0651 -0.1498  0.0167
30524W        W37124  16.926   2.463  22.595 -0.0311 -0.1929  0.2315
30525W        W37125  28.011   0.053   7.977 -0.2464  0.0779  0.0028
30526W        W37126  10.531   0.886  22.020  0.1124  0.1031 -0.0406
30527W        W37127  10.677   3.207   5.579 -0.0243  0.2049 -0.0726
30528W        W37128  12.565   1.884   6.254  0.2855 -0.0077 -0.1953
30529W        W37129   9.997   7.751   6.732  0.0850 -0.0868  0.5134
30530W        W37130  15.132   5.802  23.383  0.1136 -0.1163 -0.0702
30531W        W37131   9.677   0.640   0.991  0.0192  0.0902  0.1927
30532W        W37132  22.736   0.468   8.716  0.3453 -0.2912 -0.0810
30533W        W37133  17.803   1.829   7.855  0.2033 -0.1504  0.2512
30534W        W37134  29.274   6.739  18.650 -0.3534  0.0413  0.2069
30535W        W37135  17.374   6.854  25.660 -0.3571  0.0060 -0.1123
30536W        W37136  27.134   3.898   1.213  0.0214  0.0746  0.3031
30537W        W37137  14.412   3.139  19.908 -0.1384 -0.2746 -0.0395
30538W        W37138   8.317   0.128   9.359 -0.1081 -0.0255  0.1419
30539W        W37139  14.348   1.025  10.370 -0.0979 -0.0039  0.0419
30540W        W37140  29.432   3.770   8.683  0.4114  0.6297 -0.0659
30541W        W37141  20.815   2.359   6.864 -0.0094  0.1763 -0.2908
30542W        W37142   7.403   6.973   0.909  0.2406  0.0108  0.0627
30543W        W37143  24.768   3.515  10.034  0.1503  0.1802 -0.3414
30544W        W37144  27.251   2.010   3.666  0.2565 -0.1216  0.1152
30545W        W37145  30.076   6.363  24.141 -0.3761  0.0473 -0.0875
30546W        W37146  13.380   7.385   7.079  0.0282  0.0587 -0.2562
30547W        W37147   1.936   6.305  25.204 -0.2069  0.1412 -0.0689
30548W        W37148  28.933   4.054   5.503 -0.0937  0.0585  0.1654
30549W        W37149  13.726   5.272  21.693 -0.0745  0.0576  0.2494
30550W        W37150   1.626   2.545   8.345 -0.1012  0.0265 -0.2306
30551W        W37151  28.802   2.608   7.643 -0.1386 -0.2524  0.1024
30552W        W37152   7.042   1.597  17.498  0.2127 -0.0491  0.0973
30553W        W37153  23.401   2.868  18.385 -0.3181  0.2529 -0.3595
30554W        W37154  13.951   5.362  23.091  0.0795  0.2340  0.0819
30555W        W37155  30.081   7.711   1.939 -0.0023 -0.2491 -0.0260
30556W        W37156  19.595   6.340  10.855 -0.0836  0.1738 -0.2312
30557W        W37157   4.191   3.898  19.780  0.2802  0.1432  0.4120
30558W        W37158  22.556   5.442  18.752  0.0843 -0.2460 -0.0414
30559W        W37159   5.674   4.941  24.648  0.0167  0.3668 -0.2032
30560W        W37160  22.176   4.819  22.352  0.1700  0.0584 -0.0786
30561W        W37161  12.916   3.791   8.361  0.3540 -0.0269 -0.0536
30562W        W37162  19.688   6.368   0.306 -0.0117  0.0399 -0.0691
30563W        W37163   3.450   3.637  24.455 -0.0521  0.0740  0.0207
30564W        W37164  26.773   7.246  17.488  0.1417 -0.0534 -0.0109
30565W        W37165  25.524   0.723  17.849 -0.2516 -0.0053  0.0756
30566W        W37166  22.781   3.497  18.601  0.0799  0.0157 -0.2073
30567W        W37167  24.951   7.570  19.059 -0.2022 -0.2223 -0.0328
30568W        W37168   0.523   6.627  19.924 -0.1597 -0.0321 -0.1452
30569W        W37169  13.982   2.065   5.949 -0.2793 -0.2426 -0.5153
30570W        W37170   1.242   1.504  23.002  0.0060  0.4338 -0.0501
30571W        W37171   7.326   0.008   7.034 -0.1362  0.0526  0.0975
30572W        W37172  26.142   3.064  18.671 -0.4747  0.0308 -0.1119
30573W        W37173   6.302   4.107   7.050 -0.2893 -0.1408 -0.1297
30574W        W37174   1.925   5.255  16.227 -0.2425  0.1878  0.1299
30575W        W37175  25.486   0.277   0.438  0.1855 -0.0330 -0.0866
30576W        W37176   6.018   5.096  25.032  0.3589 -0.2023 -0.2257
30577W        W37177   3.582   3.019  17.175  0.1188  0.0723  0.0464
30578W        W37178   3.049   0.427  18.043  0.1055  0.1471 -0.1237
30579W        W37179  28.447   3.281  21.893  0.0391  0.0368  0.4376
30580W        W37180  18.338   5.222   7.904  0.0069  0.1545 -0.1308
30581W        W37181  25.336   0.715  23.232  0.0091 -0.1365  0.0888
30582W        W37182  20.931   1.318  22.720  0.1972 -0.1455 -0.1702
30583W        W37183  15.822   1.780  20.226 -0.2571 -0.1444 -0.0308
30584W        W37184   1.491   7.560   7.802 -0.1207 -0.1372 -0.1222
30585W        W37185  15.793   6.025  20.116 -0.0314 -0.0427 -0.1714
30586W        W37186  22.085   6.561   4.664 -0.0441 -0.0499  0.1783
30587W        W37187  29.218   3.458  18.081 -0.0300  0.0227 -0.1408
30588W        W37188   2.869   0.583  25.317  0.0736 -0.2121 -0.1510
30589W        W37189  19.206   6.279  21.383  0.0842  0.0387  0.3387
30590W        W37190   8.843   1.987  21.258  0.1729 -0.1284  0.1599
30591W        W37191  15.237   7.456   6.888  0.0540 -0.0666 -0.1504
30592W        W37192  15.397   3.013   8.632 -0.3115 -0.1147 -0.1938
30593W        W37193  30.538   7.131  23.983  0.1600 -0.0142 -0.3017
30594W        W37194  18.255   6.706  23.647 -0.0002 -0.1906  0.0720
30595W        W37195  24.283   5.338  23.982  0.2313  0.0069  0.1805
30596W        W37196   6.682   1.978  23.873  0.2781  0.3660 -0.0495
30597W        W37197  15.451   4.916  22.952 -0.4298  0.2300  0.0626
30598W        W37198  31.008   3.107   3.466  0.0864  0.1499 -0.0043
30599W        W37199  12.492   4.457  22.169  0.1276 -0.0727  0.1251
30600W        W37200  17.024   3.400   3.156  0.1272  0.0222 -0.1448
30601W        W37201  19.720   5.857  22.773  0.0025  0.4582  0.0971
30602W        W37202  15.131   7.397   1.218  0.2694 -0.2410  0.2095
30603W        W37203  23.243   0.412  25.067  0.0351 -0.0266  0.0506
30604W        W37204   3.314   5.945   3.899 -0.0683 -0.2329 -0.2284
30605W        W37205  12.459   3.554   8.079  0.0998 -0.3439  0.0844
30606W        W37206   5.460   0.159  23.538  0.0663  0.0924 -0.1822
30607W        W37207  16.081   1.985   0.072  0.0971  0.0824  0.1514
30608W        W37208  25.193   6.427  10.094 -0.0416 -0.0062 -0.2522
30609W        W37209  16.300   1.710  24.820  0.0079 -0.0265  0.1478
30610W        W37210   4.680   0.040  23.494  0.1331  0.1811 -0.1250
30611W        W37211  29.040   3.996  21.459  0.1641  0.1877  0.1423
30612W        W37212   1.966   7.802  22.292 -0.1103 -0.1415  0.1426
30613W        W37213  13.661   2.793   8.523 -0.3298 -0.2563  0.0288
30614W        W37214   7.321   2.884   8.146  0.1468  0.0349 -0.1913
30615W        W37215   0.836   5.062  18.490 -0.0087  0.1241 -0.2170
30616W        W37216  26.998   1.799  26.076  0.0257  0.2514  0.3153
30617W        W37217   4.419   3.761  23.989  0.1948  0.0362  0.0431
30618W        W37218  10.441   2.458  25.483  0.2471 -0.2505  0.2079
30619W        W37219   0.003   4.120   2.451 -0.1888  0.1361 -0.1320
30620W        W37220   4.228   5.283  19.249  0.1424 -0.2769 -0.3395
30621W        W37221  12.665   2.427  20.186  0.2248  0.2001 -0.3553
30622W        W37222  21.247   1.867  17.623 -0.0215 -0.0099 -0.0805
30623W        W37223  11.610   5.944   1.884  0.0091  0.4372  0.0496
30624W        W37224  15.126   6.869   3.784  0.2339  0.3055 -0.0876
30625W        W37225   1.138   7.603  24.783  0.1446 -0.1741 -0.1303
30626W        W37226  27.331   1.600  10.302 -0.0554  0.0903  0.1855
30627W        W37227  28.697   0.512  15.109  0.1744  0.0922 -0.1137
30628W        W37228   3.351   1.167  15.766  0.1040  0.0644  0.2221
30629W        W37229  26.157   1.003  26.186  0.1467 -0.1424  0.0990
30630W        W37230  19.833   3.304  18.877  0.0496  0.1757  0.1897
30631W        W37231  10.506   2.690   6.987 -0.3200  0.0835  0.0329
30632W        W37232  27.917   1.300  22.187  0.0227  0.0351 -0.2092
30633W        W37233  19.772   3.437   8.312 -0.0937 -0.2290 -0.1485
30634W        W37234  11.060   0.206   9.345 -0.0522 -0.1806  0.0127
30635W        W37235   5.181   4.024  17.235 -0.2743 -0.0745 -0.0034
30636W        W37236   0.778   3.495   6.646 -0.2433  0.0329 -0.0716
30637W        W37237  13.743   2.559  21.768  0.2966  0.0266 -0.1356
30638W        W37238  29.810   4.551   2.330  0.2862  0.1221 -0.0415
30639W        W37239   7.373   5.302   9.948 -0.3341 -0.1596  0.1440
30640W        W37240   9.178   4.459   2.944  0.0920 -0.0562 -0.0806
30641W        W37241   5.875   6.354   1.590 -0.2367 -0.0885  0.0250
30642W        W37242  20.672   6.015  16.357  0.1523  0.0056 -0.0440
30643W        W37243  13.329   3.676   5.455 -0.0309  0.1307  0.3072
30644W        W37244  15.829   7.070   6.677 -0.0244  0.0942 -0.4872
30645W        W37245  26.651   2.697   7.107 -0.0158 -0.4515  0.2899
30646W        W37246  18.984   1.284   0.243  0.3540 -0.1386  0.4823
30647W        W37247  27.284   4.395  10.710  0.1794  0.0362 -0.1750
30648W        W37248  12.539   5.300   0.075 -0.2115 -0.0055  0.0111
30649W        W37249   7.105   1.369  19.751 -0.1754  0.0557  0.0700
30650W        W37250   1.177   1.828  20.935 -0.2618  0.1193 -0.0413
30651W        W37251   7.257   1.341   3.271 -0.1677 -0.0355 -0.2323
30652W        W37252  25.664   4.743  20.805 -0.1381  0.0749 -0.3561
30653W        W37253  24.971   1.607   2.978  0.0878  0.0774  0.0994
30654W        W37254  13.015   1.900  20.752 -0.1243 -0.0837 -0.0508
30655W        W37255  27.693   1.071   4.652 -0.1450  0.0903  0.1779
30656W        W37256  19.430   3.430  23.811 -0.1462  0.0729  0.3065
30657W        W37257   6.169   4.606   7.285 -0.0079  0.0534  0.0400
30658W        W37258  12.950   1.202   6.375  0.1826 -0.2439 -0.1241
30659W        W37259  20.785   3.665   1.159 -0.0941 -0.0404 -0.1621
30660W        W37260  13.550   4.137   7.547  0.2256 -0.0124 -0.0049
30661W        W37261   5.409   0.639  17.874 -0.0739 -0.0291 -0.2575
30662W        W37262   9.556   4.571   0.252 -0.0416  0.1586 -0.0376
30663W        W37263  30.467   2.956   2.795  0.0449  0.0219  0.1329
30664W        W37264  16.963   4.690   7.413  0.2182 -0.2263 -0.0902
30665W        W37265   8.022   1.134  10.670 -0.1910 -0.0826  0.1990
30666W        W37266  21.823   2.510  26.180  0.1753 -0.2135  0.1877
30667W        W37267  27.630   7.403   2.202 -0.0953 -0.0175  0.2439
30668W        W37268  10.479   6.500  18.739 -0.1862  0.2392  0.0663
30669W        W37269  19.836   2.863   8.892  0.2495  0.0679 -0.3376
30670W        W37270  29.913   4.949  23.619 -0.0250  0.0841 -0.1565
30671W        W37271  23.471   4.850  19.582  0.3103 -0.2859  0.1173
30672W        W37272  21.679   6.749   5.820 -0.0632 -0.2430 -0.0371
30673W        W37273  26.178   6.766  19.198  0.2079 -0.3741  0.3185
30674W        W37274  14.936   0.335   0.619  0.1818  0.0230 -0.0528
30675W        W37275  10.088   2.989  21.788 -0.2369 -0.2728 -0.1720
30676W        W37276  12.208   2.277  17.982 -0.0472  0.1804 -0.1932
30677W        W37277   1.637   5.142   2.429  0.1193 -0.5087  0.0624
30678W        W37278  18.056   4.530   4.311 -0.0859  0.1724  0.1231
30679W        W37279   4.148   2.238   2.666  0.1455  0.3070  0.3916
30680W        W37280   9.756   1.389  22.167  0.1528  0.1207 -0.1340
30681W        W37281  11.062   5.213   6.080 -0.1186 -0.1297 -0.2048
30682W        W37282  14.520   5.290  25.672 -0.1441 -0.3277  0.0074
30683W        W37283   7.046   5.452   0.571 -0.1200 -0.1662 -0.1194
30684W        W37284   5.919   1.197   0.057 -0.2221 -0.1130 -0.0068
30685W        W37285   4.782   4.355   9.691 -0.3017 -0.1004 -0.1367
30686W        W37286  29.297   2.254  17.660 -0.3068  0.0726  0.2115
30687W        W37287   0.631   4.384  18.664  0.2963  0.2717 -0.1330
30688W        W37288  18.604   7.813  17.274 -0.1951  0.0753  0.0409
30689W        W37289  14.774   3.426  17.919  0.0349 -0.1393  0.3934
30690W        W37290   7.002   6.570   3.352  0.3245  0.1948 -0.0212
30691W        W37291  18.879   5.656  23.673 -0.1317 -0.1803 -0.2074
30692W        W37292   4.398   0.588  20.021  0.0515  0.1902  0.4007
30693W        W37293   1.094   2.321   7.279  0.1177  0.0433 -0.3016
30694W        W37294  21.003   7.611   0.751  0.2346  0.2160  0.1512
30695W        W37295  14.541   5.339   0.609 -0.2294 -0.0226  0.1858
30696W        W37296   5.106   2.319   1.299  0.1012  0.0393 -0.0965
30697W        W37297  28.442   1.069  17.028  0.1400 -0.2917 -0.0311
30698W        W37298   8.679   0.725   7.432  0.1660 -0.2611 -0.1947
30699W        W37299   7.498   4.112  17.036  0.0398  0.3587  0.0301
30700W        W37300  25.466   0.608   6.467  0.0372  0.2394  0.1092
30701W        W37301  31.142   2.167   3.813  0.1227 -0.2470  0.0816
30702W        W37302  19.707   7.722   5.519 -0.0834  0.0535  0.1637
30703W        W37303  18.699   6.538   1.230  0.3254  0.2323  0.3423
30704W        W37304  24.417   4.677   1.936  0.0456  0.1580 -0.2020
30705W        W37305   9.085   7.775   0.975  0.0610  0.2180  0.0081
30706W        W37306   0.613   6.490   3.327 -0.0977  0.1189  0.0560
30707W        W37307  16.982   4.024  20.671  0.0853  0.1211 -0.0555
30708W        W37308  15.645   3.900  21.880  0.1831  0.0680  0.2689
30709W        W37309  17.667   6.367  22.283  0.0989  0.1447 -0.0659
30710W        W37310   6.085   2.033  15.971 -0.0057 -0.3029 -0.3153
30711W        W37311   8.529   7.450  10.546 -0.1771  0.0688 -0.0128
30712W        W37312  19.761   0.635  16.062  0.0847  0.0093 -0.3968
30713W        W37313   5.247   1.980   6.451  0.0255 -0.2332  0.0332
30714W        W37314   9.055   5.196  19.100  0.0004 -0.1951 -0.0649
30715W        W37315  18.817   3.043  21.954  0.0194 -0.3038  0.3503
30716W        W37316   9.183   5.050  21.841 -0.4511  0.0364  0.1686
30717W        W37317  17.240   6.255  20.556  0.3252 -0.0067  0.0022
30718W        W37318  19.294   5.666   3.858 -0.0865 -0.4565 -0.0675
30719W        W37319  19.085   0.606  19.323 -0.2756  0.0433  0.2968
30720W        W37320  25.089   5.143  20.433  0.0205 -0.0161 -0.0565
30721W        W37321  10.734   0.475  23.922  0.1470  0.0625  0.0723
30722W        W37322  22.728   2.013  16.761 -0.0433 -0.1671  0.1437
30723W        W37323  19.423   5.383  23.635  0.1735  0.3763 -0.1896
30724W        W37324  18.269   1.717  23.590  0.0896  0.3334 -0.0774
30725W        W37325  17.958   3.009  22.974  0.3572  0.0569  0.0053
30726W        W37326  10.510   4.847  10.194 -0.1076 -0.1821 -0.3978
30727W        W37327   3.076   7.581  25.037 -0.3331 -0.2634  0.2721
30728W        W37328  28.135   2.559  21.504 -0.1501  0.1791  0.0153
30729W        W37329   3.029   2.340   8.692  0.2211  0.1627  0.1951
30730W        W37330  24.184   4.472  18.231 -0.0931 -0.0976  0.0704
30731W        W37331  24.182   1.620   6.549  0.0009 -0.2802 -0.0169
30732W        W37332  19.714   5.136  21.591  0.3198  0.3085  0.1027
30733W        W37333   1.467   7.026  22.760 -0.0528 -0.4624 -0.0171
30734W        W37334   9.919   4.279   2.368 -0.0180 -0.0087  0.0608
30735W        W37335  14.585   7.342   6.714 -0.2199 -0.1986  0.2213
30736W        W37336  19.441   3.585   4.359  0.0940 -0.0911  0.0623
30737W        W37337  23.237   2.071   8.395  0.1021 -0.3067 -0.0933
30738W        W37338  26.107   3.838   0.043 -0.1759 -0.1930  0.1421
30739W        W37339   2.088   7.751  10.860 -0.2338  0.0993 -0.1743
30740W        W37340  19.558   1.764   2.421  0.1733  0.2431 -0.3471
30741W        W37341  27.154   3.955  18.116 -0.0380 -0.0369 -0.1452
30742W        W37342   9.775   4.846   2.669 -0.0293 -0.0655 -0.1532
30743W        W37343  13.454   7.552   3.175 -0.1433 -0.1575  0.0817
30744W        W37344  15.726   2.025  22.549  0.0662  0.0289 -0.0255
30745W        W37345  26.904   5.408  25.017 -0.3324  0.1581 -0.0163
30746W        W37346  10.649   4.172  24.182 -0.0571 -0.0285 -0.0998
30747W        W37347   4.934   7.253  25.496  0.0627  0.3641  0.2626
30748W        W37348  12.821   6.532  17.298 -0.0817 -0.1017  0.1004
30749W        W37349  20.791   0.693  18.394  0.2588 -0.1021  0.0560
30750W        W37350   1.426   4.137  16.093 -0.0078  0.0446 -0.0219
30751W        W37351  11.182   6.769  18.184 -0.0763 -0.1113  0.1924
30752W        W37352   7.537   3.660   4.513 -0.0447 -0.1292  0.0266
30753W        W37353  11.447   0.205  16.059 -0.1107 -0.2124 -0.0837
30754W        W37354  10.146   6.871  15.151  0.1961  0.1428 -0.0350
30755W        W37355  30.887   4.917  25.176  0.0379  0.0478  0.0042
30756W        W37356  29.171   7.320   7.478  0.4315 -0.1249  0.0423
30757W        W37357  30.027   6.897   7.044 -0.0251  0.2001 -0.1777
30758W        W37358  22.061   4.344   6.422 -0.1237  0.1234 -0.3725
30759W        W37359   9.523   1.571  25.011  0.1191  0.0885  0.0145
30760W        W37360   2.215   4.359  21.822 -0.2104 -0.0748 -0.1327
30761W        W37361   7.380   6.325   2.438  0.0522 -0.2286  0.0492
30762W        W37362   6.994   0.318  22.512  0.0758  0.3661 -0.3615
30763W        W37363   1.112   3.721   5.331  0.0647  0.0142 -0.1722
30764W        W37364  26.276   7.594   7.285  0.0959 -0.1584  0.2931
30765W        W37365   0.481   5.881   0.193 -0.0813  0.1838  0.1118
30766W        W37366  25.370   1.115   1.977 -0.3234 -0.2262 -0.1425
30767W        W37367  20.908   2.442   0.965 -0.2737 -0.0955  0.1058
30768W        W37368  26.042   2.707   5.218 -0.0726  0.0173  0.1519
30769W        W37369   4.725   0.527   2.598 -0.2811  0.0880 -0.1954
30770W        W37370   8.013   0.784  17.783 -0.0726 -0.1216 -0.2608
30771W        W37371  28.851   6.250  19.856 -0.0617  0.2498  0.2735
30772W        W37372   8.311   6.321  16.074 -0.2901  0.0727  0.0256
30773W        W37373   9.889   2.068  21.476  0.0098 -0.0292 -0.0668
30774W        W37374  19.911   0.912  20.382  0.2547  0.0904  0.1988
30775W        W37375   6.757   0.197  19.337 -0.1143  0.1196  0.0032
30776W        W37376   8.593   5.734   4.118 -0.1418 -0.0346  0.0882
30777W        W37377  12.052   2.158  25.416  0.1218  0.2153 -0.1505
30778W        W37378   1.814   0.167   3.641  0.0055  0.1894 -0.2344
30779W        W37379  28.399   4.052  18.253 -0.0323  0.1969  0.3255
30780W        W37380   2.690   3.187  18.871 -0.1500 -0.0066 -0.0342
30781W        W37381  11.678   4.341   6.121  0.0787 -0.4133 -0.2348
30782W        W37382   1.742   1.518  15.835 -0.0578 -0.0180  0.2208
30783W        W37383  27.634   3.891   6.292  0.1937 -0.0341  0.0091
30784W        W37384  24.445   1.543  24.353 -0.0824 -0.3244 -0.2912
30785W        W37385  25.426   6.927  16.301  0.1574 -0.1210  0.1114
30786W        W37386  17.525   3.267   3.360  0.1057  0.0477  0.3447
30787W        W37387  21.069   2.750  19.460 -0.1590 -0.0857 -0.2598
30788W        W37388  16.388   5.791  16.050 -0.2171 -0.2880 -0.1358
30789W        W37389   6.974   7.805  18.216  0.2011  0.1755 -0.1468
30790W        W37390  26.873   5.827  19.252  0.0902 -0.0772  0.0310
30791W        W37391  25.825   4.897   3.830 -0.0175  0.1515  0.2364
30792W        W37392  25.757   2.063  16.683  0.2198  0.0726 -0.0845
30793W        W37393   5.196   5.049   2.010 -0.3672  0.1943 -0.0813
30794W        W37394  26.842   6.425  24.176 -0.0745  0.0218 -0.1484
30795W        W37395  30.501   6.919   3.126  0.1545  0.0886 -0.1269
30796W        W37396  28.057   6.837  24.490  0.0937  0.3535  0.2249
30797W        W37397  23.732   5.489  20.623 -0.2776 -0.2032  0.2217
30798W        W37398  20.623   4.428  19.944  0.1522 -0.3244 -0.3391
30799W        W37399  24.985   7.370  17.253 -0.0010 -0.1041 -0.1633
30800W        W37400   9.593   1.081  25.713 -0.1126 -0.2058 -0.1673
30801W        W37401   4.437   3.496  19.096  0.2607  0.1044 -0.1466
30802W        W37402   9.964   6.336  16.774  0.1364 -0.2042 -0.1724
30803W        W37403  15.122   1.249   8.088 -0.1168 -0.1212 -0.0136
30804W        W37404  30.816   7.155  11.434  0.2388  0.0186  0.0602
30805W        W37405  24.694   1.532   7.426 -0.1019 -0.3027 -0.1826
30806W        W37406   0.234   3.013  21.488  0.1871 -0.2895  0.0175
30807W        W37407  12.828   1.947  16.951 -0.0884 -0.0129 -0.2749
30808W        W37408   6.164   1.414  23.192  0.0775  0.3990 -0.2616
30809W        W37409  22.661   6.168   6.297  0.3801 -0.0045  0.1971
30810W        W37410  14.565   4.813   0.675 -0.2055  0.1112 -0.1655
30811W        W37411   4.092   3.064   9.112  0.1569 -0.2854  0.1923
30812W        W37412  28.323   4.625   1.054 -0.0479  0.2048 -0.0445
30813W        W37413  28.438   2.364   4.987 -0.0207 -0.0267  0.0902
30814W        W37414  17.201   1.736   0.037 -0.1227 -0.0163 -0.1693
30815W        W37415   7.547   0.751   2.608 -0.2108 -0.1727  0.3868
30816W        W37416  13.463   2.078  22.187  0.0666 -0.0529 -0.0387
30817W        W37417  17.000   2.987   9.215  0.0320  0.0401 -0.1058
30818W        W37418  29.084   1.437   6.457  0.0446 -0.2121 -0.2141
30819W        W37419  26.317   1.047  24.915 -0.1097 -0.3752  0.0702
30820W        W37420   8.775   4.796  20.708 -0.1297 -0.0074  0.1561
30821W        W37421   3.252   6.700   2.508  0.0732 -0.1142 -0.4128
30822W        W37422  11.605   1.598   9.226  0.1839  0.0097  0.1102
30823W        W37423   3.250   7.677  20.803 -0.0275  0.0316  0.0550
30824W        W37424  19.488   6.997  19.067 -0.1368  0.2752 -0.0869
30825W        W37425  30.134   4.441   4.229 -0.0640  0.3905  0.2167
30826W        W37426  30.878   6.057  20.033  0.2038  0.0376  0.1197
30827W        W37427  21.314   1.041  25.988  0.0438 -0.1534  0.2945
30828W        W37428  10.482   5.891  14.676  0.1472 -0.0640  0.1941
30829W        W37429  30.200   2.089  25.627  0.1762  0.1411  0.0291
30830W        W37430  13.995   0.452  17.842  0.1394 -0.1352 -0.0290
30831W        W37431  26.288   6.399  18.001 -0.0582 -0.0767  0.1567
30832W        W37432  15.899   4.887  20.101  0.1884  0.0308  0.0814
30833W        W37433   4.351   5.048   4.627 -0.0386 -0.2684 -0.1581
30834W        W37434   3.695   5.191   4.539 -0.0567  0.0241  0.1210
30835W        W37435  21.270   0.697   1.911 -0.1556 -0.1802 -0.0922
30836W        W37436  20.971   1.871  23.838 -0.2949  0.1691 -0.0551
30837W        W37437  24.016   5.326  16.360 -0.1435  0.0823 -0.1583
30838W        W37438   0.127   0.221  19.467 -0.0497  0.0059 -0.0249
30839W        W37439   2.225   4.917  11.152 -0.0684  0.0929 -0.0475
30840W        W37440  28.452   3.768  18.745  0.0594 -0.0781 -0.1822
30841W        W37441   2.954   2.804   9.112  0.0535  0.2562 -0.0802
30842W        W37442   1.258   3.794   6.758  0.3617 -0.0528 -0.1742
30843W        W37443  19.314   1.286  17.556 -0.1102 -0.3237  0.0758
30844W        W37444  21.246   4.705  10.904  0.1527  0.2208  0.0474
30845W        W37445  13.091   0.036   8.938  0.1048  0.0205 -0.0494
30846W        W37446  25.396   3.910   9.830 -0.0310 -0.2868  0.0693
30847W        W37447  30.334   3.456  16.913 -0.1213  0.0613  0.0771
30848W        W37448  17.482   7.208   4.027  0.1616  0.3143  0.1195
30849W        W37449  13.189   6.006   0.558  0.3382  0.0958  0.0344
30850W        W37450   3.590   4.541  25.531 -0.0273 -0.3399  0.0438
30851W        W37451  29.316   6.235  19.800  0.1895  0.1975  0.2025
30852W        W37452  28.009   5.055   7.193  0.1516 -0.1905  0.0819
30853W        W37453   0.669   3.177  20.273 -0.2236 -0.0661  0.3014
30854W        W37454  24.163   1.837   9.932 -0.0386  0.1491 -0.1152
30855W        W37455  29.030   1.929   1.334  0.0526  0.3713  0.1675
30856W        W37456   6.773   6.270   6.711  0.1884  0.0527  0.2217
30857W        W37457  14.407   5.029   9.627  0.0613  0.2050 -0.0222
30858W        W37458  28.141   1.660  15.907 -0.1901 -0.2568 -0.0231
30859W        W37459   2.483   3.387  19.318 -0.0645 -0.2134  0.0242
30860W        W37460  29.734   2.459   3.064  0.2304 -0.1561  0.1713
30861W        W37461  11.991   5.203   0.901  0.2945  0.1659 -0.1583
30862W        W37462  19.625   1.644   3.038  0.0179 -0.3532 -0.2220
30863W        W37463  29.527   4.614   4.988 -0.1765 -0.0695 -0.1591
30864W        W37464   7.231   7.436  20.528 -0.2255 -0.1276  0.2348
30865W        W37465   2.201   1.331  23.156  0.3115  0.0834 -0.4025
30866W        W37466  20.195   5.437  19.470  0.0507 -0.1584  0.0796
30867W        W37467  11.589   4.475  20.518 -0.0450 -0.1911  0.0266
30868W        W37468  12.300   7.295  18.298 -0.0631  0.0720 -0.4274
30869W        W37469  18.819   2.596  22.216 -0.0725  0.0461 -0.0480
30870W        W37470  15.355   7.264   9.860 -0.1990 -0.0777 -0.0104
30871W        W37471  23.295   7.779   9.881  0.1152 -0.0210 -0.4384
30872W        W37472  29.977   3.271   7.798 -0.2321 -0.0086  0.3374
30873W        W37473   3.173   0.931  20.389 -0.0550  0.1606 -0.3800
30874W        W37474  23.477   5.829   8.940 -0.1826  0.0372  0.2109
30875W        W37475  29.466   5.221  23.515  0.0571 -0.1267 -0.0331
30876W        W37476  23.534   7.159  20.624 -0.1259 -0.0044 -0.0859
30877W        W37477  24.092   0.140   8.310  0.0594  0.1343 -0.2032
30878W        W37478  27.940   5.843  16.360  0.1374  0.0309  0.2165
30879W        W37479  31.257   7.648  10.078 -0.0235  0.0752 -0.1354
30880W        W37480  12.028   6.631  25.640  0.0511  0.0825  0.0935
30881W        W37481  14.125   7.376  21.893 -0.0136 -0.2159  0.4276
30882W        W37482  15.104   5.915   8.897  0.0679 -0.3009  0.1069
30883W        W37483   4.636   5.228  18.990 -0.0022  0.3801  0.1468
30884W        W37484   1.884   1.364   0.867 -0.0613 -0.0580 -0.2094
30885W        W37485   3.510   3.544  18.127 -0.1324 -0.0069  0.0725
30886W        W37486  11.601   0.019   1.900  0.0744  0.2716  0.0432
30887W        W37487   9.977   0.795  11.038  0.0460  0.1291  0.2755
30888W        W37488   5.961   7.637  24.796  0.1488 -0.3575  0.1854
30889W        W37489  20.877   7.350  19.151  0.0736  0.0372 -0.0432
30890W        W37490  11.494   2.700  25.009  0.3117 -0.2058 -0.4223
30891W        W37491  27.644   2.979  24.134  0.1277  0.4472 -0.2651
30892W        W37492  28.092   0.488  19.200  0.1160  0.0778  0.3357
30893W        W37493  22.347   0.951  19.651  0.0705 -0.2485  0.2516
30894W        W37494  12.362   6.665  23.645  0.1277 -0.0869 -0.0067
30895W        W37495  15.019   5.788   5.204  0.0950  0.0000 -0.3266
30896W        W37496  23.994   6.461   0.835 -0.0936 -0.0327 -0.2238
30897W        W37497  15.681   4.905   6.966  0.3809 -0.0402  0.1035
30898W        W37498  28.886   4.316  10.122  0.1516 -0.0772 -0.2821
30899W        W37499  25.351   3.186   9.570  0.0565  0.1361 -0.0341
30900W        W37500  29.918   4.924   7.275  0.0538  0.1433 -0.0344
30901W        W37501  29.729   5.478  22.163 -0.2372  0.1666 -0.1262
30902W        W37502   6.283   1.892  15.504  0.1022  0.0143 -0.3077
30903W        W37503  16.386   4.009  20.341 -0.1541  0.1642  0.1313
30904W        W37504   6.808   2.861  21.099 -0.0534 -0.0224  0.0052
30905W        W37505   1.988   2.564   5.244 -0.0876  0.0985 -0.3214
30906W        W37506   7.039   7.402   0.179 -0.1872  0.2999  0.0359
30907W        W37507  24.466   3.008  21.219  0.0648  0.2108 -0.0428
30908W        W37508  25.324   4.104  17.534 -0.0629  0.0959 -0.2770
30909W        W37509  14.701   7.529   5.087  0.0003  0.2114 -0.0574
30910W        W37510  10.894   0.501   8.069 -0.0712 -0.0332 -0.2114
30911W        W37511  27.431   2.798   6.550 -0.0894  0.1544  0.0448
30912W        W37512  27.163   3.262   8.113 -0.0647 -0.0099  0.1054
30913W        W37513  15.048   4.461  26.037  0.0165  0.3324 -0.1225
30914W        W37514  27.869   5.529  22.785  0.1760 -0.1983  0.0180
30915W        W37515   1.036   0.203   5.603 -0.0779  0.1978  0.0774
30916W        W37516   9.281   2.883  19.484  0.3344  0.1767 -0.3671
30917W        W37517   3.208   1.531  15.404  0.1245 -0.1189  0.3081
30918W        W37518  24.235   1.343   4.293  0.0533 -0.0908 -0.0295
30919W        W37519  26.062   0.586   3.762  0.0520  0.0993 -0.1161
30920W        W37520  10.096   1.233  26.145 -0.1748  0.0367 -0.0335
30921W        W37521   1.927   0.883  17.903  0.0547 -0.0653 -0.0653
30922W        W37522  10.164   5.680   7.794  0.1892 -0.1899  0.1578
30923W        W37523  24.143   0.646  18.786 -0.3779 -0.1952  0.0228
30924W        W37524   4.115   3.879  22.559 -0.1372  0.0251 -0.2790
30925W        W37525  16.076   3.562  15.057 -0.1126 -0.0823 -0.0541
30926W        W37526  12.783   0.817  18.039  0.0219  0.0483  0.0154
30927W        W37527  30.758   3.018   1.340 -0.0786  0.0311  0.0087
30928W        W37528  18.513   6.240  26.015  0.0178 -0.0119  0.2154
30929W        W37529   0.113   1.771   1.898 -0.2541  0.0997 -0.1567
30930W        W37530  16.992   3.757  20.124 -0.0493 -0.0212  0.2143
30931W        W37531   5.739   5.992   1.077  0.0156 -0.2410 -0.1374
30932W        W37532  19.118   5.807  21.089 -0.1342 -0.1257  0.0932
30933W        W37533   3.942   4.006   1.730 -0.0291 -0.0673  0.0958
30934W        W37534  20.702   7.539  18.639  0.4772 -0.0463  0.1026
30935W        W37535  23.378   4.769   7.395  0.0736 -0.0651  0.0433
30936W        W37536  15.426   0.284   4.528 -0.1006  0.2302  0.0789
30937W        W37537   1.138   7.277  16.806  0.2099 -0.0217  0.1009
30938W        W37538  21.393   6.834   3.978  0.0753  0.1458 -0.4622
30939W        W37539  18.494   4.885  16.695 -0.0393 -0.2080  0.0749
30940W        W37540  11.650   0.320   5.182 -0.0397  0.1113  0.2171
30941W        W37541  13.017   3.297  17.043  0.1138  0.0442 -0.1366
30942W        W37542  28.328   0.545  17.679  0.0406 -0.3388 -0.0975
30943W        W37543  23.216   1.621   7.226 -0.0960  0.1129  0.2406
30944W        W37544  20.119   7.294  25.736  0.0589 -0.0101  0.0931
30945W        W37545  16.891   4.730  19.909  0.1813 -0.5271 -0.1577
30946W        W37546  17.210   2.348   5.531  0.2486  0.3899  0.0042
30947W        W37547   0.631   2.582   6.341  0.0136  0.3559 -0.0497
30948W        W37548  16.424   4.481  22.855 -0.0239  0.3175  0.0187
30949W        W37549  14.830   1.744  25.774 -0.1845  0.1197 -0.0540
30950W        W37550   0.104   7.731  21.239 -0.0075 -0.0214  0.0351
30951W        W37551  15.240   0.128  19.121 -0.4186  0.0003 -0.3487
30952W        W37552  27.202   0.612   8.911 -0.1451  0.3089 -0.1171
30953W        W37553  13.939   3.414  21.188  0.5406 -0.0073 -0.0171
30954W        W37554  18.784   2.814  23.460  0.2884  0.0742  0.0614
30955W        W37555  14.108   4.572  26.184 -0.0904 -0.1901 -0.0864
30956W        W37556  20.097   5.645  20.764  0.2014 -0.0738  0.1257
30957W        W37557   8.474   7.140  19.637  0.1050  0.0011  0.0320
30958W        W37558   8.184   5.967  10.205 -0.0685 -0.1141  0.0115
30959W        W37559  24.462   6.278   0.947  0.2168  0.2542 -0.2325
30960W        W37560   8.868   0.604  21.096  0.1409 -0.4434 -0.1304
30961W        W37561  29.354   1.132   2.550  0.1350 -0.0881  0.2548
30962W        W37562  31.166   7.561  20.717  0.0706 -0.0022 -0.0229
30963W        W37563   9.781   4.009   5.401  0.0023  0.1738  0.0546
30964W        W37564  29.875   5.491   1.921 -0.0798  0.1635 -0.0774
30965W        W37565   7.658   3.181  20.706 -0.2313  0.3694 -0.2715
30966W        W37566  21.220   2.351   1.396 -0.2415 -0.0779 -0.0931
30967W        W37567  17.212   3.077   4.169  0.1186 -0.0814  0.2996
30968W        W37568  24.104   1.582  22.319  0.1451  0.0063 -0.2205
30969W        W37569  14.427   0.480  21.048 -0.0497  0.1774  0.3413
30970W        W37570   0.161   3.734  16.737 -0.0325 -0.1061  0.1442
30971W        W37571  28.439   2.590   3.261 -0.0050 -0.2227 -0.2286
30972W        W37572  29.748   0.106  23.822  0.0754 -0.0738 -0.1462
30973W        W37573   5.570   0.485   1.427  0.1147 -0.1383 -0.1608
30974W        W37574  14.034   7.110  18.229  0.1480 -0.1550  0.0078
30975W        W37575  11.764   5.760   2.321 -0.0446  0.1193 -0.2611
30976W        W37576  26.829   0.769  20.204 -0.1798  0.1329 -0.0192
30977W        W37577   3.984   0.783  24.382  0.0164  0.1539 -0.0890
30978W        W37578   4.150   7.242   7.594 -0.0456 -0.0796 -0.1660
30979W        W37579  16.172   0.308   9.781 -0.2764 -0.1158  0.1190
30980W        W37580  14.649   7.296  25.044 -0.2154  0.0590  0.1572
30981W        W37581   9.614   5.402   5.500  0.1700  0.3065  0.1921
30982W        W37582  20.725   6.882  20.110  0.0638  0.1653  0.1680
30983W        W37583   2.232   3.413  21.593  0.1681  0.0579  0.0099
30984W        W37584  29.930   4.162  20.939  0.2011 -0.0604  0.3032
30985W        W37585  22.362   2.271   5.212 -0.0771 -0.4655  0.1633
30986W        W37586   4.447   1.607   3.451  0.0410  0.1221  0.1786
30987W        W37587  27.398   7.241   8.808  0.0563 -0.0469  0.2846
30988W        W37588  20.939   1.868   4.863  0.0346 -0.1396  0.0685
30989W        W37589   7.666   3.958  24.662  0.3128 -0.3042  0.0601
30990W        W37590   6.255   4.227   4.825 -0.0160  0.2766  0.0413
30991W        W37591  30.873   2.285   6.344 -0.1282 -0.0941 -0.0412
30992W        W37592   7.786   1.875  22.977 -0.0370  0.0570 -0.3066
30993W        W37593  29.952   2.360  11.610 -0.5688 -0.4831 -0.0418
30994W        W37594  28.684   5.647  24.859 -0.1204 -0.2439 -0.1769
30995W        W37595  14.690   6.844   8.105 -0.1205  0.1656  0.1933
30996W        W37596  18.820   0.705  24.940  0.4601 -0.0017 -0.0235
30997W        W37597  22.443   7.327   3.975 -0.0269  0.0667  0.3408
30998W        W37598   8.387   2.702  26.124  0.2055  0.1527 -0.2630
30999W        W37599   7.823   6.804   9.292 -0.1766  0.0408  0.2041
31000W        W37600   5.791   1.483  25.504 -0.1690 -0.1144  0.2058
31001W        W37601   5.093   3.493   6.550 -0.1177  0.0627 -0.0077
31002W        W37602   8.674   6.161  10.223  0.0651 -0.1755  0.0898
31003W        W37603   4.163   2.500  19.343 -0.1801  0.1558 -0.4285
31004W        W37604  30.273   7.211   7.856 -0.0816  0.3136  0.0877
31005W        W37605  22.806   3.891  22.356  0.1182  0.0452 -0.2953
31006W        W37606  25.582   2.019  15.140 -0.0174 -0.0216 -0.1258
31007W        W37607  15.032   5.573  21.531  0.2720 -0.0541  0.0047
31008W        W37608  11.912   2.789   8.704 -0.2466  0.1867 -0.1226
31009W        W37609  30.151   3.916   5.377 -0.1480  0.1199  0.3626
31010W        W37610  26.671   2.835  20.446 -0.1015  0.0973 -0.0160
31011W        W37611  22.972   5.700  16.385  0.0896  0.0998  0.2041
31012W        W37612  16.407   1.029  17.332  0.0111  0.2761 -0.0940
31013W        W37613  26.285   3.510   5.423  0.3194 -0.1135  0.1131
31014W        W37614  12.257   1.440   3.765 -0.1178  0.1166 -0.0595
31015W        W37615  25.876   4.781  17.683  0.0835 -0.0913  0.0828
31016W        W37616   8.536   2.369   8.614 -0.3489 -0.0528 -0.0540
31017W        W37617  11.231   2.700   7.547 -0.0144  0.0578  0.0232
31018W        W37618   5.813   0.515  20.555 -0.0242 -0.1304 -0.1509
31019W        W37619  30.264   0.913   7.066  0.1453 -0.0469  0.3438
31020W        W37620   9.121   5.482  14.748  0.0115  0.3098 -0.1344
31021W        W37621   9.335   4.853  23.653  0.0586 -0.0261  0.1345
31022W        W37622  16.339   1.734   1.970  0.0831 -0.2883 -0.0626
31023W        W37623  24.721   0.107   7.093  0.3507 -0.1877  0.2761
31024W        W37624  12.176   0.962  25.997  0.0467 -0.4200 -0.2372
31025W        W37625  23.952   5.097  10.158  0.2779  0.1122 -0.0838
31026W        W37626   5.315   7.059  21.426  0.0688 -0.0368  0.0793
31027W        W37627  30.089   1.221  16.485 -0.0842  0.0077 -0.0403
31028W        W37628  23.741   7.528   9.154 -0.1281  0.1183 -0.0363
31029W        W37629   3.934   5.003   0.718  0.2572  0.0468 -0.2094
31030W        W37630  10.706   0.727   7.566 -0.2595 -0.0735 -0.1212
31031W        W37631  21.047   3.266  26.028  0.0588 -0.1605 -0.2589
31032W        W37632   0.304   2.743  25.244 -0.0662  0.1924 -0.1455
31033W        W37633  16.331   1.285  25.570 -0.2022  0.0253 -0.0119
31034W        W37634  24.842   6.171   6.930 -0.2647 -0.3128  0.0993
31035W        W37635   9.047   6.201  24.104 -0.1387 -0.0673 -0.0821
31036W        W37636   1.406   5.936  20.622  0.1792 -0.0715 -0.1890
31037W        W37637  12.964   4.721   4.983 -0.0864 -0.0971 -0.1092
31038W        W37638   9.319   6.990   9.381  0.1014 -0.2765  0.5356
31039W        W37639  15.961   4.434   8.190 -0.0943  0.2816 -0.0310
31040W        W37640  20.938   5.640  24.273  0.0743 -0.0030 -0.3251
31041W        W37641  22.140   0.723   2.595  0.0532  0.2157  0.0166
31042W        W37642  23.842   4.585  15.821  0.4125  0.0216 -0.0118
31043W        W37643  22.557   5.378   2.252  0.0825 -0.0300  0.3029
31044W        W37644   4.503   1.799  25.381 -0.5481 -0.0320 -0.2413
31045W        W37645  10.062   0.311  24.895 -0.0965  0.1111 -0.1723
31046W        W37646   6.378   0.614   6.766 -0.1431  0.0999  0.0159
31047W        W37647  23.636   0.878  16.005 -0.0191  0.1533 -0.1128
31048W        W37648  13.189   1.123   7.327 -0.3662  0.1568 -0.1448
31049W        W37649   8.665   1.817  23.180 -0.1525  0.2040 -0.1352
31050W        W37650  19.445   2.351  22.823  0.0399 -0.1386 -0.1770
31051W        W37651   7.570   7.271   8.137  0.1126 -0.1785  0.0480
31052W        W37652  27.944   4.134  17.594 -0.0816  0.2401  0.1278
31053W        W37653  30.367   6.822   5.795  0.1867 -0.0666 -0.0723
31054W        W37654   8.550   6.942  14.701  0.1708 -0.3634 -0.0327
31055W        W37655   0.262   2.001   8.870 -0.0090  0.3919  0.3276
31056W        W37656  23.862   1.566  24.055  0.1042 -0.0838  0.1333
31057W        W37657   5.750   6.926   4.599  0.0283  0.1913 -0.0895
31058W        W37658   1.707   3.069   6.219 -0.2207  0.0973 -0.1204
31059W        W37659   6.563   7.752   9.221 -0.1586 -0.1456 -0.0579
31060W        W37660  19.871   4.944  24.086  0.0733  0.0686  0.2588
31061W        W37661  30.588   7.125   8.890  0.1045  0.2716  0.1742
31062W        W37662  14.447   5.374   9.169 -0.3150  0.2448  0.2655
31063W        W37663  13.823   2.021  19.324 -0.2262 -0.0181 -0.2906
31064W        W37664  18.755   3.852   9.183 -0.1228 -0.0770 -0.2298
31065W        W37665  22.265   5.849   1.120 -0.1223 -0.0886 -0.1823
31066W        W37666  10.900   1.569  22.423  0.1787 -0.1148 -0.3610
31067W        W37667   7.398   4.891  21.237  0.0709 -0.0652  0.2357
31068W        W37668  25.000   0.133  10.000  0.0494 -0.0612 -0.2036
31069W        W37669  11.441   7.122  20.900  0.2817 -0.0590 -0.0895
31070W        W37670   1.906   4.986   5.854 -0.2295  0.2528 -0.0735
31071W        W37671   3.875   1.210  18.821 -0.2490  0.1361  0.1204
31072W        W37672  22.278   7.414  26.059 -0.1806 -0.0182 -0.2247
31073W        W37673  23.727   4.007  24.095 -0.1702 -0.0576 -0.0513
31074W        W37674  11.152   6.612   6.112 -0.0341  0.0330 -0.1273
31075W        W37675  11.490   6.669  20.278 -0.0540  0.0335  0.1507
31076W        W37676  22.237   1.421  23.483 -0.0821 -0.0442 -0.0173
31077W        W37677  23.458   2.163   0.545  0.0686  0.1200 -0.3419
31078W        W37678  20.976   7.535   8.528 -0.1878  0.1137  0.2125
31079W        W37679  16.809   0.794   5.032  0.0372  0.2618 -0.0278
31080W        W37680  13.662   0.489  15.331 -0.3576  0.0808 -0.1245
31081W        W37681  16.220   5.676   3.998 -0.0942  0.0707 -0.1574
31082W        W37682  28.171   5.176   3.637 -0.0377 -0.0562 -0.0170
31083W        W37683  14.063   6.844   0.759  0.1136  0.2502 -0.0427
31084W        W37684  24.526   1.429   9.995 -0.1038  0.0090 -0.3453
31085W        W37685  26.292   7.050   7.329 -0.0967 -0.1095  0.0194
31086W        W37686   4.531   3.520  10.416  0.2307 -0.0703 -0.0375
31087W        W37687  30.868   0.596  22.782  0.3278  0.1867 -0.2427
31088W        W37688  15.635   1.653  26.130  0.3373  0.0180  0.1188
31089W        W37689  28.254   6.251  10.165 -0.1168  0.1567  0.0898
31090W        W37690  22.108   2.595  19.573  0.1711  0.0027 -0.0099
31091W        W37691  24.451   2.815   3.777 -0.2006 -0.0562 -0.1175
31092W        W37692  14.326   0.479   6.857  0.1196  0.0930  0.1004
31093W        W37693  30.976   5.937   4.984 -0.1596  0.1321  0.3391
31094W        W37694   6.622   3.750  22.188 -0.0756  0.1557 -0.2648
31095W        W37695   8.905   5.776  20.401 -0.0013 -0.1050 -0.0809
31096W        W37696  11.624   6.697  25.921  0.0384 -0.0728  0.0636
31097W        W37697  18.090   7.524   1.494 -0.0479  0.0342  0.2409
31098W        W37698  13.002   2.473   9.348  0.1475  0.0412 -0.1240
31099W        W37699  16.227   0.961  21.313 -0.0436 -0.3993  0.1026
31100W        W37700   4.427   6.091  24.931 -0.2488 -0.2784 -0.0540
31101W        W37701  31.180   2.878  16.901 -0.0167 -0.2665  0.1427
31102W        W37702   8.857   7.780  23.995  0.1679  0.0782 -0.0957
31103W        W37703  16.574   3.067  21.622 -0.1251  0.1626  0.1627
31104W        W37704   2.150   5.410   0.037 -0.1442 -0.0729  0.1640
31105W        W37705  27.689   6.250   6.429  0.1472  0.1524 -0.0663
31106W        W37706  17.446   3.239  23.736  0.1598 -0.0144 -0.1341
31107W        W37707  27.299   1.672  22.861  0.0284 -0.2032  0.3238
31108W        W37708  11.827   5.944   8.424  0.1701 -0.0736  0.0287
31109W        W37709  20.243   2.735   8.630 -0.0093  0.3256 -0.1312
31110W        W37710   0.307   0.461   8.036  0.0107  0.1375 -0.0969
31111W        W37711  22.919   0.286  18.417 -0.4930  0.0600 -0.1462
31112W        W37712  18.260   0.394  18.285 -0.0979 -0.0257  0.2643
31113W        W37713  26.466   5.122  25.129 -0.1773 -0.2124  0.1380
31114W        W37714  28.991   3.463  15.421  0.1771  0.0999  0.1281
31115W        W37715  17.432   4.820   9.069  0.1119 -0.0834 -0.2137
31116W        W37716  17.317   0.864  22.816 -0.3539 -0.0483 -0.2115
31117W        W37717  21.769   5.994  22.344  0.0440 -0.0648  0.2238
31118W        W37718  20.164   3.069  20.287 -0.1273  0.2826 -0.4225
31119W        W37719  18.270   4.758   1.054 -0.1359 -0.0543  0.1643
31120W        W37720  19.540   1.643   8.489  0.1154  0.1976 -0.1807
31121W        W37721   7.698   7.077  15.043  0.2053 -0.4078 -0.0525
31122W        W37722   5.908   4.476  23.472 -0.1987 -0.0216  0.2332
31123W        W37723   4.424   3.226  16.360  0.1865  0.1906 -0.2148
31124W        W37724   1.835   1.576  11.277 -0.0686 -0.0475  0.0560
31125W        W37725  18.030   2.122  17.628  0.3084 -0.0701  0.2950
31126W        W37726  17.697   7.384  24.671 -0.1194 -0.0840  0.1992
31127W        W37727  29.220   1.172   9.189  0.0996  0.0966 -0.1436
31128W        W37728  24.664   5.367  17.935  0.1781 -0.1606 -0.3178
31129W        W37729   1.751   5.594  21.454  0.0553  0.0447  0.1137
31130W        W37730   1.047   7.738   7.752 -0.2611 -0.4789  0.1892
31131W        W37731  13.463   5.230  17.772  0.0107  0.0976  0.1769
31132W        W37732  24.568   2.957  25.613  0.3408 -0.2373 -0.0460
31133W        W37733   4.658   2.800   7.177 -0.3075  0.2012  0.0299
31134W        W37734  15.223   5.328  20.403  0.0592  0.2914 -0.0762
31135W        W37735   0.211   7.817  18.480 -0.1257  0.0670 -0.0808
31136W        W37736  17.482   1.104  19.734  0.0925  0.1272 -0.2119
31137W        W37737  30.571   0.405  16.032  0.0936 -0.3345  0.0250
31138W        W37738  11.587   7.709   8.487 -0.2043 -0.2172 -0.3051
31139W        W37739  25.825   6.706   6.893 -0.3002 -0.0553 -0.1700
31140W        W37740   9.271   4.997   4.565  0.0382 -0.1632  0.0400
31141W        W37741  17.957   1.179   1.232 -0.0370  0.0633 -0.0011
31142W        W37742  28.320   3.296   2.581  0.1345 -0.1893  0.0022
31143W        W37743  15.447   4.816  20.281 -0.0919 -0.0140 -0.2198
31144W        W37744  20.362   1.008  22.138  0.1290 -0.1925 -0.1950
31145W        W37745  16.513   2.322  24.988  0.2421  0.0295 -0.0426
31146W        W37746  29.112   1.420  22.059 -0.1705 -0.3029 -0.1804
31147W        W37747  12.325   7.485   0.952 -0.0162 -0.2134 -0.0181
31148W        W37748   9.485   4.163   2.117  0.2550  0.2000 -0.0171
31149W        W37749  15.518   7.464  24.933  0.0639  0.2372  0.0324
31150W        W37750  17.104   0.844   2.624  0.0193 -0.0399  0.0404
31151W        W37751   0.197   2.643  21.886 -0.0171  0.1748  0.2816
31152W        W37752  19.700   4.650   9.141 -0.1941 -0.1318 -0.1863
31153W        W37753   6.596   0.198   8.287 -0.2733 -0.0620  0.0334
31154W        W37754  29.924   3.422  19.135 -0.0835 -0.1737 -0.1478
31155W        W37755  26.433   3.806  16.914  0.0870 -0.1465 -0.2185
31156W        W37756  30.636   5.787  11.320  0.0911 -0.1445  0.0238
31157W        W37757   2.865   3.178   9.533 -0.3185  0.4147 -0.0843
31158W        W37758  27.865   5.080   4.056 -0.1962  0.0584 -0.0585
31159W        W37759  31.292   1.722  17.495  0.1268  0.0420  0.0658
31160W        W37760   4.890   4.235   6.373 -0.1880 -0.0979 -0.1524
31161W        W37761   0.879   4.888   6.112 -0.0203 -0.2103 -0.0341
31162W        W37762  17.541   5.258   7.173 -0.0668  0.3902  0.0429
31163W        W37763  16.986   1.596  23.704  0.2417  0.4278 -0.0860
31164W        W37764  11.401   6.314   0.481  0.0712 -0.2287  0.2958
31165W        W37765   4.184   0.725   2.516  0.2261  0.2786  0.3922
31166W        W37766  26.514   6.853   3.415  0.0359 -0.0139 -0.0618
31167W        W37767   2.478   2.340   1.028  0.2123 -0.0157  0.2743
31168W        W37768   7.757   6.973  26.151 -0.0009  0.1978  0.0719
31169W        W37769  14.382   7.668  19.506  0.1233 -0.2347 -0.1813
31170W        W37770   7.730   0.056   6.659 -0.0410  0.2156  0.0296
31171W        W37771  19.085   4.625   2.766  0.0749 -0.2905  0.0312
31172W        W37772  15.345   6.838   7.465  0.0370 -0.0577  0.2531
31173W        W37773  11.228   2.369  18.539  0.5393 -0.2524  0.0434
31174W        W37774   8.942   4.095  22.882 -0.0188 -0.0281 -0.1313
31175W        W37775  20.563   5.901   7.026 -0.1205  0.1175 -0.1130
31176W        W37776   7.887   6.418   5.665 -0.0824  0.1137 -0.0188
31177W        W37777  30.600   5.348  19.631  0.1157  0.2909 -0.0449
31178W        W37778  30.153   4.518   7.079  0.1498 -0.0027  0.0548
31179W        W37779  26.177   5.018   9.345  0.1491  0.2519  0.0543
31180W        W37780  26.594   1.626  16.731  0.0511 -0.2886 -0.1265
31181W        W37781  12.402   2.907  21.378 -0.1782 -0.2985 -0.0322
31182W        W37782  11.952   5.655  16.925  0.1061 -0.1322  0.0027
31183W        W37783   6.990   4.121   8.482 -0.0312 -0.0266 -0.0785
31184W        W37784   8.982   6.889   0.541 -0.1325  0.0904 -0.1556
31185W        W37785  24.479   5.870  19.482 -0.3014 -0.0118 -0.0575
31186W        W37786  26.265   5.743   9.919 -0.0174  0.0315  0.3530
31187W        W37787  10.219   4.127   5.608 -0.3041 -0.0555 -0.3514
31188W        W37788   3.160   1.428  20.813 -0.0339  0.0748  0.1074
31189W        W37789  16.098   4.699   2.650  0.3116 -0.0928  0.2766
31190W        W37790  19.336   3.887   5.176 -0.0517 -0.0566 -0.0710
31191W        W37791   5.364   1.238   7.551 -0.2491  0.1307 -0.0554
31192W        W37792  28.615   6.001  16.942 -0.1510 -0.0211  0.0705
31193W        W37793  15.989   2.453  21.698 -0.1462 -0.0578 -0.2158
31194W        W37794   6.644   4.252   0.004 -0.1377 -0.0804  0.1115
31195W        W37795  11.887   1.347  25.741  0.2142 -0.2897 -0.1829
31196W        W37796  17.640   1.603  24.731 -0.0521  0.2913 -0.0071
31197W        W37797   1.372   7.564  16.414  0.0400  0.1016  0.3041
31198W        W37798  20.123   3.535   4.981 -0.2300  0.1547  0.1652
31199W        W37799   1.372   2.357  20.981 -0.2358  0.3602 -0.0115
31200W        W37800  26.533   4.558  21.132  0.4036 -0.1920  0.1224
31201W        W37801  14.784   1.873   4.893 -0.0589  0.2034  0.0600
31202W        W37802   1.858   3.936  16.110 -0.3257  0.4323 -0.3000
31203W        W37803   9.099   5.255  24.451 -0.0103 -0.2399  0.2267
31204W        W37804   0.949   4.457   3.311  0.1858  0.3420  0.4115
31205W        W37805  10.747   6.483  16.271  0.1422 -0.4322 -0.3785
31206W        W37806  10.087   1.719  21.719 -0.0211 -0.2651 -0.3876
31207W        W37807  19.905   4.144   3.397 -0.0927  0.2264 -0.0351
31208W        W37808  25.863   3.922   3.504 -0.2929  0.0112  0.2137
31209W        W37809  10.967   4.733  15.858 -0.2672 -0.0710 -0.0248
31210W        W37810   6.547   3.384  18.329 -0.0024  0.0194 -0.1209
31211W        W37811  10.872   6.702  16.784  0.0471 -0.0707 -0.2072
31212W        W37812  22.779   0.952  17.111 -0.2979 -0.0948 -0.2130
31213W        W37813   5.990   5.765  25.808 -0.1591  0.2371 -0.1107
31214W        W37814   2.044   5.617  17.093 -0.0196  0.1837  0.0539
31215W        W37815  21.693   1.692  15.531 -0.1954 -0.0734 -0.1455
31216W        W37816  26.450   4.366  19.350  0.0788  0.1037  0.1550
31217W        W37817  23.220   4.469   5.656 -0.0093 -0.1804  0.0231
31218W        W37818  12.640   2.752   0.167  0.2025 -0.0632 -0.2715
31219W        W37819  24.405   6.105   7.737  0.0389 -0.1742  0.0680
31220W        W37820  27.947   7.186  21.440  0.0605  0.1019  0.0379
31221W        W37821  28.973   2.015  23.071  0.0320  0.0975  0.0319
31222W        W37822  23.561   4.608   2.179  0.0271 -0.2059  0.1074
31223W        W37823   2.234   6.539  17.117 -0.0261 -0.2940 -0.0309
31224W        W37824   1.480   4.570   7.119 -0.0370 -0.3754  0.1349
31225W        W37825  25.419   0.263  22.969  0.3529  0.0214 -0.3426
31226W        W37826  25.974   4.468  24.071 -0.0733 -0.0183  0.1545
31227W        W37827  15.413   4.112   0.326  0.1773  0.0443 -0.0871
31228W        W37828   6.895   5.951   6.323 -0.2374 -0.1044  0.2896
31229W        W37829  15.517   1.304  24.422  0.1205  0.2398 -0.0989
31230W        W37830  12.233   0.434   9.175 -0.4846  0.1650 -0.0340
31231W        W37831  18.314   3.134  25.897 -0.2420  0.1921 -0.1890
31232W        W37832   9.719   2.496  18.216 -0.3951  0.0430 -0.1906
31233W        W37833  10.884   0.168   7.682  0.1487 -0.0471 -0.2279
31234W        W37834  28.538   0.081   5.471  0.1445  0.0792  0.3514
31235W        W37835  17.000   3.174  25.646  0.3500 -0.2793 -0.2694
31236W        W37836  15.493   4.158  16.289 -0.0514 -0.0182 -0.0869
31237W        W37837  28.736   0.141  24.112  0.1939  0.1222 -0.1365
31238W        W37838  20.725   6.991  23.225 -0.2364  0.1325 -0.0868
31239W        W37839  17.634   1.865  25.850  0.0970 -0.0867 -0.1742
31240W        W37840  29.313   1.288  20.622  0.2930 -0.2040 -0.1519
31241W        W37841  13.536   1.979  26.090  0.0498  0.0400 -0.2049
31242W        W37842  19.180   4.649  25.603 -0.0032 -0.1721 -0.0174
31243W        W37843  13.946   7.328  15.778  0.0385 -0.1580  0.2682
31244W        W37844   6.610   7.152   2.275 -0.2253 -0.0005 -0.1910
31245W        W37845  11.682   3.386  10.341 -0.2509  0.0023  0.1218
31246W        W37846  25.949   3.112  15.552 -0.0670  0.1364 -0.2022
31247W        W37847  11.698   6.261   6.658  0.0742  0.1405  0.1259
31248W        W37848   9.328   1.624  20.161  0.3454  0.1449 -0.0193
31249W        W37849  29.607   2.735  17.727  0.1664 -0.0125  0.0884
31250W        W37850  30.369   4.143  21.715  0.2711  0.0739  0.1728
31251W        W37851  30.153   2.029   2.871  0.0905 -0.0980  0.2854
31252W        W37852  28.941   4.812   7.917  0.0119 -0.2561  0.0126
31253W        W37853  13.209   3.296   7.265  0.2279  0.0641  0.1630
31254W        W37854  16.572   3.225  16.757  0.1734  0.1137 -0.0132
31255W        W37855  21.263   4.505  25.194  0.1674 -0.1943  0.2814
31256W        W37856  27.016   4.362   1.386 -0.0566 -0.2059  0.2364
31257W        W37857  23.179   5.939  17.959  0.1074  0.1263 -0.1630
31258W        W37858  22.351   2.880   5.338 -0.0604  0.0372  0.1292
31259W        W37859  18.759   2.002   9.019 -0.2749  0.2631  0.0659
31260W        W37860  20.542   6.607  25.665  0.0095  0.0230 -0.1183
31261W        W37861  19.066   6.673  20.688  0.0799 -0.3821 -0.3313
31262W        W37862  26.739   0.402   0.793  0.3354  0.1921 -0.0194
31263W        W37863  10.381   2.220   4.168  0.0956 -0.0793 -0.3213
31264W        W37864   7.373   0.360   6.563 -0.2040  0.3517  0.0579
31265W        W37865  19.129   2.565   2.200  0.0681  0.2502  0.2631
31266W        W37866  16.478   2.917  15.598  0.0642 -0.1909 -0.0872
31267W        W37867  18.609   1.220   2.367  0.3002 -0.0589  0.4157
31268W        W37868  23.417   0.377  15.499  0.2543 -0.0747  0.1019
31269W        W37869   8.223   1.515   3.663 -0.0312 -0.0428  0.2044
31270W        W37870  15.842   4.945   0.984  0.0033  0.0711  0.1435
31271W        W37871  10.565   1.111  22.488  0.2002  0.0100 -0.2612
31272W        W37872  11.437   6.251   7.706 -0.0564  0.0123 -0.1735
31273W        W37873   7.191   0.335  10.142  0.0318 -0.2116  0.0047
31274W        W37874   1.122   1.715  25.807  0.1246 -0.2795  0.2367
31275W        W37875   4.699   6.141  26.090 -0.0779  0.0211  0.2938
31276W        W37876   8.810   5.116  21.437 -0.0167  0.6884  0.2560
31277W        W37877  29.342   2.676  18.859 -0.2434  0.2677 -0.0567
31278W        W37878  14.435   5.222  15.152  0.1463  0.0205  0.4317
31279W        W37879  17.233   4.026   7.192  0.0202 -0.1368 -0.1156
31280W        W37880  17.163   3.421  18.603  0.0026 -0.1460 -0.0288
31281W        W37881  26.802   0.715  14.626  0.1443 -0.1396 -0.1309
31282W        W37882  12.223   2.330  10.390 -0.0959  0.0378 -0.4685
31283W        W37883  25.254   1.844  15.959 -0.1265  0.1392  0.1140
31284W        W37884   2.977   3.805   0.585  0.2059 -0.1645  0.0523
31285W        W37885  17.932   5.627  18.561  0.0575 -0.0953  0.1241
31286W        W37886  29.269   4.482  17.678  0.1090 -0.2127 -0.0192
31287W        W37887  24.702   5.422  17.426  0.0070 -0.4913 -0.0203
31288W        W37888   2.742   6.021   8.975  0.0896 -0.2190  0.0572
31289W        W37889  20.592   3.748   0.350  0.2074 -0.0841 -0.1498
31290W        W37890  26.455   2.552  25.181 -0.1462  0.4043  0.0675
31291W        W37891   4.899   2.743  17.214 -0.2578  0.1459 -0.1438
31292W        W37892   8.891   5.765   1.808 -0.0371  0.1349  0.0006
31293W        W37893   7.729   4.129  21.631  0.1564 -0.3352 -0.0632
31294W        W37894   8.443   6.901   2.831  0.1211  0.0645  0.0724
31295W        W37895   2.631   3.470  21.812  0.0042  0.1250 -0.0108
31296W        W37896   2.826   2.802  25.127 -0.0873  0.4477 -0.5661
31297W        W37897  24.402   6.200  20.083 -0.0239 -0.0084  0.1021
31298W        W37898  22.981   5.765  21.198 -0.0893  0.1275 -0.1980
31299W        W37899  27.197   6.561  25.674  0.1072 -0.1279  0.1127
31300W        W37900   9.883   4.542  23.208 -0.1626 -0.1613  0.1263
31301W        W37901  31.138   0.605  19.513  0.1627 -0.1605  0.0683
31302W        W37902   7.169   1.803  24.727  0.2200 -0.0440 -0.1076
31303W        W37903   8.158   7.357  24.483 -0.2454  0.0558 -0.0172
31304W        W37904  11.090   4.191   7.843  0.0102  0.0339 -0.0637
31305W        W37905  30.291   2.277  20.804 -0.1608  0.0640  0.0404
31306W        W37906  23.507   6.189  10.723  0.2405  0.2503 -0.0848
31307W        W37907  14.511   7.022  20.227  0.3482 -0.1219  0.2187
31308W        W37908  19.188   2.610  16.399 -0.1892  0.1852 -0.0260
31309W        W37909   9.336   7.271   8.991  0.3080  0.3898  0.0648
31310W        W37910  31.259   7.350   2.632  0.0055 -0.2624  0.2038
31311W        W37911  12.798   7.209  10.920 -0.2022 -0.0060  0.2930
31312W        W37912  22.126   6.311  16.581 -0.2112 -0.0556 -0.0367
31313W        W37913  29.889   3.078   8.446  0.1640  0.2643 -0.1471
31314W        W37914  28.722   0.707  11.078 -0.1044 -0.3022 -0.1745
31315W        W37915   9.460   3.732   4.271  0.0940  0.0571 -0.0504
31316W        W37916  25.187   5.515   8.800  0.0371 -0.1956  0.0395
31317W        W37917  24.162   1.975  19.785 -0.3768 -0.2117  0.0520
31318W        W37918   8.216   6.583  17.857 -0.0075  0.0788  0.0636
31319W        W37919  10.943   1.074   3.751  0.1218  0.1946  0.1197
31320W        W37920  29.063   5.312  21.585  0.0259 -0.1201  0.0011
31321W        W37921  27.368   6.247   3.283  0.2662  0.0542  0.0037
31322W        W37922  23.188   6.811   9.509  0.0942 -0.0984 -0.1061
31323W        W37923  23.283   3.497   1.048  0.0114 -0.2521  0.0849
31324W        W37924  14.064   0.294  22.694 -0.0415  0.0950  0.1986
31325W        W37925  14.423   1.352   1.257 -0.0246  0.0965  0.0680
31326W        W37926   5.835   1.471  23.599 -0.0067  0.0614  0.1027
31327W        W37927   0.388   3.731   4.089 -0.1501  0.2099  0.0772
31328W        W37928  24.316   4.509  24.003  0.0718  0.3771  0.0128
31329W        W37929   7.029   6.918   5.269  0.0988  0.0638 -0.0804
31330W        W37930  21.825   1.036  19.169  0.0645 -0.3679 -0.0599
31331W        W37931   0.109   3.282   7.796 -0.2317  0.0364  0.0146
31332W        W37932   1.010   6.699  18.700 -0.1042  0.0162  0.0369
31333W        W37933  25.528   5.362  22.458  0.2987  0.3090 -0.2271
31334W        W37934  15.042   0.714  19.819 -0.0515 -0.3688 -0.1037
31335W        W37935   4.135   1.736  20.828 -0.1937 -0.0459  0.0712
31336W        W37936  22.748   5.193  18.318  0.2386  0.0822  0.0215
31337W        W37937  23.920   2.773  16.248 -0.0995 -0.1219 -0.0087
31338W        W37938  20.260   0.019   4.807 -0.1673 -0.0567 -0.1072
31339W        W37939  22.566   7.103  18.482  0.3615 -0.0434  0.2939
31340W        W37940  14.201   7.800  17.279  0.0351 -0.0445 -0.2848
31341W        W37941   1.653   2.791  18.484  0.0879  0.1961  0.1071
31342W        W37942  27.408   4.953   8.643 -0.0384  0.2711  0.0376
31343W        W37943   4.620   4.790  20.294  0.0523 -0.0019  0.0569
31344W        W37944   7.687   2.389  22.970  0.0757  0.0642  0.0980
31345W        W37945  20.885   4.691  20.270 -0.1506  0.0455 -0.0484
31346W        W37946   6.407   2.490  15.996 -0.0159 -0.1770 -0.1622
31347W        W37947  21.096   2.388   6.010 -0.0913  0.1406 -0.2315
31348W        W37948  23.548   3.130   3.404 -0.2216 -0.2707  0.1033
31349W        W37949  14.155   0.800   5.004  0.0087 -0.0845 -0.1112
31350W        W37950  26.441   6.451   2.068 -0.5156  0.3077  0.1988
31351W        W37951  25.324   5.683   4.198  0.0249 -0.0250  0.1531
31352W        W37952  10.862   4.624   9.899  0.0477 -0.2007 -0.0970
31353W        W37953  19.173   4.460  24.062 -0.1674  0.3834  0.1653
31354W        W37954   3.315   6.552  21.236  0.2187  0.1186 -0.0114
31355W        W37955  24.635   1.385  17.355 -0.0728  0.0991  0.0438
31356W        W37956  14.228   5.937   1.971 -0.2846  0.1025 -0.1857
31357W        W37957   6.103   2.403  16.406  0.1313 -0.0591  0.0826
31358W        W37958   7.122   0.550   8.949  0.2807  0.0661  0.0080
31359W        W37959  19.393   2.992  20.760  0.0387 -0.0728 -0.1134
31360W        W37960  28.409   7.051  18.460 -0.0706 -0.3288  0.2891
31361W        W37961  22.224   1.516  22.067  0.0042  0.0381 -0.1960
31362W        W37962   5.292   4.670   8.120 -0.1656  0.1878 -0.1339
31363W        W37963   9.193   6.592   9.824 -0.1549  0.1766 -0.0180
31364W        W37964  13.386   7.637  23.024 -0.1449  0.1430 -0.1232
31365W        W37965  16.153   4.910  22.052 -0.5521  0.0800 -0.0349
31366W        W37966  26.599   4.989  18.831  0.0887  0.2718 -0.1808
31367W        W37967  10.235   7.669   7.224  0.0683  0.0353  0.1028
31368W        W37968  24.769   5.412   9.669 -0.0531 -0.1725 -0.0774
31369W        W37969   0.360   5.467  16.335  0.0467 -0.3999 -0.0296
31370W        W37970  27.118   5.985  22.358  0.1097 -0.1556  0.1538
31371W        W37971  18.156   4.482  19.221  0.1826  0.0549 -0.2235
31372W        W37972  12.637   3.863  19.507  0.1511  0.0809  0.1753
31373W        W37973   6.526   0.186  18.410  0.1330 -0.0773  0.2532
31374W        W37974   5.177   6.522  19.406  0.0311 -0.0551 -0.1408
31375W        W37975  10.830   4.658  18.852 -0.0812  0.1647  0.3284
31376W        W37976  14.475   7.020   4.409 -0.0968 -0.4903 -0.0427
31377W        W37977  16.891   5.716  19.268 -0.0908  0.0431 -0.0765
31378W        W37978  29.775   6.664  20.007 -0.2699  0.1953 -0.0623
31379W        W37979  16.792   0.236  10.265  0.2891  0.2620 -0.2471
31380W        W37980   6.770   4.991   5.864 -0.1944 -0.3193 -0.0861
31381W        W37981  25.439   1.551  24.151 -0.0541  0.2049  0.0879
31382W        W37982   4.091   6.233   6.137 -0.1937  0.4156  0.0436
31383W        W37983   0.183   6.440   4.227  0.0450  0.1818 -0.1430
31384W        W37984  19.843   1.448  21.390  0.1520  0.2300 -0.0585
31385W        W37985  18.515   7.202   3.176 -0.2886 -0.1387  0.2211
31386W        W37986  19.151   3.349  25.768 -0.1600  0.2343 -0.1193
31387W        W37987   7.793   6.933   1.455 -0.1660  0.0108 -0.0564
31388W        W37988  20.017   4.589  24.876  0.3444  0.1321  0.3691
31389W        W37989  13.769   0.201   3.118  0.1129  0.2661  0.1705
31390W        W37990  19.383   7.305   4.602  0.0331  0.0503 -0.0638
31391W        W37991   2.957   5.646   1.179 -0.2711  0.0553  0.1222
31392W        W37992  27.792   2.839   0.482  0.0331 -0.4015 -0.0706
31393W        W37993  26.297   2.237  19.235 -0.0284  0.3328 -0.0869
31394W        W37994   1.017   6.816  19.298  0.0769 -0.0520  0.1656
31395W        W37995   6.691   5.851   8.810  0.1419 -0.0161 -0.0540
31396W        W37996  17.500   2.900  17.665 -0.0281 -0.1758 -0.0642
31397W        W37997  24.434   4.325  17.465  0.0180 -0.1889  0.0046
31398W        W37998   5.642   3.021   9.870 -0.0237 -0.3343 -0.0574
31399W        W37999  26.618   7.066   5.812  0.0074 -0.0255 -0.2780
31400W        W38000  28.044   5.404  17.187 -0.1749 -0.0777  0.2457
31401W        W38001   0.896   5.956  20.907  0.2435 -0.2462  0.0413
31402W        W38002  22.066   3.919  17.866  0.1028  0.1600 -0.2991
31403W        W38003  11.035   3.157  16.262 -0.1268  0.0429  0.0359
31404W        W38004  23.385   4.938  21.421 -0.0128 -0.0626  0.1805
31405W        W38005  10.585   2.276  16.248  0.0094 -0.2007  0.0675
31406W        W38006   7.719   7.714   4.153 -0.0238  0.0507  0.2578
31407W        W38007  18.853   3.769  15.737 -0.2384 -0.2470  0.0189
31408W        W38008  14.848   4.047   9.354 -0.1725  0.0542  0.2680
31409W        W38009  22.651   0.672   0.510 -0.2056 -0.1029 -0.0208
31410W        W38010   0.808   4.420  19.170 -0.0931  0.0509 -0.1379
31411W        W38011   2.214   4.711   9.605 -0.2259  0.3020 -0.3155
31412W        W38012   5.836   5.262  16.639 -0.2220  0.0134 -0.1952
31413W        W38013  24.661   0.732   8.369  0.0038  0.1107 -0.5451
31414W        W38014  16.086   5.413  19.980  0.2518 -0.5432 -0.2241
31415W        W38015   0.067   3.296  11.137  0.0988 -0.0214 -0.0957
31416W        W38016  17.512   0.722  25.043 -0.1034  0.0208  0.1498
31417W        W38017  25.623   3.514  20.709 -0.2472  0.1885 -0.1224
31418W        W38018  12.218   6.757  21.694 -0.1522  0.3810  0.0227
31419W        W38019   5.248   3.728   4.926 -0.0478 -0.1180  0.1043
31420W        W38020  17.520   0.123  21.493 -0.1682  0.0599 -0.1846
31421W        W38021  19.534   3.572   4.867 -0.0514 -0.0006  0.0301
31422W        W38022  19.432   4.501  10.457 -0.1112 -0.0171 -0.1267
31423W        W38023   2.946   5.508  21.883  0.1668 -0.0187  0.0154
31424W        W38024   3.146   4.341  21.961  0.0941  0.1277 -0.1717
31425W        W38025   4.645   1.485  22.199  0.3451  0.2535 -0.0434
31426W        W38026   1.544   3.575  16.611  0.0513 -0.0832  0.1285
31427W        W38027   1.606   0.198   8.606  0.0356  0.0721 -0.1381
31428W        W38028  28.867   6.897  22.723 -0.4294 -0.1140 -0.1705
31429W        W38029  24.343   0.881  14.679 -0.1419  0.3052  0.1096
31430W        W38030  20.440   3.326  18.367 -0.2385 -0.3336  0.2959
31431W        W38031  23.062   7.545   1.162 -0.0873 -0.1353  0.2687
31432W        W38032   7.248   0.299  23.426 -0.1089 -0.0153 -0.0255
31433W        W38033  24.334   0.988   4.658  0.1927 -0.1340  0.0075
31434W        W38034  23.560   0.768   5.433 -0.1717  0.0070 -0.2459
31435W        W38035   5.965   7.677  17.150 -0.0697 -0.0867 -0.1811
31436W        W38036  12.206   1.877  24.324  0.0186  0.0204  0.1344
31437W        W38037  13.384   4.986  16.250 -0.0016  0.1760 -0.1606
31438W        W38038  25.071   0.289   6.740  0.3804  0.3307  0.1318
31439W        W38039  17.222   3.759   8.110 -0.2562 -0.0898  0.0190
31440W        W38040   9.154   0.646  18.599  0.3382 -0.0811 -0.1017
31441W        W38041  26.915   3.064  10.841 -0.0846 -0.0955  0.0947
31442W        W38042  10.475   2.254  23.416  0.2584 -0.3181 -0.2389
31443W        W38043   0.618   6.025   2.504 -0.1465  0.2150 -0.1147
31444W        W38044  14.217   7.439  19.992  0.1283  0.2740  0.1235
31445W        W38045  21.841   6.248   5.083  0.2502  0.1963  0.0365
31446W        W38046  16.402   3.747  21.884 -0.2624 -0.1671  0.0910
31447W        W38047  10.246   6.765  16.172  0.0607 -0.2540  0.0357
31448W        W38048  17.237   0.004   2.210 -0.0527  0.0063 -0.2036
31449W        W38049  17.458   4.750  25.516  0.2784 -0.1159  0.0777
31450W        W38050   6.077   1.001  24.600 -0.2050 -0.1239  0.0381
31451W        W38051  26.572   1.234   9.056 -0.0758 -0.0159 -0.1792
31452W        W38052  18.250   3.020   5.037 -0.2645  0.1912  0.0540
31453W        W38053  10.169   0.010   0.031 -0.1047 -0.0727 -0.1998
31454W        W38054  13.144   5.881  24.181 -0.0689 -0.1351 -0.0658
31455W        W38055  21.104   1.832  15.807 -0.3637  0.0748 -0.1966
31456W        W38056   8.822   5.480   8.481  0.5384 -0.0473  0.2205
31457W        W38057  27.122   1.868  24.011  0.2335 -0.2176  0.0270
31458W        W38058  18.270   1.845  17.067  0.2083 -0.1753 -0.0763
31459W        W38059  30.420   0.270   4.516  0.0275 -0.4052 -0.2232
31460W        W38060  27.902   4.862   6.781 -0.1324  0.2538  0.1637
31461W        W38061  29.409   1.725  11.370  0.3263 -0.0753 -0.0322
31462W        W38062   9.566   7.737  23.238 -0.0116 -0.1202 -0.2010
31463W        W38063   1.715   2.057  24.481 -0.1927  0.1786 -0.0028
31464W        W38064  11.628   3.141   4.562  0.0584 -0.1373  0.1726
31465W        W38065  15.816   1.392  24.038  0.1308 -0.0381  0.0569
31466W        W38066   7.305   3.277   5.320  0.0775  0.1140 -0.4682
31467W        W38067   0.771   6.370  19.524  0.0218 -0.1446  0.0993
31468W        W38068  23.751   7.491   7.559 -0.2460  0.1552 -0.1611
31469W        W38069  22.422   3.705   0.746  0.0539 -0.1350 -0.2718
31470W        W38070   7.489   3.326  21.932 -0.2047  0.2852  0.0590
31471W        W38071   0.129   5.840  22.319  0.0022 -0.0085 -0.2555
31472W        W38072   4.082   6.568   8.074  0.1054 -0.1172  0.1542
31473W        W38073  18.133   1.280  26.116 -0.0176  0.2700  0.1638
31474W        W38074  25.281   3.055  16.984  0.0789 -0.1357  0.0158
31475W        W38075  23.157   0.515  17.868 -0.0552  0.1438 -0.1900
31476W        W38076  23.136   6.385   1.581  0.0328 -0.1638 -0.0746
31477W        W38077  22.321   1.588   6.974  0.1665 -0.1071  0.1501
31478W        W38078  29.868   2.570  20.933  0.0221 -0.2556  0.1350
31479W        W38079   2.734   4.102   1.406  0.1595  0.3511 -0.3415
31480W        W38080  27.160   5.292   5.073  0.1655 -0.0392 -0.2544
31481W        W38081  22.672   2.903  15.422  0.1371  0.0287  0.1378
31482W        W38082   7.833   5.867   9.296  0.1019 -0.1538 -0.0858
31483W        W38083  17.004   5.475   5.414  0.1483 -0.1385  0.3656
31484W        W38084  18.962   2.957  23.964 -0.1212 -0.3615  0.0215
31485W        W38085  28.135   4.466   1.561  0.0908 -0.0964  0.1213
31486W        W38086  14.263   6.087  18.927 -0.2399  0.3403 -0.2145
31487W        W38087  24.856   5.895   0.915 -0.2936 -0.0109 -0.0146
31488W        W38088  21.312   3.851   8.306  0.0359  0.0235 -0.0996
31489W        W38089  15.896   3.698   4.531 -0.1057 -0.0785  0.0017
31490W        W38090   0.275   0.715   4.046  0.0639  0.1539 -0.0878
31491W        W38091  23.818   1.198  25.022  0.1164 -0.2488  0.0953
31492W        W38092  13.726   6.850  24.863 -0.1932  0.0923 -0.2915
31493W        W38093  29.817   2.647   4.843 -0.1140  0.0996 -0.0126
31494W        W38094   6.146   0.793   3.119  0.0316 -0.0774  0.0566
31495W        W38095  29.953   2.756  25.161 -0.3088 -0.0262  0.1208
31496W        W38096   2.043   5.535  11.963 -0.0090  0.2038 -0.0111
31497W        W38097   0.782   2.673   4.701 -0.1671 -0.1202 -0.0671
31498W        W38098  23.066   4.876  22.466 -0.1931 -0.0785 -0.3075
31499W        W38099  12.241   4.967  21.841 -0.0338 -0.1193  0.0986
31500W        W38100  25.442   6.750   1.476 -0.0635 -0.0687 -0.0983
31501W        W38101  15.795   1.827   4.653 -0.1237 -0.0638  0.4153
31502W        W38102  20.530   6.868  23.722 -0.1081 -0.0170  0.0063
31503W        W38103   6.965   1.356  19.223  0.1345  0.0995 -0.0379
31504W        W38104   4.142   2.990  20.170  0.1136  0.3312  0.0832
31505W        W38105  11.993   7.182   0.237  0.2717  0.1649 -0.0489
31506W        W38106  14.036   7.638  20.774 -0.2071 -0.2558  0.0152
31507W        W38107  23.376   3.905  19.649  0.0021 -0.3964  0.1407
31508W        W38108  24.215   1.555   0.574 -0.2721 -0.0267  0.2929
31509W        W38109  10.363   5.006  15.261  0.1050  0.1437  0.0435
31510W        W38110   2.292   3.668   7.740  0.1616 -0.0762  0.0860
31511W        W38111   8.488   5.331   6.336 -0.1067  0.1352  0.0982
31512W        W38112   4.377   7.621   3.222  0.0659 -0.0809  0.0431
31513W        W38113  11.066   3.235  20.829  0.1245 -0.1723  0.1984
31514W        W38114  20.702   4.241  21.388  0.0374 -0.1401 -0.2306
31515W        W38115   3.593   0.464   4.448  0.0225 -0.0840  0.2204
31516W        W38116  23.572   7.388   3.387  0.0385  0.3249  0.1393
31517W        W38117  28.536   5.797   2.160  0.2859 -0.1171  0.0196
31518W        W38118  25.540   7.137  15.450 -0.4614  0.0057  0.1008
31519W        W38119  25.683   3.640  19.748  0.0514  0.1879 -0.0880
31520W        W38120  13.355   3.487   0.178  0.2346 -0.1323 -0.1821
31521W        W38121   3.427   0.151  19.895 -0.0877 -0.0122  0.0739
31522W        W38122  12.803   7.766  19.295  0.1501  0.2541 -0.0464
31523W        W38123  29.038   4.787  20.024 -0.1681 -0.2737  0.1052
31524W        W38124  19.772   0.189   9.644  0.0135  0.0999  0.0594
31525W        W38125   1.704   2.924   6.691  0.1534  0.0978 -0.0248
31526W        W38126  12.649   5.416   2.713  0.1609 -0.0840  0.0843
31527W        W38127   5.422   0.500  18.507 -0.3660 -0.2363  0.2035
31528W        W38128  15.656   4.050  19.198  0.5330 -0.0886  0.0439
31529W        W38129  20.541   4.572   7.669 -0.0734 -0.1253  0.0338
31530W        W38130   9.329   2.016  18.126 -0.0212  0.1781 -0.2073
31531W        W38131   2.284   6.162   0.691 -0.2818  0.0585  0.1873
31532W        W38132  15.296   2.594   4.182  0.0051 -0.3676  0.1808
31533W        W38133   0.558   3.929  17.516 -0.0003 -0.3093 -0.3093
31534W        W38134  18.149   2.661   3.040  0.1416 -0.0197 -0.0317
31535W        W38135   9.433   7.780  10.617  0.0120  0.1557 -0.3329
31536W        W38136  14.797   1.568   2.731  0.0716  0.0340 -0.1119
31537W        W38137   5.563   1.271  25.894 -0.3171  0.0058  0.0050
31538W        W38138  13.617   6.353  17.657  0.1373  0.0863 -0.0247
31539W        W38139  12.265   6.166   8.685  0.1242 -0.3279  0.1875
31540W        W38140  25.134   6.786   0.251  0.1367  0.0340 -0.1379
31541W        W38141  13.735   6.891  16.512  0.0296 -0.0211 -0.1576
31542W        W38142  21.350   2.997  24.912 -0.2189 -0.3866  0.0252
31543W        W38143   9.955   6.268  22.272  0.1147  0.5432  0.3980
31544W        W38144  11.310   1.577  16.068 -0.1471 -0.3707 -0.3169
31545W        W38145   7.399   4.836  22.733  0.0030 -0.0582  0.0701
31546W        W38146   4.780   0.964  24.070 -0.2227  0.0128  0.0525
31547W        W38147  25.212   0.105   2.764  0.0089 -0.1285  0.0011
31548W        W38148  12.927   0.916  19.033  0.2385  0.0627  0.0865
31549W        W38149  13.846   6.195  25.494  0.3913  0.0414  0.1072
31550W        W38150   3.062   4.237   2.534  0.0365  0.1696  0.1250
31551W        W38151  18.264   2.809   9.137  0.1440 -0.4855 -0.1715
31552W        W38152   9.936   1.737  22.707  0.0837 -0.2172  0.0299
31553W        W38153   2.506   3.603  10.625 -0.0928  0.4487  0.0876
31554W        W38154   9.497   4.570  19.888 -0.2608  0.4347 -0.0493
31555W        W38155  29.460   4.880   0.764  0.0213  0.4719  0.0122
31556W        W38156  30.870   4.254   6.559 -0.1508 -0.1396  0.0585
31557W        W38157  15.335   0.821   1.886 -0.1937  0.0300  0.1480
31558W        W38158   3.676   0.573  16.748  0.1272 -0.3796 -0.0329
31559W        W38159   1.191   1.022  18.738 -0.0619 -0.0370  0.0793
31560W        W38160  13.271   6.684   3.936  0.2277 -0.2763  0.1622
31561W        W38161  28.762   4.434   3.120  0.0489  0.0470  0.0945
31562W        W38162  22.835   1.193   0.484  0.0259  0.0714  0.2075
31563W        W38163   3.475   2.860  10.450  0.0469 -0.4551  0.0849
31564W        W38164  31.134   4.376  21.651 -0.0686 -0.2206  0.2347
31565W        W38165  21.026   1.050  18.899  0.1671 -0.0772 -0.0362
31566W        W38166  10.967   0.852  17.754 -0.1304 -0.1201  0.0207
31567W        W38167  19.775   2.596  23.781  0.0897  0.2195 -0.0476
31568W        W38168  25.097   0.292   7.833 -0.0980 -0.0430 -0.2334
31569W        W38169  17.913   6.556  16.099  0.3209 -0.3187  0.0193
31570W        W38170  22.276   0.110   6.664 -0.1096  0.0126  0.0297
31571W        W38171  16.400   1.696   1.449 -0.0207 -0.1835  0.2098
31572W        W38172  17.393   0.120   8.774  0.0630  0.1082  0.0441
31573W        W38173   9.589   7.446   3.134 -0.0793  0.1991  0.0814
31574W        W38174  12.503   0.485  19.483 -0.4421 -0.1475  0.0364
31575W        W38175  28.413   1.766  16.316 -0.0015 -0.0975  0.1714
31576W        W38176  16.864   2.975   0.041  0.1523 -0.0625  0.3061
31577W        W38177   3.326   5.977   4.874  0.0641 -0.2797 -0.0682
31578W        W38178  23.336   6.735  22.209 -0.0867 -0.1514 -0.0432
31579W        W38179  15.676   7.113  11.275 -0.4650 -0.2001 -0.1302
31580W        W38180  29.942   3.605  11.046  0.0621  0.1210 -0.1533
31581W        W38181   0.321   3.327   1.842 -0.4456  0.3947 -0.0833
31582W        W38182  25.554   2.708   7.805 -0.3229  0.1657 -0.2617
31583W        W38183  28.254   1.633  18.721  0.0695 -0.0303 -0.1626
31584W        W38184  27.076   0.998  25.766  0.1711 -0.1603 -0.1815
31585W        W38185  18.638   4.984  14.550 -0.0936 -0.4116 -0.1059
31586W        W38186  16.884   7.191  24.737 -0.1832 -0.0574 -0.0906
31587W        W38187   9.841   7.443   8.879 -0.0036 -0.0569  0.0297
31588W        W38188   0.219   5.346  22.511 -0.0014 -0.1767 -0.1004
31589W        W38189   5.614   5.400  18.791 -0.2514  0.1939  0.2548
31590W        W38190   9.702   5.937   7.178  0.0212 -0.0423 -0.3241
31591W        W38191  27.783   6.561  17.379  0.2461  0.0215  0.1679
31592W        W38192   7.249   7.631   6.524  0.0171 -0.0150  0.1510
31593W        W38193  17.897   4.596  15.558  0.3005 -0.0076  0.0148
31594W        W38194  13.278   6.702  25.492  0.0381  0.0275  0.0516
31595W        W38195   6.291   4.292  21.995  0.1466 -0.2079 -0.3182
31596W        W38196   6.454   3.824  25.469 -0.4466 -0.1879 -0.1275
31597W        W38197  16.334   3.114  24.298  0.0620  0.1049  0.1666
31598W        W38198  27.603   0.016  20.613  0.0239  0.0449 -0.0993
31599W        W38199  15.120   3.874   8.331 -0.1597  0.1994 -0.1623
31600W        W38200   4.091   6.080   2.809  0.2017  0.3843 -0.2708
31601W        W38201  19.789   0.433  19.119  0.1532  0.2217 -0.2994
31602W        W38202  14.254   3.855  19.451  0.3993 -0.0546 -0.0372
31603W        W38203  12.341   7.660   5.718  0.1701  0.0729 -0.0215
31604W        W38204   4.346   4.356  18.458 -0.3539 -0.0986 -0.1357
31605W        W38205  10.010   1.736  15.118  0.0050 -0.1629 -0.0656
31606W        W38206  23.669   2.107   9.989  0.0162  0.0112  0.2337
31607W        W38207   6.997   7.624   6.088  0.0134 -0.2675 -0.0768
31608W        W38208   8.369   0.232   1.988 -0.0201  0.2358  0.0468
31609W        W38209  24.887   7.319   3.428 -0.3232 -0.1584 -0.0788
31610W        W38210   4.170   4.861  21.492 -0.0243 -0.1885 -0.1527
31611W        W38211  29.016   2.449   7.111  0.2200 -0.1084  0.1357
31612W        W38212  22.975   5.227  21.387  0.0589  0.2283 -0.0844
31613W        W38213  17.989   7.223   2.196 -0.0782 -0.1474 -0.0119
31614W        W38214   4.081   7.635  24.393  0.0436 -0.0679  0.2136
31615W        W38215  26.311   3.700  23.443  0.1415 -0.2207  0.0619
31616W        W38216  11.726   4.203  19.387  0.3518  0.3350  0.0334
31617W        W38217   7.842   1.592  18.162  0.0607  0.0598 -0.1904
31618W        W38218  27.670   1.149   6.459  0.1326 -0.0023 -0.0093
31619W        W38219   4.146   6.325   3.989 -0.1134  0.2792  0.1437
31620W        W38220   2.559   0.389   9.684  0.1424  0.0887  0.0283
31621W        W38221  12.770   7.425  18.913 -0.1049  0.3993 -0.0505
31622W        W38222  17.225   4.281   7.634  0.2251 -0.0256  0.1280
31623W        W38223  12.225   4.007   5.985  0.0602  0.0112  0.0184
31624W        W38224  17.536   5.789  22.534  0.0370 -0.0104 -0.5254
31625W        W38225  26.506   0.154  21.060 -0.0411 -0.3093 -0.0201
31626W        W38226  18.660   4.981  22.168 -0.0220 -0.1117  0.1183
31627W        W38227  27.293   0.446   8.404  0.1704  0.1800 -0.0520
31628W        W38228   5.375   1.473   6.269 -0.1987  0.0957 -0.0098
31629W        W38229  28.972   4.384  19.226  0.2524  0.0858  0.2471
31630W        W38230  30.362   7.281  22.788  0.4681 -0.0776  0.5629
31631W        W38231   2.961   5.421   5.552 -0.0997  0.1524  0.4138
31632W        W38232   3.026   0.769   0.768 -0.0120  0.0500 -0.0773
31633W        W38233  28.508   0.665  18.662  0.0025  0.3252  0.2424
31634W        W38234   8.897   1.762   9.825 -0.1423 -0.1357  0.1474
31635W        W38235   6.973   5.649   3.319  0.0091 -0.0326  0.0622
31636W        W38236  16.359   0.651   4.906 -0.1215 -0.0348 -0.0530
31637W        W38237   8.151   0.628  10.660 -0.1644 -0.0252 -0.0366
31638W        W38238  26.011   1.347   8.623  0.0831  0.1214  0.0963
31639W        W38239  15.291   6.296   8.319 -0.1874 -0.3391  0.2274
31640W        W38240   7.331   3.895   0.450  0.1189  0.3163  0.1497
31641W        W38241  18.766   5.260   5.592 -0.1395 -0.0299 -0.0476
31642W        W38242   4.114   1.801  16.899 -0.3648  0.0885  0.1341
31643W        W38243  19.022   7.826   1.651  0.0595 -0.0533  0.0351
31644W        W38244  21.848   1.754   7.359 -0.2178 -0.2318 -0.0121
31645W        W38245  20.214   0.340  22.976 -0.2579  0.1152  0.0109
31646W        W38246  14.799   0.164  18.694  0.3298  0.0487 -0.0638
31647W        W38247  24.768   4.622  24.196 -0.0068  0.0622 -0.1873
31648W        W38248  22.335   0.387   5.125 -0.1778  0.0311 -0.1551
31649W        W38249   9.753   2.193  24.104  0.0005 -0.1677 -0.1590
31650W        W38250  12.770   4.494  11.056 -0.0950  0.0401 -0.1584
31651W        W38251  27.587   4.333  10.338  0.0282  0.0551  0.3484
31652W        W38252   2.511   6.660   7.838 -0.1967 -0.0333  0.0982
31653W        W38253  28.523   6.542   6.329  0.0598 -0.1298  0.0112
31654W        W38254   6.983   1.991   9.632 -0.1064 -0.0107 -0.0730
31655W        W38255  14.259   3.959  22.036  0.2251 -0.2099 -0.0213
31656W        W38256  14.469   4.829  25.903 -0.2592  0.0064 -0.0278
31657W        W38257  24.262   3.043   7.222  0.1715 -0.0134 -0.0832
31658W        W38258  31.112   5.407  18.338 -0.1530 -0.1037 -0.0775
31659W        W38259  19.424   2.725   3.161 -0.2065 -0.0118  0.3156
31660W        W38260  26.797   4.236  17.918  0.0862  0.4089 -0.1413
31661W        W38261   7.355   6.669  16.510  0.1169  0.1667 -0.2823
31662W        W38262  22.038   2.786   6.906 -0.0393  0.1208 -0.1510
31663W        W38263  28.834   6.343  18.914  0.3203  0.1008 -0.1930
31664W        W38264   3.189   1.295  16.395  0.0390  0.1029  0.0527
31665W        W38265   0.661   0.554   5.394 -0.0781 -0.2632  0.1056
31666W        W38266   4.764   1.584  16.402 -0.4754  0.0040  0.1969
31667W        W38267  30.229   2.412  21.872  0.1431 -0.0308 -0.0690
31668W        W38268   7.850   3.849   4.123 -0.0682  0.1814 -0.1422
31669W        W38269  11.286   3.720  23.321  0.2437  0.0272  0.0803
31670W        W38270  27.208   3.809  11.447 -0.1147  0.0710 -0.1668
31671W        W38271  28.489   0.169  21.199 -0.0969 -0.0552  0.0477
31672W        W38272  29.613   2.719   8.659 -0.0255 -0.2841 -0.0163
31673W        W38273   8.225   1.213  17.107  0.3718  0.2738  0.1690
31674W        W38274  29.478   5.745   8.403  0.1040 -0.2368 -0.1271
31675W        W38275  20.112   1.973  22.173  0.0529 -0.0662 -0.0185
31676W        W38276  22.011   4.874   7.335 -0.0944  0.1136  0.1062
31677W        W38277   6.141   2.389   6.844  0.2589  0.0895 -0.1091
31678W        W38278  24.237   3.465   3.978  0.1011 -0.0138  0.1941
31679W        W38279  11.018   7.368   9.574  0.0183  0.2548  0.0823
31680W        W38280   3.137   4.889  17.268 -0.3338 -0.4035  0.0059
31681W        W38281  18.945   4.208  20.037  0.1077  0.0949  0.0425
31682W        W38282  16.578   1.924  16.913  0.0956  0.1634 -0.0642
31683W        W38283  13.972   2.578  22.555 -0.0575 -0.1895 -0.2829
31684W        W38284  29.534   4.425   9.431  0.0930  0.2651 -0.1224
31685W        W38285   6.542   1.754  17.937 -0.3416 -0.1886 -0.3921
31686W        W38286   0.350   6.204   6.781 -0.2045 -0.3443  0.3451
31687W        W38287  19.178   1.507  20.733 -0.1787  0.2031  0.1549
31688W        W38288  13.024   4.764  21.524 -0.1683 -0.1210 -0.0900
31689W        W38289  14.080   2.542   6.118  0.0710 -0.1997  0.1003
31690W        W38290  21.640   4.757  22.322  0.1361 -0.0531  0.1292
31691W        W38291   3.062   1.094   0.178  0.0289  0.0416  0.0262
31692W        W38292   2.122   3.033  19.365  0.2085 -0.2924 -0.0423
31693W        W38293  13.494   1.932  23.052 -0.1244  0.3146 -0.0390
31694W        W38294   8.776   3.862   2.412  0.0269  0.0515  0.5503
31695W        W38295  21.339   0.915   8.154  0.1781 -0.0705 -0.0973
31696W        W38296  19.344   5.900   6.118 -0.1588 -0.2741  0.1575
31697W        W38297  17.784   3.052   6.652 -0.0730  0.0575  0.0762
31698W        W38298  19.075   6.717  17.762  0.0613  0.1422  0.3762
31699W        W38299   4.717   6.017   5.668 -0.1951  0.0676 -0.0963
31700W        W38300  23.668   3.323  25.946  0.0818 -0.0575 -0.1344
31701W        W38301  16.990   2.884   7.568  0.0740  0.2482  0.0865
31702W        W38302  11.074   5.132  18.760  0.1832  0.0898 -0.0015
31703W        W38303  19.850   6.385  16.235 -0.2860  0.1799  0.0747
31704W        W38304   3.717   5.576  18.500  0.1495  0.0382  0.0285
31705W        W38305   0.495   4.548   7.646  0.1708 -0.0652  0.0010
31706W        W38306  29.608   3.065  15.896  0.1903 -0.1792 -0.2346
31707W        W38307  12.435   4.021   8.394  0.1754 -0.1644  0.1090
31708W        W38308  29.831   5.442   0.654  0.0380 -0.3680 -0.1903
31709W        W38309  13.523   5.418   8.290  0.0714 -0.2661  0.2944
31710W        W38310  30.835   5.786   6.984 -0.1000  0.1542  0.1774
31711W        W38311   2.488   4.127   3.935  0.0154 -0.0082  0.0974
31712W        W38312  10.315   7.140  17.417 -0.0396 -0.2188  0.3747
31713W        W38313  18.691   5.284  25.034 -0.0406  0.1437 -0.1109
31714W        W38314   8.027   7.023   0.427 -0.1981 -0.0238  0.1310
31715W        W38315  18.568   1.325  18.000  0.0703  0.2122  0.1600
31716W        W38316  23.428   1.788  15.921  0.1316 -0.0296 -0.1061
31717W        W38317   7.094   1.229   6.704  0.1637  0.1566  0.0754
31718W        W38318   9.769   6.049   7.718 -0.0410  0.1523 -0.1645
31719W        W38319  19.539   1.707   4.250 -0.2310  0.1253  0.0106
31720W        W38320  15.159   2.258  24.322 -0.0931  0.0216 -0.1190
31721W        W38321  14.649   7.768  26.163  0.0386 -0.0875 -0.0563
31722W        W38322  17.631   2.356  18.307  0.4974 -0.0390  0.1652
31723W        W38323  28.098   1.941   5.656 -0.1995 -0.0933  0.1131
31724W        W38324  17.654   1.325  20.739 -0.0836  0.1750 -0.1965
31725W        W38325   8.549   2.314   4.586 -0.1687  0.0004 -0.0200
31726W        W38326  20.615   6.572  17.352 -0.2375  0.0214 -0.0401
31727W        W38327   5.261   3.058  20.029  0.1744  0.2214  0.2136
31728W        W38328  27.689   1.326   7.724 -0.1724  0.1926 -0.1163
31729W        W38329  19.710   5.311   5.426 -0.1234  0.2633  0.1891
31730W        W38330   1.093   1.553   8.103 -0.1317 -0.1059 -0.1946
31731W        W38331  13.683   3.354   5.619  0.3621  0.0261  0.1020
31732W        W38332   7.761   2.695   6.834  0.2851  0.0234  0.1805
31733W        W38333  14.290   3.920  22.523 -0.2518 -0.1693  0.0957
31734W        W38334  20.797   2.173  23.066  0.0224 -0.0947  0.2343
31735W        W38335  13.095   0.470  15.546 -0.1071  0.1027  0.1123
31736W        W38336   9.539   6.594  16.079  0.3891  0.0330  0.1161
31737W        W38337  13.312   6.172   7.584 -0.2127  0.2324 -0.1117
31738W        W38338  16.623   4.858  25.495 -0.1948 -0.1367  0.2536
31739W        W38339  28.008   7.187   0.398 -0.0323  0.1841 -0.0017
31740W        W38340  10.887   5.481   3.338  0.0552  0.1187 -0.0132
31741W        W38341  21.249   4.424  19.952 -0.0111 -0.0289 -0.0882
31742W        W38342  11.960   4.808   0.470  0.1633 -0.2298 -0.2369
31743W        W38343  23.751   7.452   6.529 -0.2508 -0.2693 -0.0123
31744W        W38344   7.004   0.388   7.421 -0.0749 -0.1604  0.0068
31745W        W38345  29.022   0.772   7.960  0.2003 -0.0755  0.5175
31746W        W38346   8.507   7.026  22.572 -0.4810 -0.0042  0.0160
31747W        W38347  14.371   5.463  22.811  0.4485 -0.1239  0.0633
31748W        W38348   4.320   4.062  11.404  0.2369  0.4283  0.0762
31749W        W38349  11.741   6.612   3.028 -0.2278  0.1804 -0.1377
31750W        W38350  27.567   5.812   6.110 -0.2206  0.1930 -0.0707
31751W        W38351  26.579   3.254   4.630 -0.1132  0.0027  0.1687
31752W        W38352  24.220   4.753   2.788  0.0116 -0.5429 -0.3152
31753W        W38353   4.191   5.836  18.359 -0.2152 -0.1577 -0.0979
31754W        W38354   2.364   2.453   3.192 -0.2198 -0.0605  0.1198
31755W        W38355   4.927   2.800  18.507  0.0971  0.3131  0.2507
31756W        W38356  15.878   7.801   4.434 -0.0904 -0.0807  0.4085
31757W        W38357   1.395   4.883  24.582  0.0708 -0.0291  0.2377
31758W        W38358  16.765   0.186   2.150  0.0103  0.1081 -0.0472
31759W        W38359  26.746   3.152  17.849 -0.0294  0.1295  0.2174
31760W        W38360   5.759   3.582   4.260 -0.0562 -0.0345 -0.2078
31761W        W38361  20.162   7.817  23.633  0.3097 -0.2131 -0.1882
31762W        W38362  11.821   6.783   5.119  0.0772 -0.0587 -0.1371
31763W        W38363   5.547   0.240  15.769 -0.0219 -0.2564 -0.2786
31764W        W38364   6.156   6.458   0.803 -0.1231 -0.2719  0.2048
31765W        W38365  22.777   3.783   4.666  0.0421  0.1947  0.0740
31766W        W38366  25.744   4.409   5.550 -0.0412  0.0237  0.1185
31767W        W38367  15.631   2.738   2.554  0.2282 -0.1025  0.4466
31768W        W38368  11.032   1.782   5.331  0.0176  0.2404 -0.2632
31769W        W38369  24.804   0.689   3.134 -0.2063 -0.3144 -0.3428
31770W        W38370  21.249   1.446  22.375  0.1262  0.2862 -0.1289
31771W        W38371  10.702   6.820   6.081 -0.3366 -0.1663 -0.0343
31772W        W38372  20.682   2.249  10.292 -0.2430 -0.1457 -0.0678
31773W        W38373   1.965   0.311  16.385 -0.2632  0.1773  0.1459
31774W        W38374  19.298   2.563  23.812  0.0632 -0.1308 -0.2866
31775W        W38375   5.641   7.604  23.279  0.2290  0.1532  0.3835
31776W        W38376  18.954   4.856   5.420  0.2319 -0.1265 -0.2086
31777W        W38377   3.673   6.880  21.221 -0.0631  0.2160  0.0365
31778W        W38378  23.563   5.288  20.134  0.5312  0.0551 -0.2318
31779W        W38379   4.246   5.593   5.466 -0.0354  0.3032  0.0818
31780W        W38380   9.863   5.469  19.998 -0.1447 -0.0764  0.0218
31781W        W38381  17.176   0.666   9.503  0.0357 -0.1883 -0.0762
31782W        W38382   3.786   7.306  18.154  0.1644  0.1059  0.1600
31783W        W38383   5.159   5.677   9.803 -0.3207 -0.0675 -0.1446
31784W        W38384  28.301   7.118  25.331 -0.0244 -0.0370 -0.3726
31785W        W38385   5.998   4.501   9.974 -0.2606 -0.2004 -0.1142
31786W        W38386   8.906   3.730  14.780  0.0538 -0.1946 -0.2391
31787W        W38387  19.816   5.042   6.375 -0.0188 -0.1925 -0.2257
31788W        W38388  21.707   5.402  23.563  0.3077  0.0099 -0.0448
31789W        W38389  15.328   0.035  18.035 -0.1952  0.1159  0.1515
31790W        W38390   0.761   3.373  11.714  0.0916  0.1267 -0.1345
31791W        W38391  10.833   5.371  20.751 -0.1478  0.3774  0.1697
31792W        W38392   9.022   5.297  20.437 -0.0366  0.1125 -0.2956
31793W        W38393  19.337   5.239  15.418 -0.2763 -0.2546  0.0247
31794W        W38394   0.653   6.931  21.977 -0.1636 -0.0353  0.0237
31795W        W38395  23.755   4.484   7.571 -0.1370 -0.0548  0.0676
31796W        W38396   3.522   4.026   2.016 -0.0103  0.1608 -0.2793
31797W        W38397  19.884   3.203   6.807 -0.0088 -0.1440  0.0216
31798W        W38398  25.510   2.166   6.339  0.1708  0.2241  0.1071
31799W        W38399  25.452   5.239  24.076  0.0379  0.0371 -0.0852
31800W        W38400  24.071   0.293  17.766  0.1746 -0.0731 -0.0763
31801W        W38401  22.566   4.950   8.046  0.0992 -0.2177 -0.2566
31802W        W38402   9.457   5.296   9.811  0.1214 -0.1239 -0.4016
31803W        W38403  18.533   3.148   4.644 -0.1422  0.0245  0.0180
31804W        W38404  11.156   5.886   5.045 -0.3192  0.1538 -0.0426
31805W        W38405  21.436   1.258  23.877  0.1644 -0.1477  0.1373
31806W        W38406  27.049   1.342   9.344 -0.0248  0.1856 -0.0001
31807W        W38407  25.779   4.332  18.014 -0.1815  0.0449 -0.1351
31808W        W38408   2.868   4.520   8.974  0.1191  0.2971 -0.2442
31809W        W38409  23.566   0.918   6.413 -0.0975  0.0814 -0.1837
31810W        W38410  23.497   7.620  20.161 -0.0881 -0.0505 -0.2224
31811W        W38411  24.540   1.952   3.129  0.0429 -0.1801  0.2251
31812W        W38412   1.087   2.105  11.546  0.1924  0.1772  0.3066
31813W        W38413   3.965   5.947  19.779 -0.3213 -0.3417 -0.1113
31814W        W38414  23.922   2.066  16.824  0.0835 -0.0604 -0.1571
31815W        W38415  28.075   0.934  16.748 -0.0468  0.0747  0.1252
31816W        W38416  14.392   6.075   2.569  0.0663  0.0272  0.2108
31817W        W38417   2.336   3.745   7.102 -0.0825  0.0950  0.2997
31818W        W38418  18.422   2.262  22.072 -0.1367 -0.0350  0.0725
31819W        W38419   3.749   3.449   7.632  0.0638 -0.1161 -0.3727
31820W        W38420  10.820   0.456  20.299 -0.2558  0.0671  0.2047
31821W        W38421  30.705   0.894  19.434 -0.0682 -0.1186 -0.2466
31822W        W38422  10.229   7.618  24.796 -0.1241 -0.0701  0.2275
31823W        W38423  22.927   5.130   2.010  0.0996  0.1617 -0.0334
31824W        W38424  20.056   0.971  10.198 -0.1851  0.2616  0.2814
31825W        W38425  15.255   6.409  18.464  0.1359  0.1770  0.3182
31826W        W38426  28.248   5.844  15.183 -0.0852  0.1842  0.3771
31827W        W38427  18.437   0.448  15.487 -0.0116  0.1351  0.3538
31828W        W38428  27.921   4.887   0.297  0.2269  0.1714 -0.3669
31829W        W38429  10.608   0.925   9.814  0.0409 -0.1277 -0.1437
31830W        W38430  20.776   0.287   6.758  0.0453 -0.0136 -0.1807
31831W        W38431  25.874   0.851   6.700 -0.1231  0.0318 -0.2170
31832W        W38432   2.282   7.447  23.184  0.3522  0.0830  0.1622
31833W        W38433  25.632   3.152  22.171  0.1000 -0.1086  0.1007
31834W        W38434  12.520   2.243   5.762 -0.3239  0.1524 -0.1664
31835W        W38435   7.590   6.177  22.533 -0.1678 -0.2428  0.1565
31836W        W38436  28.100   3.631  24.117 -0.0021 -0.2130  0.0264
31837W        W38437  29.600   6.789   8.060  0.3603  0.1881  0.1579
31838W        W38438   8.770   6.496  21.165  0.2026 -0.1621  0.2536
31839W        W38439   7.653   7.235  10.987  0.0454 -0.1808 -0.3688
31840W        W38440  17.339   5.583   1.063  0.4364 -0.0073 -0.1874
31841W        W38441  12.589   4.211  24.175 -0.1853 -0.1452 -0.2221
31842W        W38442   1.427   7.497   1.930 -0.1738 -0.1165  0.1606
31843W        W38443  21.968   0.593  25.017  0.0666 -0.1923  0.0252
31844W        W38444  23.921   5.272   9.687 -0.2050  0.0831  0.3782
31845W        W38445  27.842   5.827   3.020 -0.1033  0.2541 -0.0755
31846W        W38446  20.507   5.433   2.971  0.0685  0.0807  0.1002
31847W        W38447  29.811   4.599   4.568  0.0871  0.2182 -0.0883
31848W        W38448  12.256   6.477   6.119  0.1333  0.0371 -0.3913
31849W        W38449  13.076   7.124  25.350  0.0631 -0.1091 -0.2698
31850W        W38450  29.673   3.525   7.441 -0.1477  0.0680  0.2177
31851W        W38451   8.050   6.620   6.384 -0.1043  0.0127  0.0027
31852W        W38452   6.988   3.458  19.148 -0.2562  0.0043  0.2403
31853W        W38453  16.409   7.449  23.223 -0.2105 -0.0153 -0.0685
31854W        W38454  27.801   1.772   5.301  0.0165  0.0654  0.2286
31855W        W38455  28.798   0.476  17.802  0.3051 -0.2114 -0.2143
31856W        W38456  23.283   2.639   3.298  0.2238 -0.4188  0.2397
31857W        W38457  31.255   2.256   7.156 -0.1247  0.2632 -0.0412
31858W        W38458  28.693   2.602  14.965  0.2195  0.0490  0.2088
31859W        W38459  23.255   0.098  24.588 -0.2372  0.0376 -0.0758
31860W        W38460   7.948   3.755   1.700 -0.1597  0.0353  0.3113
31861W        W38461   7.224   2.627  20.115  0.1667  0.0107 -0.3691
31862W        W38462   0.427   4.809  22.705 -0.4106 -0.2661 -0.3851
31863W        W38463   8.639   0.908   6.505 -0.0893  0.0206 -0.2423
31864W        W38464  31.005   2.958  16.360  0.2318  0.0505 -0.0229
31865W        W38465  21.870   4.682   5.107 -0.1585  0.4002  0.2150
31866W        W38466  15.756   7.234   2.908  0.1703 -0.1680  0.0118
31867W        W38467   7.340   5.547  10.473  0.0251  0.1864  0.2274
31868W        W38468  30.131   6.418  22.257  0.0389  0.5174  0.0315
31869W        W38469  24.081   1.360   5.689 -0.0164 -0.0982 -0.2502
31870W        W38470  15.812   2.859  20.284 -0.1034 -0.0499  0.0786
31871W        W38471  17.658   0.339   1.925 -0.1262 -0.3137 -0.0847
31872W        W38472  23.609   6.920  19.022 -0.0270  0.2013 -0.1087
31873W        W38473  30.674   7.466  20.627  0.2280 -0.1775 -0.0447
31874W        W38474  20.300   2.870   7.599  0.0827 -0.2130  0.2427
31875W        W38475  13.955   3.644  24.385  0.2978 -0.2379  0.1195
31876W        W38476  29.401   7.665   8.886 -0.1999  0.0001 -0.2863
31877W        W38477  27.410   1.542  16.209 -0.1584  0.0301  0.1659
31878W        W38478  22.701   3.795   4.158  0.2896 -0.0292 -0.0125
31879W        W38479   8.383   5.688  23.708 -0.0883  0.0353  0.2877
31880W        W38480  16.854   1.202  16.240 -0.2400  0.0998  0.1935
31881W        W38481   5.736   1.032  19.638 -0.1720 -0.1785 -0.0508
31882W        W38482  26.058   4.425   3.648  0.0030  0.3334  0.0616
31883W        W38483  29.220   5.739  16.962  0.1845  0.1413 -0.1086
31884W        W38484  10.181   3.083  10.633  0.1688 -0.0431 -0.0638
31885W        W38485  23.304   4.780   1.785 -0.1738 -0.0715 -0.0254
31886W        W38486   7.426   1.932  23.636 -0.1449  0.2347 -0.3768
31887W        W38487   5.925   7.521  10.439  0.0002  0.2030  0.1918
31888W        W38488  30.034   6.922   2.169 -0.0251 -0.1511 -0.0206
31889W        W38489  15.477   6.101  20.891 -0.1308  0.2106  0.0014
31890W        W38490   2.776   0.668  17.703 -0.1137 -0.0095 -0.0277
31891W        W38491  17.407   2.176  15.064  0.2096 -0.1665 -0.0987
31892W        W38492  17.766   5.202  25.442 -0.2003 -0.2777 -0.0257
31893W        W38493   8.913   4.664   4.371 -0.0523  0.0251  0.0628
31894W        W38494  20.850   7.819   5.106  0.3468 -0.2275 -0.3803
31895W        W38495   4.716   6.084  10.447  0.0825  0.3253 -0.2824
31896W        W38496  18.583   0.657  22.564  0.0945  0.2334  0.1865
31897W        W38497  30.352   4.329  11.053  0.4146 -0.4405 -0.0812
31898W        W38498  28.708   4.206  23.267  0.2116  0.2865 -0.1283
31899W        W38499  28.298   6.128   3.077 -0.0796  0.1413  0.4332
31900W        W38500  28.267   0.875  19.405 -0.0944  0.0747 -0.1981
31901W        W38501  29.527   3.785  16.456 -0.1017 -0.0333  0.2541
31902W        W38502  29.277   6.906  17.616 -0.1318 -0.0921 -0.0829
31903W        W38503  27.359   2.478  16.835 -0.2059  0.0817  0.2983
31904W        W38504  25.836   3.107  20.937 -0.0996 -0.1458  0.0449
31905W        W38505   8.376   4.800   3.919  0.0052  0.1939  0.3067
31906W        W38506   7.434   0.645  24.857  0.1722  0.1752  0.1351
31907W        W38507  17.072   7.552   4.087 -0.0876 -0.0587  0.2339
31908W        W38508  16.386   3.092  18.705  0.0005 -0.0025  0.1210
31909W        W38509   1.842   6.239   8.752  0.0114 -0.0517 -0.0426
31910W        W38510  23.970   2.020   4.254  0.1368 -0.1252  0.0135
31911W        W38511  30.555   4.954   8.152 -0.1925  0.2846 -0.0731
31912W        W38512  30.376   3.157   8.241  0.0540  0.1796 -0.0154
31913W        W38513  28.127   3.529  22.756  0.2043  0.1883 -0.0829
31914W        W38514  12.883   2.248   8.792  0.0473  0.1010 -0.1221
31915W        W38515   6.995   5.524   0.105 -0.0650 -0.2271 -0.2608
31916W        W38516   4.854   1.858   1.447 -0.0332  0.0931 -0.4464
31917W        W38517  12.822   3.227  18.744 -0.0111  0.0448  0.0150
31918W        W38518  12.017   3.577   1.758  0.0449 -0.1079 -0.0333
31919W        W38519  28.300   4.605   7.000 -0.0195 -0.0522 -0.2284
31920W        W38520  23.138   7.742   6.077  0.1755  0.2833  0.2397
31921W        W38521   4.085   5.717   8.813 -0.0296  0.0853 -0.3793
31922W        W38522  18.222   5.370   3.384 -0.2333  0.1074 -0.2580
31923W        W38523   4.020   2.951  24.031  0.0814  0.3555  0.0340
31924W        W38524   3.542   4.943   4.136  0.0195  0.1257 -0.1337
31925W        W38525  27.806   3.215  17.085 -0.1430 -0.0642  0.2484
31926W        W38526   0.742   1.707   4.487 -0.0413 -0.2061 -0.0318
31927W        W38527  10.810   4.963  17.065  0.1159 -0.2379 -0.3786
31928W        W38528  16.420   0.803  23.924 -0.0266 -0.0788 -0.0748
31929W        W38529  10.856   2.551  17.283  0.2525  0.1638 -0.2095
31930W        W38530   1.262   6.331   1.584  0.2085 -0.2102 -0.0908
31931W        W38531  25.372   4.841  10.014 -0.0508  0.1851  0.1054
31932W        W38532   6.380   5.451  24.916  0.2066 -0.2266  0.2230
31933W        W38533  21.242   6.722  18.403 -0.0719  0.2511  0.1355
31934W        W38534  23.967   2.648  10.103  0.0679  0.3886 -0.0599
31935W        W38535  12.488   0.947  10.689 -0.2431  0.1455 -0.1047
31936W        W38536   2.929   5.747   9.728  0.1426  0.0015  0.0649
31937W        W38537  24.620   7.742  22.935  0.1215 -0.0960 -0.1043
31938W        W38538  12.057   1.382   1.381  0.0462 -0.0763 -0.0695
31939W        W38539  10.257   5.742  20.213  0.3101 -0.0355  0.1146
31940W        W38540  27.993   2.759   0.966 -0.1232  0.1185  0.0252
31941W        W38541  20.899   3.787  21.155 -0.0889  0.4203 -0.1369
31942W        W38542  17.306   1.724  17.800  0.2178 -0.1389  0.2844
31943W        W38543  11.756   7.380   2.073 -0.0650 -0.3038 -0.1600
31944W        W38544  20.787   5.488   2.586  0.0397  0.0474 -0.0153
31945W        W38545  18.848   1.555  24.553  0.0235  0.1780 -0.1726
31946W        W38546  12.448   3.714   1.322  0.1934 -0.1432  0.1356
31947W        W38547  23.070   6.263  20.959  0.2691  0.1955  0.0838
31948W        W38548  22.854   4.149   1.918  0.0937  0.1685 -0.2375
31949W        W38549   5.732   0.783   5.297 -0.3372 -0.0221 -0.3242
31950W        W38550   9.520   5.386  25.343  0.1734 -0.1025  0.1135
31951W        W38551  24.734   4.912  22.307 -0.0200  0.0595 -0.2394
31952W        W38552  14.539   2.989  23.036  0.0994 -0.2843 -0.1417
31953W        W38553   6.567   4.168   4.390  0.2918  0.2872 -0.0245
31954W        W38554  13.668   5.330   7.823  0.1671 -0.0796  0.2578
31955W        W38555   9.549   4.943   5.372  0.0261  0.0253 -0.2382
31956W        W38556   5.104   2.030  21.012 -0.1331  0.1201  0.4041
31957W        W38557  10.003   1.847   4.352  0.0604 -0.0555  0.1293
31958W        W38558  29.625   3.239   5.570 -0.3621 -0.1124 -0.0874
31959W        W38559   2.808   0.009  22.108  0.0887 -0.1420  0.0915
31960W        W38560  23.306   7.324  15.190 -0.0776 -0.1327 -0.1648
31961W        W38561  27.663   3.578   5.795 -0.1456 -0.1070 -0.0413
31962W        W38562   3.099   6.930  19.982  0.0319  0.0932  0.0258
31963W        W38563  15.053   0.094   2.942  0.1346 -0.0496 -0.2439
31964W        W38564  13.439   4.526   8.305 -0.1726  0.1572 -0.2331
31965W        W38565   5.164   1.046   7.076  0.1789 -0.0080 -0.1994
31966W        W38566  29.792   1.454  25.252  0.0646  0.4625  0.3816
31967W        W38567  25.344   0.216  21.540  0.1010 -0.0766 -0.3235
31968W        W38568   2.925   2.187  17.810  0.0938  0.1109  0.0418
31969W        W38569  24.165   6.837  17.832  0.0056  0.1370  0.0501
31970W        W38570  26.374   6.009   2.684 -0.1875  0.0693 -0.1129
31971W        W38571  28.150   1.902   0.833 -0.1188 -0.3415  0.2911
31972W        W38572   4.994   3.910   7.465 -0.0957 -0.0860  0.1105
31973W        W38573   3.961   2.960  10.651  0.1140 -0.1285 -0.0159
31974W        W38574   2.632   3.506  16.218  0.0936  0.0589  0.0752
31975W        W38575   9.213   5.563  19.470 -0.0870 -0.2470 -0.0129
31976W        W38576   0.580   5.136   8.565 -0.0661  0.0791  0.0846
31977W        W38577  26.652   0.038  18.682  0.0360  0.0352  0.2584
31978W        W38578  22.991   5.196   7.868  0.1906 -0.1352  0.2470
31979W        W38579  13.813   3.371   9.976  0.0425  0.1116 -0.0915
31980W        W38580   2.576   3.856   6.611  0.2628  0.3907 -0.3670
31981W        W38581   4.863   5.422   2.223 -0.0550  0.0953  0.2174
31982W        W38582  25.210   4.421  17.984 -0.1870 -0.3978  0.1657
31983W        W38583  18.694   7.215  25.816 -0.1779  0.0724 -0.0944
31984W        W38584  23.478   6.051   9.357  0.1516  0.2018  0.1627
31985W        W38585  18.936   5.546  17.649 -0.0662 -0.1718 -0.0878
31986W        W38586  27.769   6.820   4.046 -0.0563 -0.0636  0.3154
31987W        W38587  16.377   0.379  20.667  0.0990  0.1141 -0.0061
31988W        W38588  17.702   2.981  20.646  0.2755  0.2728  0.0393
31989W        W38589   5.378   5.562   7.712  0.1735 -0.1832 -0.2168
31990W        W38590  16.921   4.980  22.651 -0.0542  0.0901  0.0272
31991W        W38591  18.719   3.056  21.441  0.0838  0.0411  0.0578
31992W        W38592  15.765   4.808  19.527  0.3289  0.1877  0.0676
31993W        W38593   7.643   0.349   0.026 -0.1565  0.0885  0.0670
31994W        W38594  20.109   4.092   7.549  0.1435 -0.0929  0.1226
31995W        W38595  24.649   6.662  10.019  0.1329 -0.0016  0.0673
31996W        W38596  22.717   0.033   2.011  0.1775 -0.1188 -0.1875
31997W        W38597  14.130   3.011  23.322 -0.0234 -0.1575 -0.1129
31998W        W38598   1.174   0.797  10.247 -0.0689 -0.0797  0.3687
31999W        W38599  24.309   3.146   8.473  0.1481 -0.1177 -0.1221
32000W        W38600  21.356   2.756  19.063 -0.1625 -0.2049 -0.0755
32001W        W38601   3.407   2.964   6.961 -0.4229  0.2945 -0.1714
32002W        W38602   6.022   3.368  19.057  0.0308 -0.0678  0.0202
32003W        W38603  29.754   3.072  15.460 -0.1349  0.1576 -0.0905
32004W        W38604  20.026   1.524  21.875  0.0090 -0.1324  0.0266
32005W        W38605  15.341   5.776   6.773 -0.0261  0.3039 -0.0769
32006W        W38606  19.270   0.148   8.557  0.0117  0.1338  0.0849
32007W        W38607   5.850   6.465   5.302  0.2711 -0.0030  0.0392
32008W        W38608  22.054   3.375   3.840 -0.1387  0.2143  0.0459
32009W        W38609  10.613   1.729  21.700  0.0722 -0.0892  0.0204
32010W        W38610  19.148   3.099  10.917  0.1044  0.1843  0.0085
32011W        W38611   8.482   2.834  21.651 -0.2389  0.1009 -0.0863
32012W        W38612  15.496   5.383  10.337 -0.0296  0.2002  0.1987
32013W        W38613  25.853   2.170   5.529 -0.0680 -0.1260  0.0437
32014W        W38614  17.555   0.147   1.421 -0.2137  0.0814  0.1420
32015W        W38615  13.946   5.925   2.856 -0.0165 -0.1166  0.4904
32016W        W38616   4.035   1.449   4.445 -0.2232  0.0635  0.0146
32017W        W38617  25.392   5.954   5.943  0.1420  0.0133  0.2008
32018W        W38618  23.288   2.943   5.953 -0.1248 -0.3304  0.0376
32019W        W38619  13.488   4.965   1.609 -0.1960 -0.0743  0.1936
32020W        W38620   9.095   5.912  22.837 -0.1892 -0.0523  0.0431
32021W        W38621   1.562   4.672  22.694 -0.1486  0.0279  0.1364
32022W        W38622  30.764   1.813  21.734 -0.0910  0.2361 -0.2686
32023W        W38623  29.680   3.098   3.833  0.0173 -0.0919  0.0111
32024W        W38624   8.214   0.021  16.572 -0.1385  0.0814 -0.1078
32025W        W38625   5.725   2.940  18.172 -0.2966  0.3629 -0.2979
32026W        W38626  25.793   3.065  16.929 -0.0100  0.0124 -0.0556
32027W        W38627  26.545   7.412  18.344 -0.1388  0.0514 -0.0002
32028W        W38628   0.334   5.182  19.232 -0.0285  0.0956 -0.3298
32029W        W38629  19.943   6.869  23.802 -0.1590  0.3382 -0.1247
32030W        W38630  17.300   7.264   7.981  0.1059  0.1341 -0.0202
32031W        W38631  14.212   5.669  22.324 -0.0437 -0.0394  0.2082
32032W        W38632   6.627   7.207  20.544  0.2868  0.0212 -0.0159
32033W        W38633  24.044   4.651   5.085 -0.0183  0.1244  0.0310
32034W        W38634   7.601   2.817  16.020 -0.2016  0.1044 -0.1102
32035W        W38635  10.357   1.420  15.945 -0.4082  0.1253  0.1748
32036W        W38636  22.772   4.523  18.843  0.0319 -0.1330 -0.2193
32037W        W38637  10.164   6.515   0.105  0.0203  0.0579  0.1071
32038W        W38638  21.826   2.780  25.732 -0.1308  0.1105  0.3361
32039W        W38639   4.192   0.251   6.388  0.1751 -0.0635 -0.0163
32040W        W38640   4.779   7.026   6.918  0.0246 -0.0291  0.0327
32041W        W38641  16.075   5.498  17.708 -0.2324  0.0783 -0.2866
32042W        W38642  16.162   4.257   3.667 -0.2669  0.2532  0.2185
32043W        W38643  30.838   1.421   4.059 -0.0628 -0.0158  0.1406
32044W        W38644  27.700   0.845   2.511  0.0698  0.0169  0.0253
32045W        W38645   5.570   5.641  18.225  0.5357 -0.1150  0.0969
32046W        W38646  24.521   7.161  17.686 -0.0007 -0.3633  0.2163
32047W        W38647  20.453   1.660  23.811 -0.2437 -0.0675  0.2062
32048W        W38648  30.165   3.329  17.533  0.1732  0.2824  0.0581
32049W        W38649   1.964   6.476  22.381  0.0474  0.3586 -0.1312
32050W        W38650  26.387   3.271  20.255  0.4535 -0.1412 -0.1067
32051W        W38651  19.309   1.612   1.099 -0.1637 -0.1923 -0.4915
32052W        W38652  17.532   7.177  16.065  0.1518 -0.1806  0.0232
32053W        W38653   3.826   2.563  17.063  0.0542 -0.0194  0.0353
32054W        W38654  11.869   7.447   5.351  0.0766 -0.1450 -0.1739
32055W        W38655   3.920   7.446  19.222 -0.0205  0.1669 -0.0069
32056W        W38656   5.142   1.699  22.487  0.0913  0.1489 -0.1194
32057W        W38657  10.134   2.341  10.213 -0.0348 -0.1600  0.5509
32058W        W38658   0.418   7.524  15.460 -0.2743  0.0455  0.1962
32059W        W38659  26.721   0.060   9.517 -0.0963  0.0418 -0.2287
32060W        W38660  14.072   7.174   0.052 -0.0792 -0.1168 -0.0876
32061W        W38661  30.865   3.627  16.729  0.0332  0.2662 -0.5281
32062W        W38662  28.388   6.817  10.124  0.0605 -0.1050  0.0096
32063W        W38663  21.716   3.081  19.058 -0.0061  0.0078  0.1117
32064W        W38664  25.356   3.476   7.329 -0.0357  0.0023  0.3940
32065W        W38665  26.344   5.620  25.102  0.0899 -0.0483  0.2984
32066W        W38666   4.127   0.256  21.679  0.2672 -0.0600  0.2248
32067W        W38667   0.680   7.284  17.626 -0.0812  0.0656  0.0674
32068W        W38668   7.343   4.059  23.848 -0.0167 -0.0409  0.1134
32069W        W38669  13.758   6.367  20.528  0.0002 -0.1452  0.4374
32070W        W38670   9.869   3.498  10.148  0.2664  0.0383 -0.1655
32071W        W38671  18.054   2.356  25.965  0.0092  0.0435 -0.1157
32072W        W38672   2.317   1.895   7.527 -0.1458  0.0538  0.1931
32073W        W38673   0.578   3.349  23.844  0.2214 -0.0998 -0.1700
32074W        W38674  21.979   6.545   0.065 -0.0977  0.1218  0.1860
32075W        W38675   4.732   0.232  25.233  0.1107  0.1437 -0.0208
32076W        W38676  10.635   3.625  15.241 -0.0439 -0.1411 -0.1625
32077W        W38677  25.862   5.152  17.341 -0.0820 -0.4001 -0.1108
32078W        W38678   6.797   6.171   0.029 -0.1880 -0.3258  0.3525
32079W        W38679  18.794   5.204  19.489  0.0283  0.0996 -0.0626
32080W        W38680  10.625   3.157   5.075 -0.0171  0.1531  0.1789
32081W        W38681  25.162   7.514   1.036  0.0521 -0.1146  0.0895
32082W        W38682   5.297   1.396  24.854 -0.1747 -0.0849  0.0466
32083W        W38683  22.669   0.248   0.771  0.1167 -0.2368 -0.0375
32084W        W38684   1.525   0.245  19.266 -0.0612  0.3335  0.0694
32085W        W38685  21.114   2.086   3.922 -0.1096  0.0287  0.1662
32086W        W38686  25.056   6.776  18.369 -0.0632  0.2600 -0.1680
32087W        W38687  10.649   1.601  18.322  0.0662 -0.0685  0.2333
32088W        W38688  20.301   4.782   6.648 -0.0918  0.0750 -0.1946
32089W        W38689  25.489   3.736  23.002 -0.2355 -0.2296  0.2347
32090W        W38690   0.926   3.698   4.026 -0.3227 -0.1357  0.0871
32091W        W38691   6.248   0.159  21.219  0.1863 -0.0721 -0.1063
32092W        W38692   5.017   2.727   0.364 -0.0077  0.0300  0.0750
32093W        W38693  21.203   3.065  18.081  0.0431 -0.1856  0.1576
32094W        W38694  18.409   2.558   8.724  0.1168  0.0747  0.0884
32095W        W38695  19.287   7.198  21.366 -0.0079 -0.1785 -0.1306
32096W        W38696  27.437   1.475  20.299  0.0241 -0.1634 -0.0189
32097W        W38697   8.834   0.699   9.687 -0.2862  0.0502  0.0146
32098W        W38698  27.720   5.571  17.609  0.2664  0.2334  0.2924
32099W        W38699   5.700   5.174  22.115  0.1457 -0.0015 -0.2333
32100W        W38700   4.419   3.498  24.899 -0.1580  0.0058 -0.3731
32101W        W38701  31.285   5.205  25.066 -0.3462 -0.1343 -0.0957
32102W        W38702   1.828   0.573  20.941  0.2521 -0.0808 -0.2624
32103W        W38703  30.684   5.741  10.532  0.0781 -0.1567 -0.0008
32104W        W38704  11.149   4.678  26.066 -0.0562  0.1195 -0.2264
32105W        W38705  13.169   0.692   6.081  0.1511  0.2328  0.0834
32106W        W38706   5.342   3.599  16.150  0.0397 -0.2311 -0.2458
32107W        W38707  26.660   4.435   1.786 -0.2793  0.2834  0.0640
32108W        W38708   7.829   2.355  16.072 -0.1729  0.3307  0.0219
32109W        W38709  15.851   6.172  19.266 -0.0970 -0.1184 -0.0833
32110W        W38710  17.377   2.209  23.077 -0.1326 -0.0772 -0.0865
32111W        W38711  18.761   7.504  10.021  0.1236 -0.1109  0.0047
32112W        W38712  22.408   4.166  17.479 -0.0396  0.0053 -0.0331
32113W        W38713  15.675   4.824  16.883  0.3235 -0.0037  0.1213
32114W        W38714   1.706   2.685   4.302  0.1009 -0.3235 -0.3290
32115W        W38715   1.372   1.112  20.701  0.0939  0.0151  0.1919
32116W        W38716  13.828   0.275   8.227  0.1881  0.2084  0.1542
32117W        W38717  23.147   6.611   7.659 -0.0796 -0.1298  0.1078
32118W        W38718   8.311   4.512  23.683 -0.3772  0.0241 -0.1512
32119W        W38719  23.835   3.139   2.391 -0.2644 -0.0299 -0.2623
32120W        W38720  25.521   7.000   4.028 -0.0730  0.0675  0.1586
32121W        W38721   2.514   6.974  24.278 -0.0340 -0.0249  0.2456
32122W        W38722   2.672   4.808  19.114  0.2356  0.1374 -0.1084
32123W        W38723  24.380   5.093  19.858  0.0991 -0.2511  0.1509
32124W        W38724  23.257   0.217  19.901  0.1183  0.1702 -0.1884
32125W        W38725   5.775   6.057  21.032 -0.0870  0.0377  0.2719
32126W        W38726   5.974   5.740  22.717  0.0260  0.2166 -0.1000
32127W        W38727  10.316   7.569  16.738  0.0481  0.1082 -0.1953
32128W        W38728  22.880   7.156  21.432 -0.1318  0.3384  0.0114
32129W        W38729   5.048   3.152   1.011  0.2328  0.0024 -0.0287
32130W        W38730   3.644   7.712  26.122  0.0439 -0.1464 -0.1855
32131W        W38731  15.272   4.734   9.829  0.0754  0.2224 -0.0439
32132W        W38732   2.492   4.055  15.363 -0.3375  0.0622 -0.0906
32133W        W38733  22.124   3.714  23.352 -0.1023  0.2723 -0.2436
32134W        W38734   1.276   5.699  15.921 -0.1861 -0.1600 -0.1119
32135W        W38735  10.215   2.540  18.378 -0.0089  0.4196  0.0981
32136W        W38736  10.265   0.703   7.360 -0.1174 -0.0359  0.1888
32137W        W38737  28.867   7.260   7.857  0.1210  0.2408 -0.0277
32138W        W38738   1.929   6.572   8.377  0.0948 -0.2228  0.0241
32139W        W38739  25.552   5.628  17.272  0.4384 -0.0165 -0.0251
32140W        W38740   9.620   4.820  14.571 -0.1729 -0.1984 -0.1783
32141W        W38741   5.688   5.010  20.236  0.2176 -0.0501  0.1328
32142W        W38742  13.188   4.316  25.946  0.0886 -0.1545  0.2433
32143W        W38743   5.761   3.559  10.537 -0.2583 -0.0799  0.0024
32144W        W38744  30.094   5.407  19.576  0.0536  0.2723 -0.0097
32145W        W38745  30.178   0.419   5.068  0.3294 -0.0966 -0.1510
32146W        W38746  16.582   5.140  25.962 -0.0321 -0.0722 -0.1608
32147W        W38747  10.242   4.689   5.017  0.0906  0.0256 -0.0154
32148W        W38748  19.841   4.983  19.583  0.0081 -0.2321  0.1161
32149W        W38749   0.261   6.913   9.718 -0.0879  0.0303 -0.0290
32150W        W38750  25.874   6.466   4.045  0.2247 -0.1258  0.0397
32151W        W38751  13.681   7.639  17.232 -0.0375 -0.0565  0.1305
32152W        W38752   1.941   5.301  11.340  0.0256 -0.0075 -0.1360
32153W        W38753  24.982   1.939  17.965  0.0318  0.2227 -0.0131
32154W        W38754  16.110   3.681  21.066 -0.2060 -0.0554 -0.0825
32155W        W38755  30.600   1.100  11.079  0.1426 -0.2199  0.2892
32156W        W38756   0.302   1.718  23.492  0.2497 -0.0003  0.1325
32157W        W38757  22.380   4.223   2.873 -0.0392 -0.1831  0.1267
32158W        W38758   1.847   3.001  26.131  0.2684  0.0246  0.4371
32159W        W38759  20.011   1.914   4.403 -0.2206  0.0336  0.0150
32160W        W38760  14.243   6.654  18.378 -0.1069  0.2584  0.1145
32161W        W38761  18.283   4.477   0.415  0.0789  0.2361 -0.1529
32162W        W38762  17.693   5.216   9.937  0.0055 -0.1161 -0.1977
32163W        W38763  21.343   4.803   6.434 -0.0018 -0.2290  0.2227
32164W        W38764  28.694   6.307   3.899  0.0791 -0.1103 -0.0664
32165W        W38765  30.847   5.594  17.524 -0.0317 -0.5792  0.0535
32166W        W38766  21.050   6.950  23.690 -0.0794 -0.0162  0.2746
32167W        W38767  18.197   1.148   8.951  0.1060  0.1918  0.0208
32168W        W38768  24.486   4.903  18.108 -0.0599  0.0042 -0.3352
32169W        W38769  23.570   3.877   1.249 -0.1394 -0.0041  0.1336
32170W        W38770   8.234   1.343  26.107  0.2045  0.0476 -0.2279
32171W        W38771  10.422   1.607  25.935  0.0790  0.1526 -0.2487
32172W        W38772  15.963   1.035   3.298 -0.0292  0.1220  0.0666
32173W        W38773  13.357   4.121   6.622 -0.1619 -0.2403 -0.2611
32174W        W38774  14.511   1.329  15.553  0.2626  0.2196 -0.0757
32175W        W38775   2.267   6.931   2.370 -0.0209  0.4430  0.0346
32176W        W38776   3.676   4.244   8.958  0.0305 -0.1003  0.1493
32177W        W38777   9.408   7.671  20.912 -0.1241 -0.2214 -0.0943
32178W        W38778  21.482   1.275  17.618 -0.1886  0.0021  0.1487
32179W        W38779  10.559   3.107   3.039  0.2069 -0.1816 -0.0163
32180W        W38780  14.546   1.383  16.103  0.0988  0.0057  0.0445
32181W        W38781  17.790   2.532   0.143  0.2280  0.1445 -0.1577
32182W        W38782  23.171   7.084   5.129 -0.3964  0.0119 -0.0659
32183W        W38783  17.567   0.687  20.609 -0.2131  0.0355  0.3805
32184W        W38784  10.351   2.844  23.508  0.0316 -0.4614  0.1305
32185W        W38785  13.592   1.578   1.535  0.2740  0.0533 -0.3259
32186W        W38786  10.581   7.742  15.576  0.0607 -0.2254  0.1330
32187W        W38787   6.686   3.954  15.649  0.2182  0.1549 -0.2188
32188W        W38788   2.118   6.094  17.348 -0.1229 -0.1200 -0.0933
32189W        W38789  12.445   1.887  19.897 -0.0776 -0.1196 -0.1480
32190W        W38790   0.601   0.363  24.239  0.0392  0.3153 -0.1761
32191W        W38791  26.971   7.571   6.086  0.4585  0.0883  0.0829
32192W        W38792  17.782   6.217   4.779 -0.1512  0.0219  0.0245
32193W        W38793  27.347   6.301  16.662  0.0458 -0.0600  0.0750
32194W        W38794   8.550   0.995   7.899 -0.3506  0.1281  0.0376
32195W        W38795  29.915   2.471   5.966  0.1374 -0.0140 -0.0337
32196W        W38796   0.794   1.087  22.808 -0.0904  0.0041  0.2236
32197W        W38797   4.789   7.482   7.908 -0.1947 -0.1672 -0.4291
32198W        W38798  20.789   4.547   2.030 -0.0667 -0.0317 -0.0883
32199W        W38799  11.318   7.539   6.555 -0.0325 -0.2753 -0.1060
32200W        W38800   9.474   0.963   2.338 -0.1247  0.3118 -0.4532
32201W        W38801   3.915   3.728  24.990  0.1726 -0.1636 -0.1059
32202W        W38802   6.358   6.160   1.812  0.0358 -0.2298  0.2654
32203W        W38803  17.255   2.673  21.733 -0.1092  0.0018 -0.1021
32204W        W38804   5.278   4.618   1.080  0.3408 -0.3413  0.0681
32205W        W38805   1.078   3.218   4.747  0.0298  0.0216  0.2790
32206W        W38806   6.887   3.381  23.776 -0.2956  0.1278 -0.0947
32207W        W38807  19.111   6.801   1.514 -0.0277 -0.1056 -0.1830
32208W        W38808   3.640   6.253  19.498 -0.1515 -0.0623  0.1557
32209W        W38809  29.966   3.581  16.124 -0.2841 -0.1578 -0.0794
32210W        W38810   5.195   5.109  19.108 -0.1521 -0.1674 -0.2009
32211W        W38811   7.923   7.402   0.146  0.1948 -0.1758 -0.0609
32212W        W38812  28.398   2.002   3.845  0.0471  0.1272  0.1699
32213W        W38813  13.243   3.820  17.339 -0.0836 -0.0829  0.3251
32214W        W38814  21.497   3.563  23.528  0.2195  0.1521  0.1002
32215W        W38815  22.650   3.233   1.985 -0.2740 -0.2665  0.3516
32216W        W38816  14.489   3.997   3.151 -0.0913  0.1566  0.1511
32217W        W38817   0.500   5.384  18.739 -0.0826 -0.1175 -0.0234
32218W        W38818  21.217   3.980   3.697 -0.0004 -0.2431 -0.0190
32219W        W38819   4.474   6.171   9.629 -0.0355 -0.1034  0.4063
32220W        W38820  16.094   3.697   0.402 -0.2116  0.1913 -0.5024
32221W        W38821   0.589   5.833   6.360 -0.2529 -0.2356  0.2657
32222W        W38822   1.456   6.516  22.748 -0.2324 -0.2523 -0.0506
32223W        W38823  21.948   6.979  17.313  0.1907 -0.0375  0.1305
32224W        W38824   9.501   1.769  15.920  0.0228  0.0463 -0.1436
32225W        W38825   1.377   1.554   4.082 -0.2777 -0.0540 -0.0832
32226W        W38826  16.239   7.127   4.543 -0.0884  0.1261 -0.3438
32227W        W38827  18.597   0.051  24.367 -0.0670 -0.2839  0.1738
32228W        W38828  11.887   1.036   5.442 -0.1618  0.2501 -0.1595
32229W        W38829   4.955   3.610   5.767 -0.0645  0.1416  0.0801
32230W        W38830  30.073   2.228   9.716 -0.1770  0.0911 -0.0275
32231W        W38831  14.915   2.545   0.034  0.1615  0.1094 -0.0419
32232W        W38832   8.857   3.756   9.471 -0.0715  0.4031 -0.1282
32233W        W38833  15.084   0.645   5.189 -0.0917  0.3081 -0.1745
32234W        W38834   7.398   3.302   4.844  0.0789  0.0874 -0.2423
32235W        W38835   8.568   3.080   9.704 -0.0416  0.1577 -0.2520
32236W        W38836   9.119   0.544  17.074 -0.2837 -0.1598  0.1593
32237W        W38837  28.352   1.399   5.842 -0.0902  0.0461  0.1164
32238W        W38838  21.756   5.145  25.531 -0.0011 -0.0682 -0.0317
32239W        W38839   3.370   1.774  17.953 -0.0802  0.0440  0.0111
32240W        W38840  18.986   7.636   5.985  0.3336 -0.2700  0.2698
32241W        W38841  22.069   2.096  15.691  0.0411 -0.2931 -0.0941
32242W        W38842  15.120   0.572   7.141  0.2352  0.1638 -0.0782
32243W        W38843  15.870   2.811   9.492 -0.2945  0.2187  0.0310
32244W        W38844  19.282   2.608  10.821  0.1361 -0.1859  0.2492
32245W        W38845   0.003   2.256  22.743 -0.1397  0.3102  0.0281
32246W        W38846  25.748   3.162  18.347  0.0454 -0.2248  0.0404
32247W        W38847   5.935   4.138   4.406 -0.0713 -0.1688 -0.0905
32248W        W38848  18.626   4.425  24.122 -0.1352  0.3809  0.0193
32249W        W38849   4.054   2.005  18.167 -0.0124 -0.1486 -0.1872
32250W        W38850   8.017   6.599  16.989  0.1872 -0.1015 -0.1199
32251W        W38851   1.503   1.525  24.792 -0.2242  0.1386  0.0635
32252W        W38852  24.916   6.558  21.475 -0.0933 -0.1341 -0.0158
32253W        W38853  21.844   0.889  19.758 -0.2087  0.2762 -0.1890
32254W        W38854   8.877   1.657   6.775 -0.0009  0.2113 -0.1481
32255W        W38855   0.985   2.911   1.358  0.1581  0.0521 -0.2378
32256W        W38856  18.360   5.387  16.230 -0.2229  0.0642  0.4722
32257W        W38857  10.682   5.169   9.100 -0.0259 -0.2880 -0.2808
32258W        W38858  17.318   5.607   1.586 -0.5926 -0.1577  0.0469
32259W        W38859  13.858   5.604   5.618 -0.2148 -0.1614  0.2253
32260W        W38860  10.998   1.400  21.487 -0.1259  0.2804 -0.3736
32261W        W38861  25.631   1.010   4.646 -0.0894  0.0970 -0.0978
32262W        W38862  19.395   0.227   5.222 -0.0628  0.0212 -0.0590
32263W        W38863   2.834   5.672   1.755  0.2556  0.0739  0.0280
32264W        W38864   3.375   2.393   3.403 -0.4331  0.1043  0.0991
32265W        W38865  26.677   7.693   0.030 -0.1338  0.0179  0.2094
32266W        W38866  21.087   6.260  22.254 -0.1698 -0.1873 -0.0839
32267W        W38867   9.692   4.038  23.832 -0.0024  0.2495 -0.0190
32268W        W38868  15.759   3.618  15.826 -0.2826 -0.1075  0.0807
32269W        W38869  26.241   3.858  19.197 -0.0496 -0.0229 -0.1416
32270W        W38870  17.412   5.576  19.397  0.0705 -0.3019  0.2438
32271W        W38871   6.182   4.318   7.703 -0.0179  0.1908  0.3423
32272W        W38872  27.171   2.847  24.154  0.1304 -0.1764  0.2564
32273W        W38873  25.319   2.107  24.274  0.0541  0.1266  0.2136
32274W        W38874  29.682   1.423  16.932  0.1260  0.0809  0.2503
32275W        W38875  14.070   3.670  15.417 -0.0678  0.0523 -0.1733
32276W        W38876   8.126   5.576  18.820 -0.1890  0.0439  0.1491
32277W        W38877  31.149   5.602   1.476  0.1061 -0.2113 -0.3036
32278W        W38878  25.422   6.741   8.922  0.2324  0.1588  0.1514
32279W        W38879  28.107   6.578   1.318 -0.0401  0.0480 -0.0310
32280W        W38880   7.919   0.355  25.024  0.2442  0.0499  0.0094
32281W        W38881   5.270   6.431   2.768 -0.4359 -0.0592 -0.1642
32282W        W38882  27.968   3.096   8.052 -0.1485  0.2041  0.0443
32283W        W38883  29.352   0.498  23.684 -0.3526 -0.0994 -0.0043
32284W        W38884   7.530   2.080   1.237 -0.1549 -0.1518 -0.0066
32285W        W38885  12.359   4.507   9.869  0.2844  0.1392 -0.1116
32286W        W38886  19.483   4.116  15.691  0.1965 -0.0768  0.0058
32287W        W38887  23.817   4.520  16.698  0.0764  0.0227  0.0932
32288W        W38888   6.649   6.807  20.222 -0.2511 -0.4111 -0.1827
32289W        W38889  16.101   2.329  22.171 -0.1247 -0.1983  0.3580
32290W        W38890   5.896   1.983   1.598  0.0972  0.0546 -0.0288
32291W        W38891  12.854   5.022  18.880  0.1071  0.2112  0.1537
32292W        W38892   4.340   2.707   0.128  0.3562 -0.2107  0.0043
32293W        W38893  14.044   7.726   2.363 -0.0066  0.0461 -0.1158
32294W        W38894  26.792   5.954  21.520  0.0649 -0.0497 -0.1148
32295W        W38895  26.270   6.607  15.958 -0.1572  0.1433 -0.1988
32296W        W38896  24.160   2.696  25.405  0.0183  0.2502 -0.0353
32297W        W38897   3.602   5.961  10.762 -0.1994  0.2432  0.1420
32298W        W38898  17.681   7.227  17.373 -0.0087  0.1123 -0.1100
32299W        W38899  26.254   3.902   5.790 -0.5384 -0.1048  0.1766
32300W        W38900   7.180   7.393  19.666 -0.1702  0.0767  0.1414
32301W        W38901  19.494   1.637   1.589 -0.2483  0.0618 -0.1347
32302W        W38902   4.791   5.020   0.824 -0.2752 -0.0578 -0.1891
32303W        W38903  26.140   0.776  24.073  0.1491  0.2212 -0.3698
32304W        W38904  24.025   1.466   7.892  0.0845 -0.2385  0.0823
32305W        W38905  18.799   3.000  25.802  0.1807  0.0231 -0.1971
32306W        W38906   0.735   6.255  17.323  0.0420 -0.3045  0.1440
32307W        W38907   3.889   6.961   5.989 -0.1201 -0.1226 -0.1281
32308W        W38908  10.838   3.808  26.045 -0.0401  0.0595 -0.2208
32309W        W38909   4.157   4.232  10.218  0.1899  0.1717 -0.1153
32310W        W38910  18.673   6.076  22.959  0.3105  0.3000 -0.1135
32311W        W38911   1.677   5.506   1.450 -0.1567 -0.2487 -0.0087
32312W        W38912  15.311   0.678  14.842  0.1064  0.4288  0.1872
32313W        W38913  17.548   5.545   9.601 -0.1159  0.1928  0.1009
32314W        W38914   4.341   6.120  25.719  0.2333  0.0027 -0.3487
32315W        W38915  23.170   2.125   9.255 -0.3579 -0.0569  0.1142
32316W        W38916  22.957   4.098   6.784  0.2154  0.0146 -0.0748
32317W        W38917  26.971   1.224   3.149 -0.1741  0.2789  0.1636
32318W        W38918   4.566   3.146  17.196  0.0179 -0.0837 -0.2638
32319W        W38919   3.210   0.590  20.900  0.1771 -0.0270  0.2856
32320W        W38920  18.646   7.814   3.295 -0.1380 -0.2617 -0.0860
32321W        W38921   1.223   6.135  16.200  0.4500 -0.0928  0.0428
32322W        W38922   0.400   2.925   7.037  0.0168  0.0576 -0.0394
32323W        W38923   2.017   7.194   8.949  0.0304 -0.0150  0.3105
32324W        W38924  20.529   0.035  18.247 -0.2121  0.0539  0.0301
32325W        W38925  21.241   2.565  22.537  0.0281  0.0517 -0.1058
32326W        W38926   2.829   6.359   0.943  0.2348  0.2625 -0.1002
32327W        W38927   8.975   5.543  21.466  0.0112  0.2188 -0.3185
32328W        W38928  27.427   5.165  15.307  0.0139 -0.0011 -0.1422
32329W        W38929  13.547   1.856   7.731 -0.1055  0.0526  0.1038
32330W        W38930  16.713   0.865  10.279 -0.1472 -0.2712  0.2424
32331W        W38931  17.324   5.173  17.981 -0.0486  0.2620  0.0468
32332W        W38932  22.429   6.334  25.311  0.2495  0.0362  0.0034
32333W        W38933  12.407   2.699  20.597 -0.0815  0.1424  0.2444
32334W        W38934  14.845   1.114  16.460  0.3163  0.1857  0.1963
32335W        W38935  21.559   3.542  26.101 -0.1696  0.0432  0.0928
32336W        W38936   9.634   1.905  11.211  0.0600  0.0312  0.0529
32337W        W38937  21.529   1.136   1.842 -0.2611 -0.3183 -0.1132
32338W        W38938   0.681   4.177   0.930 -0.2626 -0.1325 -0.0642
32339W        W38939  31.164   3.080   6.863  0.0648  0.1136  0.1122
32340W        W38940  20.105   1.807  20.567  0.0467 -0.0515  0.2704
32341W        W38941  25.456   4.530  15.815  0.0839 -0.2024 -0.0732
32342W        W38942  24.805   0.213  24.170 -0.0270 -0.0432 -0.3861
32343W        W38943  29.710   5.506  17.746 -0.4253 -0.0179  0.1219
32344W        W38944  13.456   3.438  24.389 -0.0081 -0.0759  0.1444
32345W        W38945   8.428   3.208  25.381 -0.2620  0.1096  0.0123
32346W        W38946  13.386   5.783   7.884 -0.0821 -0.2423 -0.0490
32347W        W38947   7.831   3.180   7.119  0.2482 -0.2132  0.0136
32348W        W38948  20.534   0.458   3.291  0.0018 -0.0863 -0.1413
32349W        W38949   8.701   5.053   5.156  0.0207  0.0390 -0.0578
32350W        W38950   5.468   5.992  25.800 -0.0132  0.1164 -0.1678
32351W        W38951  30.302   2.806  10.623 -0.3200 -0.3176  0.1152
32352W        W38952  10.668   7.482   4.428  0.1340 -0.1602  0.2729
32353W        W38953  22.220   2.561  15.579 -0.0105 -0.1419  0.0925
32354W        W38954  29.381   6.863  10.875 -0.0986  0.1201 -0.0997
32355W        W38955  15.451   1.683   1.311 -0.0532 -0.0876  0.2895
32356W        W38956   6.246   5.155   9.030 -0.2649  0.0605  0.3239
32357W        W38957   3.829   3.067   2.297 -0.1174  0.1124 -0.1619
32358W        W38958  27.367   2.069  21.135 -0.3154  0.0764  0.2358
32359W        W38959  28.358   4.494   2.038  0.0875 -0.0674 -0.0089
32360W        W38960   5.641   3.662  19.444 -0.0658  0.2140  0.0481
32361W        W38961  31.076   2.567  25.167  0.2388 -0.0445  0.3322
32362W        W38962   9.152   2.001  22.840  0.3286 -0.2107  0.1329
32363W        W38963  11.839   5.472   5.528 -0.0221 -0.2113 -0.1968
32364W        W38964  19.364   0.778  20.703  0.0723  0.0595  0.0947
32365W        W38965  16.449   6.350   2.836  0.2811  0.2826 -0.1656
32366W        W38966   2.813   6.132   1.392  0.2649 -0.1928 -0.1735
32367W        W38967   5.058   5.180   0.434 -0.2425  0.2974  0.1080
32368W        W38968   3.804   1.153  23.247 -0.1987 -0.1220  0.2394
32369W        W38969   8.873   1.143   6.946  0.2069 -0.1664  0.1797
32370W        W38970  20.760   7.028   8.490 -0.0441  0.0213  0.0558
32371W        W38971   4.324   6.228  19.563 -0.1053 -0.0995  0.1575
32372W        W38972  28.086   3.578  21.511  0.2801 -0.0033 -0.0557
32373W        W38973  28.404   6.177  22.312  0.0209  0.1105  0.1271
32374W        W38974  10.093   0.492  21.397 -0.1438  0.2604  0.0773
32375W        W38975  14.152   4.770   6.997 -0.2599 -0.1705  0.0854
32376W        W38976  12.708   6.324  18.408  0.1273 -0.2594  0.3253
32377W        W38977  29.781   6.958  10.553  0.0954 -0.0801 -0.1212
32378W        W38978   9.656   7.179  24.169  0.0737  0.3422 -0.2385
32379W        W38979   1.411   2.408  15.308  0.1939  0.0208  0.0091
32380W        W38980  16.242   5.357   6.695 -0.1404  0.1106  0.0851
32381W        W38981  10.167   0.743  17.235  0.0663  0.1992  0.1426
32382W        W38982  24.204   0.133  10.860  0.1779  0.2376 -0.2876
32383W        W38983   7.525   0.209  19.911  0.2697  0.3527 -0.1780
32384W        W38984  26.248   2.254  16.837  0.0028  0.2376 -0.1321
32385W        W38985  11.673   7.464  11.191  0.2948 -0.0922  0.1163
32386W        W38986  27.298   6.260  24.753 -0.1209 -0.1309  0.0282
32387W        W38987  17.385   3.229   2.815 -0.3933  0.0563  0.0120
32388W        W38988  16.578   3.649  14.959  0.1443 -0.1292  0.1559
32389W        W38989   2.494   3.685  22.266 -0.0599  0.0170 -0.0982
32390W        W38990   2.457   5.755  19.236  0.2543 -0.2253  0.3527
32391W        W38991  26.791   0.215   9.980  0.2975 -0.1949  0.0553
32392W        W38992  21.359   6.206   1.186  0.0851  0.0474 -0.0678
32393W        W38993   7.267   0.963  18.128 -0.0902  0.3771  0.2430
32394W        W38994   9.340   6.149  21.760 -0.0059 -0.2014  0.3924
32395W        W38995  21.223   5.262  17.306  0.2242  0.0597 -0.1798
32396W        W38996  30.385   6.097  23.680  0.0400  0.1442  0.0298
32397W        W38997   1.165   3.442   3.374 -0.0988  0.0219  0.0433
32398W        W38998  11.393   1.099  15.717  0.0521  0.0268 -0.0547
32399W        W38999  29.901   3.084   0.292  0.0744  0.1562 -0.1357
32400W        W39000  11.383   6.468   8.143  0.2209 -0.0894 -0.1663
32401W        W39001  21.142   5.682   8.642 -0.3307 -0.0651 -0.2781
32402W        W39002   6.328   3.004   8.042 -0.0698 -0.0122  0.0716
32403W        W39003  13.708   0.708  21.814  0.2246  0.5322  0.0719
32404W        W39004   3.327   4.233  22.461 -0.2172  0.0180 -0.0122
32405W        W39005  16.303   1.094   2.895 -0.2210 -0.1679  0.0687
32406W        W39006   2.034   6.764   7.439 -0.0534 -0.0652 -0.1097
32407W        W39007  22.672   6.347   1.859 -0.2017 -0.0692 -0.1166
32408W        W39008  24.868   7.579   6.023 -0.0852 -0.0401  0.3276
32409W        W39009  16.846   7.351  21.438 -0.1951  0.0104 -0.0317
32410W        W39010  23.868   3.807  16.497  0.0352  0.2987  0.1682
32411W        W39011   3.928   0.703  21.843  0.0378  0.1101  0.2787
32412W        W39012   0.160   6.428  24.023  0.0447  0.0653 -0.0868
32413W        W39013  24.408   7.484  17.302  0.1411 -0.0566  0.0140
32414W        W39014  17.771   3.791  16.299  0.0649 -0.0268 -0.1646
32415W        W39015  15.431   7.700   6.493  0.3856 -0.0507  0.0567
32416W        W39016  21.710   3.191   4.142  0.2811 -0.1130 -0.1489
32417W        W39017   9.024   7.628  17.098  0.1190 -0.0610  0.1668
32418W        W39018  22.873   7.101   1.145 -0.1575 -0.0581 -0.0825
32419W        W39019  29.990   4.501   9.005 -0.1156 -0.1480 -0.0869
32420W        W39020   9.283   1.869  17.517  0.0346 -0.2634  0.1146
32421W        W39021  15.478   5.352   3.536  0.0721  0.0149 -0.1727
32422W        W39022  28.362   4.607  16.339  0.1019  0.3105 -0.3157
32423W        W39023  15.625   3.321  25.319 -0.0846  0.1470  0.3070
32424W        W39024  28.205   3.815   2.579 -0.1925 -0.0433 -0.0436
32425W        W39025  20.216   0.656   5.637  0.0503  0.0339 -0.2746
32426W        W39026  16.495   5.451  19.117 -0.1487 -0.1444  0.2830
32427W        W39027   2.527   0.312  19.489  0.0393 -0.3793  0.1623
32428W        W39028  14.553   4.658  23.803  0.2637  0.1367 -0.1615
32429W        W39029   0.667   4.467  16.362  0.1303  0.0906  0.0589
32430W        W39030   1.884   6.511  24.529  0.3409  0.0128  0.3140
32431W        W39031   1.886   4.764  18.447 -0.2015  0.2651  0.2837
32432W        W39032  17.640   6.808   3.106  0.0528 -0.0227 -0.1377
32433W        W39033  22.227   1.598  15.562 -0.0671  0.2281 -0.2859
32434W        W39034  29.695   6.530   7.133  0.1361  0.1667  0.0529
32435W        W39035  13.076   7.348   5.752  0.0816 -0.2271 -0.0545
32436W        W39036  14.652   2.334   1.286  0.0224 -0.1137  0.3805
32437W        W39037  29.035   1.294  19.295  0.3052  0.2214  0.3996
32438W        W39038  27.446   6.214   5.086 -0.1592  0.0893  0.0404
32439W        W39039  15.903   4.076  23.691 -0.4092 -0.0091  0.1054
32440W        W39040   9.645   3.744  21.447 -0.1477 -0.0829  0.2215
32441W        W39041  30.977   5.633   7.472  0.2027 -0.1839  0.2235
32442W        W39042  16.633   7.658  26.145 -0.0896  0.0984 -0.3909
32443W        W39043  13.635   2.002   1.233  0.0831  0.0521  0.1987
32444W        W39044   4.190   3.076  19.181  0.0141  0.1003 -0.1551
32445W        W39045   3.978   3.045   8.582  0.0347 -0.0354 -0.0074
32446W        W39046   9.309   1.283   2.748 -0.0004 -0.2005  0.1626
32447W        W39047   4.322   1.931   0.735  0.2086 -0.1302 -0.1794
32448W        W39048   0.585   6.715  24.017  0.0740 -0.1751  0.0320
32449W        W39049  14.601   7.318   9.973 -0.2040 -0.1909  0.1891
32450W        W39050  12.729   0.464  17.292 -0.2789 -0.2919 -0.2023
32451W        W39051  22.298   1.523  24.900  0.3052  0.2147 -0.0621
32452W        W39052  13.046   5.241   6.108  0.1048  0.0365  0.1454
32453W        W39053  22.437   5.934   0.051 -0.3350 -0.2576 -0.0530
32454W        W39054  19.533   6.667  16.504 -0.0836 -0.0822 -0.0663
32455W        W39055  16.479   0.902   6.570 -0.0857 -0.2347  0.0234
32456W        W39056  26.676   7.284  16.257 -0.1215  0.0200 -0.0976
32457W        W39057  22.089   5.909   8.024  0.0076  0.0937 -0.2595
32458W        W39058  12.063   3.225  21.233  0.0041  0.0420 -0.1646
32459W        W39059  19.527   3.296  17.673  0.2816 -0.0020  0.1816
32460W        W39060   1.157   7.716  23.801 -0.0779 -0.2973 -0.0358
32461W        W39061  14.018   4.547  23.192  0.0155 -0.2634 -0.1467
32462W        W39062  27.847   2.271  18.211 -0.1405 -0.0099  0.0537
32463W        W39063  13.835   0.183  21.930  0.0297  0.3591  0.0338
32464W        W39064  28.453   6.479  21.099 -0.3502  0.1940 -0.2582
32465W        W39065  12.997   4.966  17.608 -0.0214  0.2994 -0.1214
32466W        W39066  23.488   2.789   2.243 -0.0790 -0.1793 -0.0479
32467W        W39067  28.681   6.645   0.431 -0.1478 -0.1928 -0.2037
32468W        W39068  27.559   3.721  24.090  0.1601 -0.1718 -0.0357
32469W        W39069  12.925   3.163  21.396  0.0164  0.1927  0.0030
32470W        W39070  11.882   0.457   1.265 -0.0231  0.1758  0.0092
32471W        W39071  21.742   2.049  26.101 -0.1446  0.2336 -0.2721
32472W        W39072  11.450   7.364   1.639 -0.3990 -0.1973 -0.1044
32473W        W39073  10.285   4.552   2.053 -0.1751  0.0076 -0.1435
32474W        W39074  23.841   3.215  16.049 -0.0194 -0.2318  0.1191
32475W        W39075   4.418   3.908   2.521  0.1038 -0.0962  0.1803
32476W        W39076  10.841   1.397  16.232 -0.0581  0.0821  0.0231
32477W        W39077  18.799   0.885   3.586  0.0843  0.0604 -0.1817
32478W        W39078  24.442   2.039   9.481 -0.1059  0.0557  0.1186
32479W        W39079   5.311   7.571   8.657  0.0901 -0.0874 -0.2193
32480W        W39080  14.150   0.293  23.726 -0.1124 -0.1663  0.1424
32481W        W39081  24.339   4.987   7.486  0.1444  0.0040  0.0127
32482W        W39082  27.644   0.671   6.423  0.0606 -0.2355  0.0515
32483W        W39083   5.538   1.392  22.462  0.3439 -0.0175  0.2168
32484W        W39084  13.559   6.898   6.002  0.4349 -0.0843 -0.1136
32485W        W39085  27.411   1.297   1.764 -0.0189  0.0212 -0.1681
32486W        W39086   3.102   6.748   7.347  0.1521 -0.1559  0.1007
32487W        W39087   2.987   5.554  26.181 -0.2206 -0.3994 -0.0276
32488W        W39088   4.688   6.130  24.065  0.4266  0.2598  0.2170
32489W        W39089  19.420   4.584  24.934  0.0524  0.0959 -0.1952
32490W        W39090  16.986   7.585   7.722 -0.0971  0.0762 -0.1563
32491W        W39091  23.260   6.486  17.067 -0.1644  0.4824 -0.0417
32492W        W39092   4.878   4.176  21.505 -0.0605 -0.2083  0.2729
32493W        W39093   7.815   2.278  20.875  0.2617 -0.0898  0.0316
32494W        W39094   5.669   5.233   6.643  0.0947 -0.0618  0.0664
32495W        W39095   3.467   1.578  19.762  0.0377  0.1291 -0.0895
32496W        W39096   1.205   5.535  22.762 -0.0188  0.1010  0.0031
32497W        W39097  10.586   4.986   7.566 -0.2640 -0.1494  0.2313
32498W        W39098  10.947   2.652  21.721 -0.0995 -0.3985 -0.1691
32499W        W39099  14.439   2.759   3.498  0.2976  0.3253  0.2595
32500W        W39100   8.430   4.311   7.237  0.0925  0.0160  0.0877
32501W        W39101  16.722   4.330   7.719 -0.1034  0.0303  0.1595
32502W        W39102  29.430   5.892   1.259 -0.0269  0.0926  0.4238
32503W        W39103  17.599   1.733   6.655 -0.0605  0.2952 -0.0073
32504W        W39104  14.104   3.361   3.638 -0.0126  0.3161  0.1537
32505W        W39105  30.388   3.251   3.780  0.1025  0.0285 -0.0774
32506W        W39106  26.625   5.731   5.223 -0.0112 -0.1227  0.2631
32507W        W39107   3.270   1.911   4.727 -0.1807  0.0036 -0.1236
32508W        W39108  12.625   4.565  16.241  0.2727  0.2416  0.0633
32509W        W39109  13.463   2.270   1.667 -0.1162 -0.0012 -0.2053
32510W        W39110  25.705   5.659  24.374  0.2046  0.2435 -0.1064
32511W        W39111   3.174   5.804  25.268 -0.2595  0.1412 -0.3592
32512W        W39112  13.248   7.514  18.854 -0.2016 -0.0708  0.0470
32513W        W39113  14.284   4.048   6.955 -0.0561  0.2708 -0.1484
32514W        W39114   2.995   2.689  10.659  0.0224  0.1682  0.1997
32515W        W39115  30.341   0.544   7.426  0.3157  0.0270  0.2516
32516W        W39116  17.865   6.683  25.623 -0.0978  0.0534 -0.1102
32517W        W39117  24.619   1.044   2.709  0.0624 -0.0681  0.0021
32518W        W39118   2.363   4.465   1.249  0.1443 -0.0546  0.1883
32519W        W39119  17.125   6.649  19.739  0.1519 -0.0311 -0.0122
32520W        W39120  29.405   2.270  24.760 -0.0309  0.1799  0.2824
32521W        W39121  13.146   6.499   2.662  0.1529  0.1209  0.1784
32522W        W39122  15.555   2.360  22.898  0.2106 -0.0699  0.2960
32523W        W39123  30.673   5.647  18.542 -0.1751  0.0691  0.1288
32524W        W39124  22.015   1.203   2.080  0.0381 -0.1211 -0.0608
32525W        W39125   9.245   0.386   0.784  0.0957 -0.1499 -0.3121
32526W        W39126  22.368   1.950   4.798  0.0080  0.0160 -0.0013
32527W        W39127   8.583   2.671  23.349 -0.0411  0.2453  0.1174
32528W        W39128   6.639   3.721  23.555  0.1112  0.1635  0.1303
32529W        W39129  26.306   2.334   9.953  0.1920  0.0760 -0.0794
32530W        W39130  21.718   5.136   5.175  0.0803  0.0464 -0.0212
32531W        W39131  17.808   5.234  16.272  0.0685 -0.0307 -0.2036
32532W        W39132  12.309   4.064  25.343 -0.1858  0.0790 -0.1534
32533W        W39133  21.430   1.440   1.399 -0.0318 -0.1223 -0.0784
32534W        W39134   6.408   2.361  18.348 -0.1779  0.1053  0.0405
32535W        W39135  15.280   6.488   1.985 -0.1280  0.0694  0.1686
32536W        W39136  11.802   0.306   0.255  0.1521 -0.0070  0.0055
32537W        W39137  20.326   1.081  16.952  0.1812 -0.0501  0.1014
32538W        W39138   8.561   3.783  15.799 -0.0337  0.0181 -0.0339
32539W        W39139  16.644   7.745  22.406  0.0313  0.1993  0.2615
32540W        W39140  20.500   4.194  23.236  0.1075 -0.2310  0.1023
32541W        W39141   1.137   2.874   9.483  0.2515  0.0152 -0.1736
32542W        W39142  18.266   1.909  15.199  0.1156 -0.0478  0.0903
32543W        W39143  18.763   6.374  18.560  0.0980  0.0185  0.1170
32544W        W39144  25.679   6.372  15.345 -0.0791  0.1969 -0.0380
32545W        W39145   8.168   4.129   1.458 -0.3428 -0.1881 -0.0467
32546W        W39146  12.154   1.997  24.947 -0.3438  0.1965  0.1202
32547W        W39147   0.235   1.592  19.628  0.0317  0.0514  0.0807
32548W        W39148   6.082   1.930  18.142 -0.0032  0.1656  0.1103
32549W        W39149  23.619   0.150   1.737  0.0041  0.0450 -0.0095
32550W        W39150  11.767   2.667  24.128 -0.1926 -0.2946 -0.3780
32551W        W39151  22.038   1.464  24.490 -0.1196  0.0203 -0.2891
32552W        W39152  22.563   1.005   8.713 -0.0859  0.0878  0.3174
32553W        W39153  10.758   2.418  24.572  0.0663  0.0060 -0.2114
32554W        W39154  29.065   4.225   2.742 -0.1378  0.0023  0.1091
32555W        W39155  19.387   4.569   2.226  0.0578  0.0884 -0.1003
32556W        W39156  22.519   2.941  25.110  0.1470 -0.2871  0.0429
32557W        W39157  14.732   1.339  10.157  0.3787 -0.0281  0.4018
32558W        W39158  31.276   2.799   0.371  0.1484  0.0274  0.3502
32559W        W39159  14.759   6.021  10.253  0.0961  0.0249 -0.0109
32560W        W39160  24.998   4.095  18.713  0.2774  0.0353 -0.0189
32561W        W39161  28.761   3.982  25.366  0.1662 -0.0548 -0.2696
32562W        W39162  30.077   7.031   9.110  0.0194 -0.0952  0.0870
32563W        W39163   0.904   0.328   9.164 -0.1059 -0.1133 -0.1133
32564W        W39164  23.358   3.563  17.404  0.1654  0.1869  0.0670
32565W        W39165  22.582   4.674   3.102  0.1792 -0.0478 -0.3503
32566W        W39166  24.531   5.196   4.148 -0.1679  0.2104  0.0853
32567W        W39167  24.322   5.230  26.063 -0.2535 -0.0815  0.2734
32568W        W39168   9.174   0.359   7.692 -0.1464 -0.0170  0.0706
32569W        W39169   1.749   5.354   5.070  0.2928 -0.2029 -0.1588
32570W        W39170  15.567   4.030   8.825  0.0431  0.0366  0.1462
32571W        W39171  19.997   4.484  15.970  0.1229  0.0476  0.3659
32572W        W39172  26.008   4.746  19.352 -0.1094  0.1913  0.3421
32573W        W39173   1.781   1.974  21.010  0.0968  0.0427 -0.1472
32574W        W39174   8.200   7.397   6.148 -0.3987 -0.0201 -0.0653
32575W        W39175  10.193   5.319  25.545 -0.0739  0.2533 -0.1226
32576W        W39176  21.173   5.853  25.370 -0.0296 -0.1891  0.4492
32577W        W39177  29.483   4.495   2.770  0.1764  0.1217  0.0153
32578W        W39178  20.511   3.184   9.911 -0.1192 -0.1220  0.0449
32579W        W39179  25.194   4.979  24.371  0.2119 -0.0435  0.1687
32580W        W39180  14.761   7.735   9.284 -0.0632  0.1302  0.0875
32581W        W39181  14.710   5.226   4.066 -0.0216 -0.0539  0.1778
32582W        W39182  15.326   3.712  25.130  0.1521 -0.0805  0.0554
32583W        W39183  11.780   5.872  18.737 -0.4103 -0.0469  0.2915
32584W        W39184   8.561   6.297  19.014  0.1538  0.1038  0.1004
32585W        W39185   8.333   7.821  24.650 -0.3827 -0.3141  0.1364
32586W        W39186  31.074   4.847  17.690  0.1769 -0.0108  0.0867
32587W        W39187  15.342   7.443   0.664  0.2036  0.1464  0.1363
32588W        W39188  11.562   4.346  21.259 -0.2994 -0.1848 -0.0635
32589W        W39189  21.860   3.049   5.378 -0.0092 -0.0203  0.0260
32590W        W39190  18.630   6.143   9.734  0.0711 -0.0992  0.1006
32591W        W39191  12.182   5.520   1.938 -0.2568 -0.0838  0.1465
32592W        W39192   1.878   6.190  10.308 -0.0872 -0.1263 -0.0131
32593W        W39193  14.252   6.092   9.232  0.4332  0.0993  0.1408
32594W        W39194  22.765   1.495   8.010  0.2354 -0.1867  0.1135
32595W        W39195  10.429   2.234   1.548 -0.0725 -0.1107 -0.1475
32596W        W39196  28.415   3.218   1.857 -0.1279  0.2060  0.0817
32597W        W39197   0.877   2.858   4.243 -0.0354  0.2801  0.0769
32598W        W39198  21.327   2.636   2.988  0.0636  0.0783 -0.2954
32599W        W39199   9.305   6.643   8.877 -0.0433  0.0399  0.1228
32600W        W39200  10.562   3.216  15.008 -0.1170  0.1068 -0.1463
32601W        W39201   6.720   0.416   4.060 -0.0114 -0.4357  0.2510
32602W        W39202   4.851   1.871  17.731  0.2299 -0.0433  0.0166
32603W        W39203   2.714   0.196   8.325 -0.0279  0.0394  0.0995
32604W        W39204   6.171   7.314  26.162  0.0904  0.0763  0.1497
32605W        W39205  30.651   0.191  18.415 -0.1972 -0.0720 -0.2716
32606W        W39206  29.974   3.632  20.027 -0.1056 -0.0920 -0.1180
32607W        W39207   2.751   4.673  25.735  0.4540 -0.3025 -0.0485
32608W        W39208  10.888   0.637   2.154 -0.0267 -0.0093 -0.1308
32609W        W39209  18.210   3.993   2.657  0.0520 -0.1169 -0.0417
32610W        W39210   6.740   6.134  20.867 -0.0619 -0.0877  0.1536
32611W        W39211  20.061   4.522  23.221  0.3125  0.1148  0.2513
32612W        W39212   1.149   3.345   1.549 -0.1325  0.1146 -0.0890
32613W        W39213  11.368   3.603  17.631  0.0562 -0.3677 -0.1030
32614W        W39214  21.612   7.302   0.014  0.0323  0.1159  0.1162
32615W        W39215   1.546   5.941  23.078 -0.1257 -0.3947 -0.1463
32616W        W39216  12.992   0.028  23.855 -0.1186  0.0252 -0.1028
32617W        W39217   5.511   2.501   9.202  0.2595 -0.0811  0.0431
32618W        W39218  10.539   6.617  19.861 -0.0884  0.0880  0.2155
32619W        W39219   8.109   4.686  17.364  0.1982 -0.0273  0.0356
32620W        W39220  10.844   4.005   9.116 -0.1967 -0.0854 -0.1074
32621W        W39221   7.929   0.989   8.988  0.2038 -0.2429 -0.0635
32622W        W39222  16.851   2.585  20.376  0.0556  0.1668  0.1602
32623W        W39223  15.049   5.494   7.840 -0.2326 -0.0230 -0.1486
32624W        W39224  13.580   0.944  18.060 -0.0599  0.4569  0.1486
32625W        W39225   2.020   5.613  24.601 -0.0128 -0.0402  0.1625
32626W        W39226   6.899   7.631  10.698  0.1610  0.1785  0.0750
32627W        W39227   5.196   5.247  26.107  0.3874  0.0546 -0.0100
32628W        W39228   3.376   2.880  21.799 -0.0549  0.4223  0.1180
32629W        W39229  15.309   3.410   8.940  0.0412  0.0366  0.2192
32630W        W39230  12.567   7.329   6.018 -0.3799  0.3168  0.0936
32631W        W39231  13.058   4.526  22.040  0.2035  0.2091 -0.1322
32632W        W39232  11.525   1.494   3.007  0.3163  0.0444  0.2113
32633W        W39233  31.132   6.845  11.109  0.1887 -0.2272  0.1322
32634W        W39234   8.554   6.119  11.012  0.1126  0.2532 -0.1181
32635W        W39235  24.196   3.424  24.778 -0.0933  0.4443 -0.1051
32636W        W39236   2.608   2.488  20.190  0.0826  0.1948 -0.1585
32637W        W39237  15.561   1.352  23.502  0.0949  0.2530 -0.2608
32638W        W39238   9.144   4.159   8.005 -0.1859 -0.0289  0.1173
32639W        W39239  27.012   3.223   3.215  0.2686  0.0802 -0.0742
32640W        W39240  21.969   2.514  16.483 -0.0525 -0.0395 -0.2370
32641W        W39241  12.136   4.872   3.910  0.0647  0.0121 -0.1388
32642W        W39242   9.867   2.671  19.706 -0.1135  0.0214 -0.0919
32643W        W39243   8.525   5.693   6.796 -0.1943  0.1495  0.0655
32644W        W39244  25.375   1.680   1.590  0.0981 -0.0787  0.1069
32645W        W39245  21.859   1.680   9.525  0.0141  0.0005  0.0875
32646W        W39246  12.395   3.138   9.340 -0.0449 -0.1148 -0.2660
32647W        W39247   2.790   4.319   7.781  0.2323 -0.1573 -0.1099
32648W        W39248   7.776   5.254  24.808 -0.0065 -0.0859 -0.1754
32649W        W39249  10.572   2.838  17.588 -0.3485 -0.2760 -0.0349
32650W        W39250   4.569   6.168   1.416  0.1190  0.1392 -0.1120
32651W        W39251  21.517   3.170   6.365  0.3750 -0.1106  0.0248
32652W        W39252  30.810   2.612   9.993 -0.3448  0.1518  0.3242
32653W        W39253  11.844   7.430  17.077 -0.0407 -0.0189 -0.1099
32654W        W39254  21.581   0.605  16.231 -0.0503 -0.0765 -0.2425
32655W        W39255   0.344   2.699   9.870  0.1230  0.0622 -0.4155
32656W        W39256  10.206   5.289  16.123 -0.0414  0.0564  0.1080
32657W        W39257  13.845   5.759  15.705  0.1648 -0.1472  0.0350
32658W        W39258  29.222   2.984   6.334  0.1660 -0.0276  0.0293
32659W        W39259  29.922   7.362  17.247 -0.0514  0.0657  0.3710
32660W        W39260  12.774   6.248  15.144 -0.2545 -0.0016 -0.1896
32661W        W39261   9.213   6.623  25.118  0.0838 -0.1531 -0.0776
32662W        W39262  19.580   3.759   8.766  0.0082 -0.0504 -0.1284
32663W        W39263   0.159   3.665   0.910  0.2061 -0.0495 -0.0161
32664W        W39264  16.715   3.801   8.086  0.1269 -0.2599  0.0525
32665W        W39265  29.573   2.477  17.236  0.2058  0.3740  0.1097
32666W        W39266   3.353   6.445  22.130  0.2210  0.1709  0.0359
32667W        W39267   9.572   3.186   6.913 -0.0972 -0.0931  0.0884
32668W        W39268  19.711   5.984  26.117  0.0457  0.0620 -0.0680
32669W        W39269   4.070   5.188   6.015  0.0055  0.1870  0.1840
32670W        W39270   1.315   7.712   2.835  0.0915  0.0592  0.1983
32671W        W39271   5.359   3.432  26.084 -0.1177 -0.0037 -0.1097
32672W        W39272  13.700   5.965   3.649  0.1524 -0.0711  0.3229
32673W        W39273  12.963   1.933  21.754 -0.1949 -0.0851 -0.2201
32674W        W39274  14.285   7.302   0.685 -0.0590  0.2064 -0.2141
32675W        W39275   7.371   4.519  16.774  0.1397  0.5242 -0.3141
32676W        W39276  11.534   7.042  19.895  0.3500 -0.2151 -0.1914
32677W        W39277   3.721   3.684  22.355 -0.1594  0.1075 -0.0956
32678W        W39278  17.480   2.153   0.082 -0.2620 -0.0506 -0.3225
32679W        W39279   3.837   2.273  18.865 -0.0119 -0.3544 -0.1339
32680W        W39280   8.979   1.553   2.448 -0.1975  0.2638 -0.2007
32681W        W39281  28.971   7.753  10.536  0.1087  0.0437 -0.0837
32682W        W39282   8.158   6.319   7.152 -0.2008 -0.2261  0.0409
32683W        W39283  20.490   0.824   5.116  0.4133  0.1438  0.0647
32684W        W39284   9.392   1.013  15.227 -0.0728 -0.2076  0.0231
32685W        W39285  26.955   4.862   3.834 -0.2343 -0.2071  0.1650
32686W        W39286  19.391   0.421   9.839 -0.0081  0.0183 -0.0119
32687W        W39287  22.021   3.329   0.723  0.0467 -0.2594 -0.0042
32688W        W39288   7.809   5.930  25.453  0.2515 -0.0004  0.0505
32689W        W39289  26.083   3.079   5.847 -0.3585  0.0873 -0.0738
32690W        W39290  10.463   6.469  23.387  0.1250 -0.2730  0.0872
32691W        W39291  20.434   2.893  24.998  0.4167 -0.0729 -0.4222
32692W        W39292   3.691   4.872  21.384 -0.0089 -0.0972  0.2445
32693W        W39293  21.782   1.028  22.016 -0.3036  0.1847  0.1357
32694W        W39294  15.928   3.577   8.162  0.0656  0.0521 -0.0396
32695W        W39295   5.399   4.463  16.486 -0.0851  0.4669  0.0770
32696W        W39296  13.920   4.545   2.579  0.0668  0.2280  0.0341
32697W        W39297   7.863   4.329   7.385  0.1563  0.2596 -0.0521
32698W        W39298  10.916   3.584   4.642  0.0847 -0.0057 -0.0795
32699W        W39299   8.897   6.229  10.670 -0.0688 -0.1389 -0.0697
32700W        W39300  11.466   4.414  15.188  0.1844 -0.1335  0.3373
32701W        W39301  17.617   7.374   1.346  0.1713 -0.1734  0.0593
32702W        W39302   3.482   2.250  15.902  0.0293  0.1906 -0.1927
32703W        W39303   3.639   7.621  10.309 -0.2183 -0.1203  0.0756
32704W        W39304  18.533   6.529  23.163  0.1811  0.0024  0.2276
32705W        W39305  26.197   0.671   0.861 -0.1550  0.3172 -0.0633
32706W        W39306  14.468   5.968  22.733 -0.1472  0.0839  0.1200
32707W        W39307   4.473   3.515   5.828  0.0180 -0.0796  0.2434
32708W        W39308  21.081   6.466   5.824 -0.2820  0.2177  0.0093
32709W        W39309   2.915   0.503  11.061 -0.0152 -0.1200 -0.2066
32710W        W39310  27.826   0.056  23.982  0.2891 -0.1047  0.0977
32711W        W39311  15.955   5.657   5.104  0.1092 -0.0412 -0.0538
32712W        W39312  28.089   5.580   5.187 -0.2355  0.1104  0.0030
32713W        W39313  19.097   3.260   9.110  0.1419  0.0387 -0.0933
32714W        W39314  27.845   2.182  20.882  0.1044  0.2731 -0.1207
32715W        W39315  20.724   6.024  22.475 -0.1147 -0.0296 -0.1531
32716W        W39316   4.616   5.171  16.973 -0.2005 -0.1132  0.2026
32717W        W39317  29.921   0.751  10.387 -0.1445  0.0283 -0.1766
32718W        W39318  21.519   7.454   8.249  0.2604 -0.1041  0.0842
32719W        W39319   8.817   6.258  20.355  0.1431  0.0307 -0.2618
32720W        W39320   1.934   5.172  10.346  0.1335 -0.0165 -0.0312
32721W        W39321   4.964   0.590   2.118 -0.2258  0.1935 -0.1599
32722W        W39322  24.160   6.787  23.960 -0.3263 -0.0965  0.0245
32723W        W39323   2.785   4.890  21.329 -0.1840 -0.0051 -0.0397
32724W        W39324  16.599   7.135  16.160 -0.1086  0.3641 -0.0439
32725W        W39325   4.164   0.964   4.615  0.0154  0.0174 -0.0102
32726W        W39326  27.882   4.439  25.722 -0.0356  0.1012  0.0713
32727W        W39327   5.047   7.699   6.855  0.0412  0.1230  0.0118
32728W        W39328  13.933   5.007   5.601 -0.1000 -0.1157 -0.0969
32729W        W39329  22.444   3.048  19.382 -0.0573 -0.1225  0.2620
32730W        W39330  27.719   4.416  24.362  0.0547  0.2076  0.1957
32731W        W39331  20.736   0.994  16.150  0.1209  0.0389 -0.0566
32732W        W39332  26.368   6.442  25.686  0.1385  0.1081  0.3299
32733W        W39333   9.505   7.794   6.835  0.1395  0.0469  0.1970
32734W        W39334   9.515   4.598  25.875  0.0997 -0.0152 -0.1131
32735W        W39335  25.553   1.376  25.917  0.0272  0.1438  0.0965
32736W        W39336   2.238   5.993  24.205  0.2847  0.0414  0.4320
32737W        W39337   5.537   4.966   5.709  0.3932 -0.0123  0.2343
32738W        W39338   7.972   4.877  21.431 -0.1692  0.0988  0.1853
32739W        W39339  17.608   5.495   8.272 -0.0822  0.0673 -0.1230
32740W        W39340  26.798   0.475  25.897 -0.0279  0.2525  0.1457
32741W        W39341   7.926   7.447   5.067 -0.1518 -0.1731  0.0372
32742W        W39342   4.598   3.193  18.050  0.2275  0.0158  0.1512
32743W        W39343   7.152   0.472   2.881 -0.1333  0.0185  0.3379
32744W        W39344  19.154   6.073   9.581 -0.0508  0.0139 -0.2484
32745W        W39345  25.366   6.395   0.426  0.1251  0.0612  0.2967
32746W        W39346  26.908   2.093  21.360 -0.0079  0.1396 -0.0528
32747W        W39347  29.459   6.203  16.944  0.0444 -0.3343 -0.0544
32748W        W39348  13.961   4.210  20.311  0.2187  0.0088  0.2159
32749W        W39349  12.957   0.044   4.372  0.4815  0.1294 -0.2083
32750W        W39350  12.625   1.354   4.073  0.1132  0.1028 -0.2683
32751W        W39351   0.182   5.038  10.385 -0.2022 -0.3430  0.1128
32752W        W39352  22.786   1.844   2.717  0.0959  0.0556 -0.1813
32753W        W39353  18.905   2.694   5.121 -0.1103  0.0911  0.0820
32754W        W39354   5.403   6.501   9.499  0.1213 -0.1165  0.1281
32755W        W39355   4.033   4.820   8.943  0.1017  0.3753 -0.3495
32756W        W39356  17.180   6.885   1.666 -0.1095  0.1291  0.1515
32757W        W39357  12.731   6.543  21.514 -0.1161  0.0919 -0.2851
32758W        W39358  17.593   2.429  16.669  0.0141  0.0665 -0.0056
32759W        W39359   8.197   7.742  22.073 -0.2761  0.0658 -0.2260
32760W        W39360  18.480   6.489   5.214 -0.3271  0.1477 -0.1117
32761W        W39361  22.549   5.556  21.027  0.0980 -0.1757  0.2168
32762W        W39362  15.245   4.259   5.370  0.2913 -0.1096  0.2436
32763W        W39363  13.635   1.209   5.501 -0.1269  0.0245 -0.0474
32764W        W39364   0.645   2.416  18.542 -0.0465  0.2180  0.0192
32765W        W39365  12.207   6.524  22.396  0.2582  0.1128  0.1317
32766W        W39366  22.934   1.265   7.000 -0.2929 -0.1795  0.0293
32767W        W39367  22.962   6.173  16.721  0.3417  0.1891  0.0288
32768W        W39368   1.323   0.781  21.958  0.0673 -0.2208 -0.2197
32769W        W39369  14.488   6.691   1.274 -0.0402  0.1806  0.0846
32770W        W39370  16.872   6.594  23.442  0.0712  0.0128 -0.0880
32771W        W39371   3.801   1.653  20.149  0.1798 -0.3253 -0.4157
32772W        W39372  29.452   7.051  22.883 -0.1187 -0.0719 -0.0707
32773W        W39373   9.407   7.388   7.203  0.2180 -0.1036 -0.1324
32774W        W39374   0.449   3.513   9.601  0.1336 -0.1183 -0.0792
32775W        W39375   7.735   0.787  10.491  0.2164 -0.1366 -0.1394
32776W        W39376  18.092   3.285  21.144  0.0812 -0.0132  0.0944
32777W        W39377  14.285   0.821  24.471 -0.0733 -0.0581 -0.1602
32778W        W39378   9.490   2.839  25.551  0.1060 -0.1874  0.1832
32779W        W39379   4.584   1.250   5.179 -0.0568 -0.2570  0.2080
32780W        W39380  22.413   1.657  20.686  0.0413  0.0690 -0.0853
32781W        W39381  14.994   4.403   3.319  0.0007  0.1235  0.3164
32782W        W39382  18.737   0.034  15.308  0.0820  0.0230  0.0808
32783W        W39383   6.757   2.533   0.759  0.0250 -0.1656  0.2899
32784W        W39384   1.507   4.133  25.075 -0.1822  0.0676 -0.0052
32785W        W39385  10.246   4.006   4.342 -0.1256  0.1222 -0.0137
32786W        W39386  23.725   0.543  19.909  0.1273  0.1669 -0.0846
32787W        W39387  17.873   6.978  20.435  0.2458 -0.0995  0.2395
32788W        W39388  23.349   3.339  17.847  0.1098 -0.1416  0.2303
32789W        W39389  24.744   2.915   7.072  0.1120  0.0177  0.2221
32790W        W39390   3.025   3.296  19.304  0.1478 -0.1188 -0.2039
32791W        W39391  19.720   3.119   1.272 -0.1540  0.1699 -0.2736
32792W        W39392   8.819   0.629   8.583 -0.0303 -0.0451 -0.1600
32793W        W39393  27.206   1.470  24.438 -0.1074 -0.0281 -0.2858
32794W        W39394   6.411   3.907  21.106 -0.1709 -0.4344  0.2971
32795W        W39395  12.305   3.630   2.136 -0.1124 -0.1596 -0.0309
32796W        W39396   6.097   4.820  21.977  0.1397  0.0999  0.3256
32797W        W39397   0.654   3.780  24.107 -0.1110 -0.1488 -0.0780
32798W        W39398   2.349   5.494  11.161  0.0139  0.0577 -0.3319
32799W        W39399  12.306   6.602   2.291  0.2134  0.1084  0.3352
32800W        W39400  12.480   1.793   4.674 -0.1035 -0.0964  0.1385
32801W        W39401  14.807   2.889   7.191 -0.1362  0.2590  0.0642
32802W        W39402  19.128   1.389  17.061  0.0046  0.0823 -0.1801
32803W        W39403  17.956   6.447  24.939 -0.0315  0.1403  0.0091
32804W        W39404  28.944   7.188   8.372  0.0153 -0.0574 -0.0689
32805W        W39405  19.265   0.949  15.090 -0.0505  0.2735  0.1862
32806W        W39406  25.908   5.950  15.605 -0.2127 -0.0322 -0.1959
32807W        W39407   4.507   3.360  21.494 -0.2664 -0.0526 -0.3097
32808W        W39408   7.313   3.883   6.218  0.0977 -0.0089 -0.0602
32809W        W39409   0.170   0.210  24.533 -0.0479 -0.3056 -0.1941
32810W        W39410  17.850   5.368  19.584 -0.0473 -0.0647 -0.0670
32811W        W39411  28.621   6.981  10.525  0.1769 -0.3198 -0.0020
32812W        W39412  16.593   3.001   7.914  0.3016  0.0416  0.2077
32813W        W39413  29.487   5.910   9.245 -0.1011 -0.0546  0.1064
32814W        W39414  22.178   2.435   0.741  0.3266 -0.3021 -0.0009
32815W        W39415   7.270   7.005  19.355 -0.0105 -0.3693 -0.0601
32816W        W39416   4.378   2.624  23.175  0.3677 -0.0781 -0.0770
32817W        W39417   0.557   7.143   3.173  0.1225  0.3523 -0.1252
32818W        W39418  28.913   3.584  22.039 -0.1623  0.1506 -0.2010
32819W        W39419  21.541   7.560  22.296  0.0440 -0.0325  0.3409
32820W        W39420  26.347   4.045  18.214 -0.1230  0.1475 -0.1940
32821W        W39421  20.531   4.674  23.240  0.2525 -0.1552 -0.0682
32822W        W39422  25.173   5.288  17.485 -0.0802  0.2322  0.1428
32823W        W39423  11.091   4.999   0.516  0.1167 -0.0216 -0.1005
32824W        W39424  22.289   2.620  25.767  0.2965  0.0897 -0.0672
32825W        W39425   0.332   7.777  17.507  0.1876 -0.1214  0.3210
32826W        W39426  12.207   7.598   4.804 -0.0128 -0.1447 -0.2452
32827W        W39427  16.361   0.585   7.799  0.0051  0.0512  0.2628
32828W        W39428  22.293   7.108  24.558  0.1797  0.0087 -0.0759
32829W        W39429  15.903   4.589   7.317  0.0728 -0.1441  0.0001
32830W        W39430   5.448   1.442  10.600 -0.1814 -0.0021  0.3627
32831W        W39431   3.385   5.997  24.780  0.1567  0.2780  0.1042
32832W        W39432  28.751   0.675  19.523 -0.3819  0.1828 -0.1055
32833W        W39433  16.851   5.411   1.120  0.0914  0.1512 -0.0363
32834W        W39434   8.613   0.832  16.909 -0.0211 -0.0647 -0.0621
32835W        W39435  11.625   0.038   0.697 -0.0348  0.2226  0.0104
32836W        W39436  22.404   7.082   2.386  0.0237  0.0878  0.0886
32837W        W39437  14.004   1.434   2.293  0.1699  0.0088 -0.1552
32838W        W39438  31.103   4.837  24.559 -0.1198  0.0758 -0.0406
32839W        W39439   2.386   0.500  12.000 -0.2372 -0.0456  0.3245
32840W        W39440  13.653   7.707   1.342 -0.0040 -0.1305 -0.2686
32841W        W39441  15.744   1.429   3.763  0.0117 -0.1208 -0.1070
32842W        W39442  13.711   6.498   6.877 -0.2527 -0.1902 -0.2865
32843W        W39443  19.950   4.247  19.787 -0.2413  0.2378  0.0038
32844W        W39444  25.145   0.327   0.979  0.1431 -0.0205  0.3611
32845W        W39445   6.825   0.161   1.554  0.2536  0.2695 -0.1945
32846W        W39446  10.289   7.410   3.007  0.2251  0.0912 -0.1845
32847W        W39447  25.383   0.000  14.855 -0.4484 -0.0154  0.0288
32848W        W39448   1.538   0.830   1.011  0.0086 -0.0503  0.0177
32849W        W39449  26.128   2.643  26.014  0.1048  0.2457 -0.4677
32850W        W39450  21.526   5.073  21.530 -0.0454  0.4003  0.0182
32851W        W39451  24.463   5.937  18.220 -0.1334 -0.0707  0.0378
32852W        W39452  25.138   7.035  17.608  0.0706 -0.3912 -0.2234
32853W        W39453  16.372   2.693  16.687 -0.2760  0.1205 -0.2924
32854W        W39454   9.574   7.272  10.728 -0.1504  0.3268  0.0183
32855W        W39455  10.045   2.624  24.894  0.2463 -0.0858  0.1205
32856W        W39456  24.150   6.711  17.004  0.0613 -0.0438  0.3213
32857W        W39457   3.249   5.715  22.256  0.0364  0.0020 -0.0297
32858W        W39458  17.333   0.713   8.067 -0.0170  0.1032 -0.0126
32859W        W39459  22.194   6.686  14.930 -0.1499  0.2190  0.4815
32860W        W39460   5.380   7.502   4.819  0.1222  0.0100 -0.0657
32861W        W39461   9.225   6.858  24.178 -0.0138 -0.0987 -0.0745
32862W        W39462   0.772   2.598  16.826  0.0994 -0.0748  0.0597
32863W        W39463  28.920   6.036  21.559  0.0661 -0.0732  0.2439
32864W        W39464  21.915   6.490  25.349  0.0001 -0.1203 -0.0473
32865W        W39465   2.169   1.854   3.154 -0.2957  0.0100  0.3643
32866W        W39466  19.315   6.208   0.642 -0.0011 -0.2387  0.0886
32867W        W39467  15.131   4.734   2.995  0.1999 -0.1184  0.1176
32868W        W39468  18.665   0.961  15.431  0.1116  0.0627  0.2215
32869W        W39469   7.014   2.402  23.572  0.2015 -0.0913  0.0160
32870W        W39470  18.079   0.600   8.964  0.3124 -0.0204  0.0114
32871W        W39471  18.142   5.923   6.605  0.0335  0.2366 -0.1643
32872W        W39472   3.726   7.630  19.657 -0.0610  0.0680  0.1457
32873W        W39473   7.437   1.448  19.275 -0.0609  0.0246  0.0026
32874W        W39474  12.068   3.693  17.568 -0.0591  0.0389 -0.0574
32875W        W39475  14.589   6.932   6.442 -0.1199 -0.0029  0.1806
32876W        W39476  26.379   0.332  15.517 -0.2267  0.0506 -0.1680
32877W        W39477  23.393   5.161   0.876 -0.2879 -0.0543 -0.0128
32878W        W39478  21.232   6.594   3.127  0.0983  0.0939  0.0788
32879W        W39479  25.597   1.951  21.563  0.1257 -0.1806  0.0025
32880W        W39480   2.892   1.505   9.656 -0.1089  0.0938  0.2203
32881W        W39481  11.572   0.085  26.023  0.1232  0.1134  0.0639
32882W        W39482  22.618   3.611  19.051  0.2269 -0.1062 -0.1406
32883W        W39483  18.350   0.271   0.756  0.3576  0.1880 -0.0291
32884W        W39484  26.177   4.205  21.754 -0.2187 -0.2620 -0.1066
32885W        W39485  30.782   6.495   5.775 -0.0273 -0.0760  0.0642
32886W        W39486  25.039   2.643   8.757  0.1401  0.0400 -0.2692
32887W        W39487   8.838   4.280  23.759 -0.2916 -0.3164 -0.4397
32888W        W39488   9.098   7.753  15.357 -0.0534 -0.0105  0.3385
32889W        W39489  13.618   4.079   5.261 -0.0080 -0.2309  0.3206
32890W        W39490  16.091   5.642  19.360  0.0494 -0.1893 -0.0298
32891W        W39491  25.140   6.335  10.881  0.1326 -0.0358  0.2690
32892W        W39492   4.593   7.407   7.451  0.2802 -0.2880 -0.1817
32893W        W39493   1.609   6.238   4.796  0.3141 -0.1479 -0.1132
32894W        W39494   5.291   2.777  24.581 -0.1744  0.2734  0.0355
32895W        W39495  20.319   4.866   6.154 -0.0020 -0.1607  0.1164
32896W        W39496   7.005   4.333  17.112 -0.0289  0.2798 -0.2612
32897W        W39497  12.516   0.668   9.833  0.0962 -0.1219 -0.1102
32898W        W39498   3.694   2.123  17.837  0.0615 -0.1027  0.1523
32899W        W39499  10.378   3.639   6.541 -0.0446  0.0249  0.1190
32900W        W39500  12.129   4.914  19.722  0.1119 -0.0122  0.1465
32901W        W39501  21.957   7.205   4.652 -0.3368  0.2750 -0.0803
32902W        W39502   8.291   1.798  19.590 -0.1928  0.1891  0.2165
32903W        W39503  11.716   5.456   3.826 -0.0560  0.1081  0.2808
32904W        W39504  28.254   6.118  25.974 -0.0334 -0.0632  0.3617
32905W        W39505  30.564   3.256   5.714  0.2337  0.0639 -0.0359
32906W        W39506  20.516   2.176  26.021 -0.0920  0.3629 -0.0722
32907W        W39507  16.558   0.267  18.450 -0.0595  0.3728 -0.0396
32908W        W39508  20.338   1.163   2.621 -0.0129 -0.1090  0.1724
32909W        W39509   6.553   4.438  23.004 -0.4508 -0.4144 -0.2207
32910W        W39510  19.642   5.621   7.191 -0.2144 -0.0089  0.1869
32911W        W39511  27.689   6.439   9.452  0.0962 -0.0647 -0.2762
32912W        W39512   9.838   2.617   9.294 -0.0952 -0.0850  0.2986
32913W        W39513  22.675   3.618   6.932  0.0029 -0.1460  0.2656
32914W        W39514  18.881   7.142  18.015 -0.0623  0.0853 -0.1779
32915W        W39515  20.256   3.404   2.336  0.0968 -0.0198  0.1394
32916W        W39516   9.643   7.494  21.402  0.2156  0.2170 -0.1892
32917W        W39517  25.414   1.090   6.569  0.0229  0.1931  0.0125
32918W        W39518  28.036   7.412   4.705 -0.0250  0.3874  0.1383
32919W        W39519   1.128   0.446   5.102 -0.1072 -0.0959  0.3293
32920W        W39520  22.873   3.257   9.792 -0.1520  0.1622  0.0549
32921W        W39521  12.750   7.358  20.651 -0.0294 -0.4152 -0.1155
32922W        W39522   8.531   2.176  16.817 -0.1535 -0.2204 -0.0054
32923W        W39523  20.800   5.978  21.986  0.0520  0.1859 -0.0062
32924W        W39524  23.145   5.949   4.423 -0.2997 -0.2502 -0.1080
32925W        W39525  15.811   0.361   4.828 -0.2176  0.1683  0.0907
32926W        W39526  28.613   1.241  22.170 -0.2041  0.1977  0.0626
32927W        W39527  24.088   6.819  22.843 -0.2245 -0.1350  0.0287
32928W        W39528   9.750   3.334  20.946  0.1176 -0.0671 -0.0311
32929W        W39529  11.926   1.841   0.973  0.0329  0.0081 -0.0174
32930W        W39530  25.135   2.453   6.547 -0.1119 -0.3779  0.3150
32931W        W39531  22.266   5.110  16.593 -0.1048 -0.3083 -0.1069
32932W        W39532  12.792   3.750   5.462 -0.0371 -0.0674 -0.1151
32933W        W39533   0.435   3.501   8.117  0.0050  0.1395 -0.2990
32934W        W39534  26.930   2.708  25.201  0.0605 -0.0611 -0.0299
32935W        W39535  24.158   4.154   1.489  0.0150  0.2694  0.1297
32936W        W39536   1.517   3.149   8.573  0.1848 -0.3304  0.0136
32937W        W39537  29.766   2.060   9.283  0.2197  0.2251  0.0839
32938W        W39538  13.440   6.394  22.710  0.0869  0.1589 -0.1130
32939W        W39539   4.631   1.889  19.910  0.0853 -0.1481  0.1816
32940W        W39540   5.837   7.166  24.915  0.0780 -0.1176 -0.0261
32941W        W39541  17.028   3.571   0.118  0.0841 -0.3886 -0.2554
32942W        W39542  31.286   7.768   3.320  0.2164 -0.4114 -0.0051
32943W        W39543  16.930   6.230  21.403 -0.2330 -0.4734  0.0456
32944W        W39544  26.365   1.977   5.498 -0.3443 -0.1615  0.2373
32945W        W39545   4.934   6.611   1.372  0.1227 -0.2729  0.1351
32946W        W39546  23.280   0.675  18.410  0.4285  0.0515 -0.0502
32947W        W39547  15.291   1.826   4.621  0.3139  0.2687 -0.0587
32948W        W39548   6.925   5.068  10.283  0.4516 -0.2614 -0.1612
32949W        W39549  29.511   4.935   7.617 -0.0272  0.1195  0.3910
32950W        W39550   7.432   6.745   8.356  0.0448  0.0882  0.2383
32951W        W39551  13.577   5.093   3.262 -0.1713 -0.1101 -0.0902
32952W        W39552   8.554   1.366   0.742  0.0733 -0.0657 -0.0231
32953W        W39553   0.380   5.501   3.066 -0.0570 -0.0291  0.1075
32954W        W39554  30.615   4.921  16.997  0.0714  0.3046 -0.0471
32955W        W39555  27.911   7.500   9.639 -0.1459 -0.0897  0.3519
32956W        W39556  26.887   4.852  20.075 -0.1020  0.3154  0.1907
32957W        W39557   0.717   2.787  18.238 -0.1919  0.1136 -0.1199
32958W        W39558  28.626   0.652  17.279 -0.1672  0.0303 -0.2021
32959W        W39559  20.113   6.639   9.206 -0.1659  0.0760 -0.1539
32960W        W39560   1.314   0.275  20.901  0.1552 -0.2673  0.3454
32961W        W39561  30.552   0.015   7.030 -0.1778  0.1655 -0.2619
32962W        W39562   4.448   4.655   3.899 -0.1628  0.1261  0.0084
32963W        W39563   7.018   7.291  16.438  0.2118 -0.1543  0.3116
32964W        W39564   9.099   1.447   8.338 -0.0840  0.2069  0.0320
32965W        W39565  24.762   2.060   2.676 -0.0108  0.0539  0.1382
32966W        W39566  10.187   2.663  15.520 -0.0097 -0.0501 -0.2503
32967W        W39567  21.966   6.993  25.324  0.2571  0.1822 -0.0125
32968W        W39568   2.683   4.661  19.949 -0.1205 -0.3364  0.0910
32969W        W39569   8.907   5.018  25.395 -0.3639  0.1332  0.1749
32970W        W39570  15.055   1.705  20.694 -0.0809  0.1769  0.1407
32971W        W39571  12.497   0.991   3.756 -0.1025  0.0385 -0.1804
32972W        W39572   8.337   6.175  23.434  0.2188  0.3157 -0.0400
32973W        W39573   3.265   4.246  16.481 -0.1729  0.0841 -0.0335
32974W        W39574   6.377   3.292  24.152 -0.1605  0.1876 -0.3026
32975W        W39575  13.472   2.105  21.042 -0.2306 -0.1471 -0.0081
32976W        W39576   8.377   1.929   2.441  0.0718 -0.1730 -0.1225
32977W        W39577  28.861   3.866  23.998  0.1728  0.1702 -0.0682
32978W        W39578   9.944   6.001  17.113 -0.0458 -0.1798 -0.1581
32979W        W39579  19.055   1.734  19.789  0.4242  0.1757  0.0152
32980W        W39580  14.033   2.962  16.065 -0.1451  0.0641  0.1321
32981W        W39581   2.348   6.083   1.803  0.1034 -0.1680 -0.1670
32982W        W39582   0.016   2.570  23.570 -0.2868  0.0879 -0.3153
32983W        W39583  17.995   3.458  26.151  0.0094 -0.2780  0.1781
32984W        W39584   6.030   4.308   3.090 -0.1858  0.2527 -0.0727
32985W        W39585  17.455   5.715   9.140 -0.2388 -0.1543 -0.2640
32986W        W39586   0.980   2.564   2.502  0.2874 -0.2155 -0.2138
32987W        W39587   9.593   6.291  25.377 -0.0458  0.0931 -0.0286
32988W        W39588  30.174   3.344  10.150 -0.0321 -0.2355  0.2105
32989W        W39589  16.231   5.604   0.502  0.1819  0.0528  0.0724
32990W        W39590   5.881   6.243  20.118 -0.0017 -0.1780  0.2055
32991W        W39591  23.575   7.475  18.217  0.3358  0.0982 -0.2143
32992W        W39592  10.340   2.284  21.386  0.2484  0.2493 -0.0047
32993W        W39593  16.014   2.090   6.037 -0.0773 -0.3506 -0.0197
32994W        W39594   6.029   7.443   5.389  0.0254  0.0264 -0.0279
32995W        W39595  16.564   7.151  11.099  0.2076  0.1229  0.1205
32996W        W39596  22.955   7.582  16.385 -0.1531  0.1726 -0.1728
32997W        W39597  27.185   6.196   0.967 -0.4468 -0.0421  0.1370
32998W        W39598   9.763   5.066   3.119  0.0531 -0.2802  0.1344
32999W        W39599   4.613   7.543  17.776 -0.0629  0.0892 -0.1685
33000W        W39600  14.003   4.704  22.433 -0.1622  0.0049  0.1264
33001W        W39601  28.991   3.891  25.860  0.2609 -0.1003 -0.2230
33002W        W39602  10.082   3.624  11.172 -0.1355  0.3412 -0.1611
33003W        W39603  19.370   6.283  20.890 -0.1344 -0.2108  0.1014
33004W        W39604  26.894   6.069   9.385 -0.2617 -0.0462  0.0477
33005W        W39605  24.311   3.554  25.390  0.2464 -0.2769  0.2039
33006W        W39606  10.411   3.517  10.792 -0.0420  0.0292 -0.0484
33007W        W39607   3.151   4.249  24.658  0.2087 -0.1649  0.0722
33008W        W39608  29.260   0.087  19.965 -0.1115 -0.3641 -0.0337
33009W        W39609   7.645   3.515  24.408  0.0619 -0.2210 -0.1179
33010W        W39610  21.935   1.666   2.368  0.0503  0.2269  0.1235
33011W        W39611  18.774   1.561   2.703 -0.0649  0.1012 -0.3082
33012W        W39612  11.236   3.724  16.271 -0.2157 -0.1485  0.0681
33013W        W39613  27.375   5.937   9.093 -0.0185  0.0821  0.0766
33014W        W39614  14.969   7.157  23.817  0.1644  0.0903 -0.0700
33015W        W39615  28.940   3.739   3.567 -0.1619  0.1348 -0.1941
33016W        W39616  22.765   1.509  21.918 -0.1376  0.0979  0.0233
33017W        W39617   1.271   4.503   8.398 -0.0938  0.0319  0.2478
33018W        W39618  25.828   5.455   6.120  0.2542  0.0082  0.1102
33019W        W39619  22.323   2.701  22.708  0.1146  0.0021  0.1371
33020W        W39620  25.039   7.680  15.232 -0.0973 -0.0473 -0.0652
33021W        W39621  11.861   5.147  15.252  0.0653  0.2465  0.0247
33022W        W39622   4.283   2.229  25.232 -0.0476  0.2481  0.1379
33023W        W39623  31.235   1.300   2.113  0.0819 -0.0110 -0.1391
33024W        W39624  16.620   1.046   5.466  0.0458  0.2112 -0.0420
33025W        W39625  23.640   0.610   1.969 -0.0384 -0.1923 -0.0150
33026W        W39626   6.433   3.311   6.084  0.0698  0.1076  0.3014
33027W        W39627   7.844   7.719   7.099 -0.1024  0.0186  0.0584
33028W        W39628   7.020   4.480  21.727 -0.0104  0.2008  0.1933
33029W        W39629  30.886   1.252  22.019 -0.0734  0.1070 -0.0709
33030W        W39630  28.358   4.705  19.014 -0.2391 -0.2311 -0.0234
33031W        W39631   9.967   5.094  18.718 -0.0205 -0.0525  0.2987
33032W        W39632   7.016   7.749  17.356  0.1326  0.3329 -0.0588
33033W        W39633  21.040   3.138  20.175 -0.0495  0.2724 -0.2509
33034W        W39634  29.059   6.907   9.413  0.0589 -0.0758  0.0219
33035W        W39635  15.527   4.585   0.097  0.0724  0.1833  0.1923
33036W        W39636   9.680   2.205  10.446  0.2177  0.1431 -0.0332
33037W        W39637  31.044   5.529  22.397 -0.0408 -0.0363  0.3786
33038W        W39638   0.523   3.956   6.004 -0.0520 -0.0218 -0.0875
33039W        W39639  28.225   6.262  17.045 -0.1317 -0.1306 -0.0911
33040W        W39640   6.968   0.946  21.574 -0.1452 -0.1507 -0.1854
33041W        W39641  26.778   0.707   6.394 -0.1309 -0.4008  0.3946
33042W        W39642  30.485   2.966  16.330  0.0805  0.0155  0.1977
33043W        W39643   2.982   3.349   2.800 -0.1546 -0.0051 -0.0089
33044W        W39644  21.203   7.220  15.292 -0.0446  0.2285  0.0845
33045W        W39645  16.207   0.641  25.125  0.1670 -0.0330  0.1462
33046W        W39646   4.115   5.296   9.034 -0.1779  0.0334 -0.0410
33047W        W39647  20.315   3.997  16.544 -0.0861  0.0337 -0.0751
33048W        W39648  27.839   6.704  20.648  0.1609 -0.1148 -0.2691
33049W        W39649   4.796   5.466   8.106 -0.1013 -0.3587 -0.1329
33050W        W39650  29.592   0.861  23.244  0.1486  0.0582  0.1786
33051W        W39651  14.992   2.351  25.228  0.0413  0.4123  0.4373
33052W        W39652  12.163   5.089  25.317  0.0506 -0.0265  0.0624
33053W        W39653  20.630   0.284  20.333  0.0938 -0.1456  0.2130
33054W        W39654  19.300   6.017   4.312 -0.1695 -0.0222 -0.1842
33055W        W39655  22.130   3.926  10.978 -0.2272  0.0312 -0.1202
33056W        W39656   0.743   6.978   9.671 -0.0285  0.2083 -0.0705
33057W        W39657  23.037   2.092  17.781  0.2165 -0.1120  0.2355
33058W        W39658  13.012   2.508   4.400  0.0393  0.2006 -0.0769
33059W        W39659   6.902   7.253  10.329  0.1095  0.3603  0.0722
33060W        W39660  25.029   2.901  21.758 -0.3571  0.0700 -0.0048
33061W        W39661   7.949   3.194   2.483 -0.1216  0.2413 -0.3414
33062W        W39662  14.145   1.709  25.019 -0.1446 -0.3390  0.0158
33063W        W39663   1.339   4.955   5.920  0.5538 -0.1051 -0.0352
33064W        W39664  18.291   3.770   9.188 -0.0604  0.0129 -0.1055
33065W        W39665  18.227   0.455  17.265  0.1460 -0.2166 -0.1129
33066W        W39666  28.407   1.269   8.335  0.1850  0.1418 -0.0579
33067W        W39667  30.100   1.283   6.573 -0.1260  0.1418  0.1718
33068W        W39668  10.143   0.201   2.822 -0.0299 -0.0275 -0.0170
33069W        W39669   6.245   0.970  20.853 -0.0297  0.0528 -0.1755
33070W        W39670   8.017   5.208  20.728  0.3613 -0.1104 -0.0245
33071W        W39671  18.601   2.573  16.328 -0.1308  0.3686 -0.1104
33072W        W39672   0.516   1.840   7.998  0.1189  0.5408  0.0199
33073W        W39673  30.568   5.125  20.411 -0.2738  0.0276  0.1512
33074W        W39674  24.396   0.326   6.611  0.1815  0.1435 -0.1370
33075W        W39675   4.541   0.593  20.498 -0.1083  0.2422  0.0096
33076W        W39676   8.922   2.785   1.096 -0.0157  0.0145 -0.1196
33077W        W39677   3.937   5.769   3.827  0.0411  0.0966 -0.2092
33078W        W39678  21.707   6.239   4.627 -0.2485 -0.2746  0.0129
33079W        W39679   1.328   5.014  17.142  0.2154 -0.0964  0.3443
33080W        W39680   0.044   2.373  20.227  0.1037 -0.1719 -0.1416
33081W        W39681  31.015   1.643   2.388  0.0097  0.0415  0.0902
33082W        W39682  21.970   3.014   3.071 -0.0902 -0.2055  0.0148
33083W        W39683  22.871   5.255  22.196 -0.0710  0.0358  0.0656
33084W        W39684   2.007   5.592   9.373 -0.3399 -0.0141 -0.3728
33085W        W39685   4.016   1.394   9.455  0.3485 -0.1608  0.0344
33086W        W39686  27.512   3.706  20.908 -0.3141  0.0069  0.1165
33087W        W39687  26.552   0.597  21.267 -0.1096 -0.1066 -0.2349
33088W        W39688  10.481   5.310  20.311 -0.0811 -0.0620 -0.3049
33089W        W39689  10.134   2.602   1.647  0.2736  0.1210 -0.0806
33090W        W39690  13.787   0.869   4.696  0.3540 -0.1847  0.1173
33091W        W39691   2.673   6.992  10.982 -0.1096  0.0792 -0.0867
33092W        W39692  19.300   0.281  20.465 -0.1737  0.0237  0.2962
33093W        W39693  14.064   3.436  24.928 -0.0112  0.1105 -0.1754
33094W        W39694  14.415   0.815   9.872  0.0888 -0.0306 -0.0573
33095W        W39695   0.192   3.298  17.628 -0.2834  0.0821  0.2754
33096W        W39696  29.861   6.988   4.446  0.0019  0.0334  0.0870
33097W        W39697  13.430   0.925   6.496  0.0560 -0.1526 -0.2498
33098W        W39698   5.799   1.865   4.869  0.0415  0.0364  0.0179
33099W        W39699  11.823   5.027   4.774 -0.0791 -0.2117  0.1544
33100W        W39700  24.688   0.903  22.711  0.2364 -0.0296  0.1331
33101W        W39701  23.140   6.097  26.077 -0.1447  0.0142 -0.0832
33102W        W39702   6.948   1.034  18.545 -0.0755 -0.0738 -0.1900
33103W        W39703  24.795   7.360  16.006 -0.0642  0.0570 -0.0065
33104W        W39704   7.478   1.665   5.894 -0.0125 -0.1152  0.1851
33105W        W39705  22.546   2.839  15.925  0.1161  0.1847 -0.0812
33106W        W39706   6.248   0.107  10.230 -0.1028 -0.2042 -0.0305
33107W        W39707  30.415   7.768   3.614 -0.1931 -0.4008  0.1805
33108W        W39708  29.186   2.694  16.977 -0.1199 -0.1024 -0.0613
33109W        W39709  24.394   0.462   5.435 -0.2101  0.1263 -0.0443
33110W        W39710  19.266   6.077   1.572  0.1619 -0.0958  0.0719
33111W        W39711  17.108   6.781   2.115 -0.0610  0.1212  0.0982
33112W        W39712  20.404   5.144  23.469  0.2607  0.1002 -0.2083
33113W        W39713  13.651   4.945   2.799  0.0710 -0.1769 -0.3752
33114W        W39714  29.865   1.837  26.009 -0.1571 -0.0468  0.2555
33115W        W39715   6.618   6.379   6.049 -0.1219 -0.0490  0.0502
33116W        W39716  26.487   6.115  24.324  0.0068  0.3976 -0.1282
33117W        W39717  18.595   0.496   8.736 -0.1574 -0.1536 -0.0051
33118W        W39718  28.887   7.289  10.238  0.1358  0.0419  0.1787
33119W        W39719  26.766   5.272  21.937 -0.1779 -0.1788 -0.0851
33120W        W39720   6.756   5.588   2.112  0.0013  0.0348 -0.1936
33121W        W39721  30.083   7.704   0.949  0.1431  0.0533  0.0825
33122W        W39722   9.721   7.417   2.069  0.0889 -0.0906 -0.1343
33123W        W39723  31.194   6.538   2.675  0.0970  0.1017  0.2730
33124W        W39724  20.359   2.399   1.082 -0.2717  0.1723  0.2344
33125W        W39725  14.717   7.454  19.983 -0.2906  0.6239  0.0566
33126W        W39726  21.847   7.696   9.061 -0.0967  0.3534 -0.1047
33127W        W39727  27.250   2.649   8.745 -0.1082  0.2045 -0.0521
33128W        W39728  16.483   6.299  21.809  0.0027 -0.0791  0.2546
33129W        W39729  30.242   3.519   1.413 -0.2750  0.0067 -0.0374
33130W        W39730  18.371   4.310  21.770  0.0594  0.3781 -0.0921
33131W        W39731  24.435   5.468  18.641 -0.0368 -0.1913 -0.2488
33132W        W39732   4.919   3.400   5.012 -0.0064  0.1360  0.0162
33133W        W39733   2.635   3.679  25.721  0.1685 -0.0184  0.1804
33134W        W39734  29.471   4.958   2.991 -0.0795 -0.2735 -0.0894
33135W        W39735  11.916   7.106  19.597  0.1210 -0.0060 -0.0401
33136W        W39736  16.612   1.669  25.761  0.2056  0.1307  0.0014
33137W        W39737  15.911   1.538  22.171 -0.1723  0.0205  0.1141
33138W        W39738  15.858   6.466  10.453  0.2370 -0.0765  0.1304
33139W        W39739  18.017   6.268   8.555 -0.1526  0.3135  0.2187
33140W        W39740  16.734   4.783  24.585  0.0606  0.0537 -0.2892
33141W        W39741   5.081   5.392  18.710  0.1573  0.0882 -0.2609
33142W        W39742   0.227   0.461   2.654 -0.2054  0.0825 -0.1953
33143W        W39743  17.686   0.471  24.062 -0.3944  0.3040 -0.2056
33144W        W39744   0.329   7.305  18.788 -0.2781 -0.0813  0.1185
33145W        W39745  26.071   6.375   2.793  0.2174 -0.0791 -0.0313
33146W        W39746  25.333   2.668  20.919  0.0639  0.1068 -0.0247
33147W        W39747  11.103   0.634  25.736 -0.2175  0.0859  0.1357
33148W        W39748   3.573   3.292  24.919 -0.3238  0.4687 -0.0967
33149W        W39749  16.593   7.553  16.509 -0.2262 -0.0777 -0.0078
33150W        W39750  25.044   3.285  19.762 -0.1153 -0.1338 -0.1808
33151W        W39751  16.387   7.176  24.966  0.0467  0.2608 -0.2571
33152W        W39752  29.357   1.269  17.899 -0.2453 -0.0394  0.1216
33153W        W39753   8.639   7.434   6.534  0.2114  0.1448  0.0667
33154W        W39754   7.173   0.960  19.438 -0.0401  0.0963 -0.0283
33155W        W39755  27.281   5.749  24.869  0.3576  0.0701 -0.1284
33156W        W39756  29.260   1.963   9.181 -0.2298  0.1597 -0.1038
33157W        W39757   6.280   4.952  20.478 -0.2192  0.1463 -0.0288
33158W        W39758  18.480   6.127   0.904  0.3288  0.1655  0.0552
33159W        W39759  31.163   6.038   2.923  0.2451  0.1328 -0.0484
33160W        W39760   2.075   5.679   8.508  0.1279  0.0427  0.0559
33161W        W39761   9.217   7.453   3.539 -0.1236  0.1697  0.1084
33162W        W39762  30.997   0.905   8.794  0.0865  0.0453 -0.2090
33163W        W39763  22.864   5.528   0.723 -0.2495  0.2158  0.3510
33164W        W39764  23.816   0.246  18.827  0.3601  0.1513 -0.0032
33165W        W39765  15.840   1.023  22.211 -0.0405 -0.0919  0.1062
33166W        W39766  19.779   1.088   3.543 -0.1535 -0.2548  0.0463
33167W        W39767   1.526   4.083   5.235 -0.1074 -0.0266 -0.1686
33168W        W39768  11.377   1.281   3.545 -0.2695  0.2118  0.1090
33169W        W39769   5.036   5.801   1.462  0.3531 -0.0236  0.2305
33170W        W39770  23.561   6.733   0.967  0.1422  0.0185  0.0804
33171W        W39771   3.638   6.848  18.174 -0.3941 -0.0664  0.0988
33172W        W39772  13.932   1.736  16.738  0.0178 -0.0821 -0.2083
33173W        W39773  14.876   0.997  23.692  0.0483  0.2699 -0.2369
33174W        W39774  13.431   0.593   3.805 -0.0038  0.1652  0.1124
33175W        W39775  22.363   1.924   1.076 -0.2522  0.0936 -0.0340
33176W        W39776  10.775   1.955  21.282  0.1084 -0.1965  0.0240
33177W        W39777  17.693   2.414  24.055  0.0963  0.1648 -0.4315
33178W        W39778  13.050   3.594  11.242  0.1483 -0.0888  0.0123
33179W        W39779  10.271   2.788   9.378 -0.2359  0.0298 -0.0304
33180W        W39780  29.828   3.762   5.689  0.1380  0.3418 -0.0134
33181W        W39781  11.327   0.451  22.542 -0.0640  0.0446 -0.1535
33182W        W39782  11.642   3.752   8.981 -0.0615  0.0344  0.2016
33183W        W39783   2.586   1.914  22.670  0.0086  0.2619  0.3644
33184W        W39784   5.475   1.233  23.934 -0.3952 -0.0651 -0.2190
33185W        W39785   3.858   4.694   5.921  0.2773 -0.0551 -0.2183
33186W        W39786   8.281   5.880   3.735 -0.1947 -0.0351  0.1384
33187W        W39787  29.924   3.523  15.680  0.0528 -0.0696  0.0954
33188W        W39788  31.072   4.465   1.143 -0.1280  0.0123  0.1045
33189W        W39789  26.071   3.445  10.583  0.0731 -0.1390  0.0383
33190W        W39790  24.879   3.129  26.014 -0.1089 -0.1079  0.0702
33191W        W39791   7.326   6.076  18.046 -0.1546  0.0309  0.0604
33192W        W39792  28.968   5.268  10.928 -0.1655 -0.1711  0.0117
33193W        W39793  26.802   1.489  19.644 -0.2020  0.1597  0.1795
33194W        W39794   0.977   3.073  11.370 -0.6404  0.0831 -0.2792
33195W        W39795  25.130   3.122  23.422  0.0713 -0.1094  0.0516
33196W        W39796   8.251   4.919   4.901  0.2645 -0.0881 -0.1097
33197W        W39797  21.479   3.503  14.730  0.5695 -0.2640 -0.1561
33198W        W39798  24.949   6.441   9.685 -0.0170  0.0446  0.3650
33199W        W39799   1.318   3.788  24.020 -0.0349  0.1755 -0.3481
33200W        W39800  28.164   2.041  22.440 -0.2131  0.2073 -0.0737
33201W        W39801  20.170   3.012  16.401  0.0534  0.0673  0.1136
33202W        W39802   5.871   0.651   2.634 -0.0128 -0.0240  0.0939
33203W        W39803  10.124   7.697   7.947  0.0809 -0.1656 -0.3826
33204W        W39804   9.652   0.946   0.034 -0.0115 -0.1611 -0.0175
33205W        W39805  10.708   6.771   7.613  0.0499  0.0766 -0.0922
33206W        W39806   9.563   7.543  16.981  0.1019  0.2045 -0.4119
33207W        W39807  29.573   1.133  19.456  0.1132 -0.1205 -0.1281
33208W        W39808  11.011   3.063   3.235  0.1264 -0.0324 -0.1500
33209W        W39809  24.447   1.841   4.454 -0.0844  0.1245  0.0942
33210W        W39810   2.850   4.441  18.764  0.2394 -0.2105  0.2113
33211W        W39811  10.164   3.520  15.007  0.3392 -0.1534 -0.1958
33212W        W39812   9.834   0.334  15.169 -0.1617 -0.1434 -0.0293
33213W        W39813   2.276   6.535  22.805  0.1581 -0.1532 -0.1594
33214W        W39814   8.946   2.332   6.088 -0.1679 -0.0871 -0.2350
33215W        W39815  21.447   6.637  23.541 -0.2339  0.2089 -0.2448
33216W        W39816  23.021   1.955   4.438 -0.0129 -0.1076 -0.1080
33217W        W39817  12.106   4.850  15.605  0.2022  0.0779 -0.1320
33218W        W39818  16.077   7.140  22.619 -0.1594 -0.1578  0.0866
33219W        W39819  24.074   2.328  22.867  0.3164 -0.3719 -0.2341
33220W        W39820   7.600   7.623   8.570 -0.0757  0.1814 -0.0118
33221W        W39821   6.871   6.009   5.833  0.0420  0.1434  0.1247
33222W        W39822  24.527   2.057  18.907  0.2380 -0.0877 -0.0432
33223W        W39823  22.448   2.984   3.887 -0.0212  0.3484  0.0109
33224W        W39824  12.104   1.240   7.583  0.0785  0.0125  0.1411
33225W        W39825   1.409   7.224  11.696  0.0011 -0.1827 -0.1468
33226W        W39826   3.570   2.330  11.318 -0.1494  0.2879 -0.1614
33227W        W39827   7.284   5.087   9.130  0.1214  0.1224  0.1049
33228W        W39828   3.787   7.392  11.538 -0.0346 -0.2187  0.2778
33229W        W39829  13.348   0.001  20.209 -0.0983 -0.3142  0.2418
33230W        W39830   2.924   3.398   3.811 -0.0447  0.1281  0.3755
33231W        W39831  29.154   6.191   6.007 -0.3046  0.1419  0.2644
33232W        W39832  25.978   1.283   4.915  0.0652  0.3088 -0.2400
33233W        W39833  22.111   7.600  19.118 -0.3275 -0.1581  0.2033
33234W        W39834   2.110   6.912  15.655  0.1529 -0.2117  0.3856
33235W        W39835  24.697   7.113  19.718 -0.3066  0.1930 -0.0633
33236W        W39836   0.383   1.573   2.467 -0.1418 -0.1971 -0.2469
33237W        W39837  12.431   4.125   6.904  0.0238 -0.1132 -0.1041
33238W        W39838   8.358   7.169  26.109 -0.1715  0.2704 -0.0236
33239W        W39839  23.693   5.730   1.412  0.2299  0.2233 -0.0132
33240W        W39840   8.492   2.526  15.383 -0.1014  0.2658  0.0493
33241W        W39841   8.399   3.457   2.608 -0.2256 -0.0253  0.1201
33242W        W39842  29.148   2.689  17.473 -0.1428  0.1989  0.1057
33243W        W39843  20.201   2.138  17.264 -0.0809 -0.0788 -0.0252
33244W        W39844  17.517   0.667  17.683 -0.1271 -0.1258 -0.1783
33245W        W39845   3.903   2.513   8.707 -0.1248  0.1890  0.3822
33246W        W39846  17.621   0.837   2.904  0.2187  0.2667  0.2243
33247W        W39847  21.840   6.574  15.573  0.2112 -0.2735  0.2203
33248W        W39848  28.921   4.372  25.787  0.0625 -0.1187 -0.1203
33249W        W39849  24.259   0.906  23.073 -0.2111  0.3641  0.0462
33250W        W39850  26.967   4.298   3.873 -0.0834  0.1399  0.1086
33251W        W39851  21.847   5.819  23.837  0.3827  0.0557 -0.3084
33252W        W39852  26.640   2.965   3.306  0.3262  0.0085  0.0476
33253W        W39853  22.704   1.449  20.225  0.4199  0.2211 -0.2469
33254W        W39854  11.794   1.723   2.664 -0.5245 -0.2253 -0.0280
33255W        W39855  20.811   3.762   8.108  0.1747  0.0830 -0.0335
33256W        W39856  13.979   2.843   0.727 -0.1138 -0.2024  0.1600
33257W        W39857   4.635   7.642  24.370 -0.0040 -0.4415  0.0391
33258W        W39858   3.467   5.061  20.098  0.0502 -0.1923 -0.1357
33259W        W39859  28.329   6.319   0.252  0.2890 -0.4357 -0.0694
33260W        W39860  16.729   1.094  20.346 -0.2719  0.1582  0.3796
33261W        W39861   1.851   5.269  25.275 -0.0026 -0.0950 -0.2871
33262W        W39862  25.670   0.720  15.631 -0.0061  0.1641 -0.1168
33263W        W39863   9.080   1.337   7.809  0.2887  0.0512  0.1916
33264W        W39864  11.427   3.855  25.807  0.2875  0.1333 -0.0988
33265W        W39865   7.053   3.994  17.694 -0.0723  0.2385  0.2545
33266W        W39866   4.173   7.500  16.425  0.0659  0.0496 -0.0847
33267W        W39867  26.473   5.743   5.702 -0.2540 -0.2348  0.4402
33268W        W39868  11.122   1.110   5.935  0.0992 -0.1563  0.0053
33269W        W39869  18.256   0.878  24.782 -0.0651 -0.3997  0.1623
33270W        W39870   8.754   5.827  22.383 -0.2090 -0.1510 -0.1593
33271W        W39871   1.376   6.766  20.781 -0.2686  0.0988 -0.2454
33272W        W39872  23.130   2.377  18.628  0.2894 -0.2389 -0.0482
33273W        W39873  21.419   5.782  10.972 -0.0768  0.2494  0.1179
33274W        W39874  19.474   1.288  21.115 -0.0854 -0.2657  0.1544
33275W        W39875  23.049   3.939  24.870 -0.0558  0.0992  0.1094
33276W        W39876  29.386   1.819  23.313  0.0709 -0.1702  0.0583
33277W        W39877   3.913   3.411  15.018 -0.1630 -0.2802 -0.0668
33278W        W39878  12.884   1.819   0.972  0.0027 -0.1751 -0.1298
33279W        W39879   4.658   6.209  21.737 -0.1823 -0.0516  0.2387
33280W        W39880  17.033   5.151  20.183  0.1637  0.3032 -0.0135
33281W        W39881   3.897   0.786  10.214  0.2856  0.0486  0.0061
33282W        W39882   7.446   2.583  19.359  0.1505  0.0760  0.0808
33283W        W39883   2.057   3.740   9.784  0.3125 -0.1397  0.0037
33284W        W39884  29.566   4.066  22.656 -0.2463 -0.1045 -0.0285
33285W        W39885  27.846   6.726  10.133  0.3812  0.1528 -0.0050
33286W        W39886   1.252   2.663  11.383  0.3360 -0.5585  0.1327
33287W        W39887  19.312   4.648   9.580 -0.2943 -0.4076 -0.0083
33288W        W39888  16.808   6.533   7.707  0.0827  0.0358 -0.0693
33289W        W39889  22.341   2.932   9.417 -0.1645 -0.1977  0.0160
33290W        W39890   1.396   7.537   0.591 -0.2018 -0.1069 -0.2326
33291W        W39891   9.057   1.920  20.469  0.1314  0.1602  0.4329
33292W        W39892  19.824   0.884  15.054 -0.1001 -0.0923 -0.0275
33293W        W39893   7.698   2.867  21.948 -0.1099  0.0808 -0.2074
33294W        W39894  29.600   6.906  23.300 -0.1564 -0.1075 -0.2389
33295W        W39895  26.749   3.807  23.021  0.3513 -0.0183 -0.4843
33296W        W39896  11.407   7.709  15.681  0.0004  0.1488 -0.1032
33297W        W39897   0.483   3.210   2.779  0.0649  0.1089  0.1751
33298W        W39898  14.192   0.073  24.252  0.2179  0.0681 -0.1922
33299W        W39899  24.888   1.803   4.775 -0.1504  0.1457  0.0834
33300W        W39900  17.422   4.095  23.661 -0.0301  0.3393  0.0463
33301W        W39901  25.875   5.635  10.296  0.2290  0.0807  0.1716
33302W        W39902   9.554   2.242   2.594 -0.3307 -0.1413 -0.3790
33303W        W39903  19.179   5.844  18.446  0.0945  0.0408  0.0398
33304W        W39904  20.632   2.014  15.646 -0.2968  0.0049 -0.2150
33305W        W39905   1.136   6.572  16.395 -0.4175 -0.0939  0.0979
33306W        W39906   4.693   4.659  22.263 -0.0052  0.4621  0.4047
33307W        W39907   0.936   5.906   4.497  0.1914 -0.1009 -0.0230
33308W        W39908  27.653   1.048  16.499  0.1385  0.1995 -0.1205
33309W        W39909  13.089   6.619  21.016 -0.0138 -0.0994  0.0135
33310W        W39910   6.574   4.232   6.600 -0.2676  0.1672  0.0129
33311W        W39911   5.842   0.309  17.419 -0.1139 -0.1127 -0.1776
33312W        W39912   3.711   0.865  14.885 -0.1340 -0.2596 -0.0786
33313W        W39913  29.961   6.785   6.451 -0.1594  0.1522 -0.2308
33314W        W39914  24.780   0.204  21.504  0.5801 -0.0438 -0.2345
33315W        W39915  26.073   5.578  17.601 -0.0787 -0.0694 -0.0609
33316W        W39916  15.115   1.134  17.340 -0.0033 -0.3393 -0.0610
33317W        W39917   0.556   1.784   0.831 -0.1654 -0.1858  0.0727
33318W        W39918  17.542   7.300  23.878 -0.1695 -0.0311 -0.3187
33319W        W39919   0.191   7.311   4.183  0.1032  0.0095  0.0323
33320W        W39920  22.614   4.655  25.410  0.1036 -0.2271 -0.2793
33321W        W39921  24.688   5.543  25.425 -0.0552  0.2393  0.0107
33322W        W39922  21.097   1.168   9.099  0.0257 -0.1042 -0.4033
33323W        W39923  20.416   2.720  19.930 -0.0749  0.0046 -0.0349
33324W        W39924  24.233   2.881   3.286  0.0910  0.1920  0.3140
33325W        W39925  16.980   4.930   8.364 -0.2606  0.0510 -0.0552
33326W        W39926   1.253   3.651  21.561 -0.1470 -0.2408  0.0788
33327W        W39927  27.728   5.171  20.167  0.1109  0.1607 -0.4705
33328W        W39928  19.392   4.783  20.661 -0.0355  0.1955 -0.3431
33329W        W39929  23.478   1.815   9.596 -0.2344 -0.1497  0.2213
33330W        W39930  18.524   7.110  19.436 -0.2124 -0.3389 -0.0633
33331W        W39931  27.280   3.996   4.538 -0.0166 -0.0459 -0.0071
33332W        W39932  14.319   0.263   2.571  0.2180  0.1555 -0.4978
33333W        W39933  18.233   1.526   2.840 -0.2008 -0.1123  0.3735
33334W        W39934   8.450   2.193  23.430 -0.0809 -0.1668 -0.1230
33335W        W39935   4.973   0.570   3.623  0.0339  0.0075 -0.0061
33336W        W39936   7.149   3.762   5.475  0.1036 -0.2494 -0.2571
33337W        W39937   5.475   6.649  10.917  0.3728  0.1495  0.3085
33338W        W39938  22.603   1.550  21.465 -0.0638 -0.1278 -0.0267
33339W        W39939  22.334   2.626   3.182  0.0175 -0.3031  0.0785
33340W        W39940   4.828   7.324   4.561  0.0737  0.0452  0.0407
33341W        W39941  30.939   0.852  25.898  0.0841 -0.0249  0.1301
33342W        W39942  24.121   3.175   8.939  0.0532 -0.1733  0.0319
33343W        W39943   6.699   5.324  21.457 -0.1802  0.0860  0.2191
33344W        W39944  11.591   2.649  14.994  0.1357  0.0566  0.2638
33345W        W39945  13.606   4.845   9.393 -0.0883 -0.3632  0.1638
33346W        W39946   8.195   3.556  23.534 -0.0363 -0.0793 -0.2300
33347W        W39947  29.139   1.000  10.913 -0.3729  0.1121  0.2623
33348W        W39948  11.988   1.617  21.545  0.1520 -0.3541 -0.1940
33349W        W39949   0.063   4.127   6.306 -0.0482 -0.0786 -0.2510
33350W        W39950  13.971   1.590  16.006 -0.3014 -0.1493 -0.3971
33351W        W39951   9.937   4.898   7.106 -0.2539 -0.3319  0.0288
33352W        W39952  23.744   4.318  19.501  0.0069 -0.0734  0.2807
33353W        W39953  26.709   4.967   4.281  0.0888  0.2728  0.1114
33354W        W39954  13.788   2.334   2.060 -0.0449 -0.0213 -0.0891
33355W        W39955  17.373   4.437   0.036 -0.0465 -0.1603  0.0449
33356W        W39956  18.976   6.099   1.039 -0.0212 -0.1555 -0.0210
33357W        W39957  12.653   4.146   9.855  0.3085  0.0592 -0.0016
33358W        W39958  26.797   1.797   7.751 -0.0694 -0.2883  0.0369
33359W        W39959  11.209   6.022  18.890  0.2455  0.0672  0.0894
33360W        W39960  29.155   0.109   1.356 -0.2693 -0.2486 -0.0577
33361W        W39961  30.062   1.176   3.856  0.1849 -0.2451 -0.3372
33362W        W39962   4.152   1.962   3.692 -0.1322 -0.1010 -0.3216
33363W        W39963   6.999   7.394  21.339 -0.0130 -0.2669 -0.0242
33364W        W39964  14.266   4.631   2.189  0.3212 -0.1164 -0.0956
33365W        W39965  21.434   5.688   9.380 -0.1977  0.0887  0.2138
33366W        W39966   9.068   6.179   1.042 -0.0580 -0.4125  0.1888
33367W        W39967  13.763   0.146  10.182  0.0638  0.2560  0.0588
33368W        W39968   1.655   6.910  15.865  0.0558 -0.0532 -0.2096
33369W        W39969  26.285   6.963   2.498 -0.0953  0.1220  0.0703
33370W        W39970  21.944   6.688  23.672  0.1002 -0.1193 -0.0276
33371W        W39971   2.516   2.543   3.766  0.0246 -0.2187 -0.0594
33372W        W39972  14.517   3.095  15.996  0.2619 -0.0077 -0.1058
33373W        W39973  18.104   2.370   1.539  0.0679  0.3607  0.1851
33374W        W39974  10.290   5.530   5.940  0.1388  0.0336 -0.1975
33375W        W39975  11.146   2.706  15.330 -0.1336  0.1312  0.1092
33376W        W39976  20.245   3.502  24.290 -0.0510 -0.1299  0.2975
33377W        W39977  14.105   2.610  21.379  0.1620  0.1140 -0.0889
33378W        W39978   3.278   1.735  16.108  0.6182  0.1063  0.0663
33379W        W39979   3.137   2.937  23.507 -0.4011 -0.1507 -0.2204
33380W        W39980  22.741   5.142  25.606 -0.1037 -0.0437  0.0625
33381W        W39981  18.716   7.068   7.122 -0.0834 -0.1533  0.0400
33382W        W39982  29.936   3.845  20.499 -0.0237  0.1050 -0.0120
33383W        W39983   4.036   0.403   0.544  0.0356  0.1947  0.0430
33384W        W39984   5.621   4.691   5.185 -0.0368 -0.1356  0.1497
33385W        W39985  27.832   1.796   6.525  0.1619  0.1693  0.1271
33386W        W39986  12.484   5.297  23.500 -0.0357 -0.2558 -0.0814
33387W        W39987  28.334   7.502  25.795 -0.0920  0.0608  0.2630
33388W        W39988  23.924   2.671   7.230  0.1763  0.2094  0.1566
33389W        W39989   4.248   1.520  23.740  0.0347  0.0570 -0.0953
33390W        W39990   4.413   2.938  22.815 -0.0174 -0.1082 -0.0604
33391W        W39991  24.962   5.228   0.204  0.1645 -0.0583 -0.0892
33392W        W39992  16.582   2.528  15.160  0.1012  0.2106 -0.3679
33393W        W39993  20.219   6.651   4.203  0.1407  0.0108  0.2360
33394W        W39994  14.484   6.986   5.970  0.3774  0.2301  0.3003
33395W        W39995   1.872   5.636  16.583  0.0699  0.1203 -0.1043
33396W        W39996   4.102   7.696  10.310 -0.3918  0.1562  0.1115
33397W        W39997  20.439   5.725  21.676  0.0675 -0.0719  0.1107
33398W        W39998  21.289   7.023  23.210 -0.2538 -0.1653 -0.0404
33399W        W39999  16.845   2.617   3.219  0.1111 -0.0716  0.1392
33400W        W40000  23.812   4.906   2.553 -0.0524  0.0506 -0.1727
33401W        W40001  13.947   1.973   5.466 -0.1840 -0.1769 -0.3503
33402W        W40002  21.707   3.928  23.837 -0.1933 -0.2181  0.0451
33403W        W40003   9.765   7.590   3.624  0.2898  0.4089 -0.0617
33404W        W40004  25.296   2.185   1.765  0.1876  0.0202  0.1589
33405W        W40005  11.282   3.989  17.951  0.0242 -0.0350  0.0302
33406W        W40006  17.018   7.505  19.142 -0.1544  0.0127 -0.3089
33407W        W40007  17.992   5.891  14.565 -0.0648 -0.3460 -0.1400
33408W        W40008   5.760   6.637  17.986  0.1692 -0.1198 -0.0827
33409W        W40009  30.057   6.180   2.482  0.2125 -0.3075 -0.0473
33410W        W40010  24.413   3.002  26.092  0.0601 -0.0738  0.1000
33411W        W40011   8.158   1.225  17.641 -0.0044 -0.2305 -0.3485
33412W        W40012   4.243   6.916   9.883  0.1737  0.3642 -0.2942
33413W        W40013  14.881   3.603   9.100 -0.4587  0.0637 -0.0579
33414W        W40014   4.425   0.301   2.209  0.0657  0.0637  0.0747
33415W        W40015  17.473   2.888   3.814  0.1968 -0.0276 -0.2930
33416W        W40016  29.190   4.479   0.491  0.1026  0.1278  0.1053
33417W        W40017  24.522   7.322  19.332 -0.1527  0.1148  0.1220
33418W        W40018   7.364   2.279  17.709 -0.0178  0.2235  0.0432
33419W        W40019  21.590   5.408  21.932 -0.3126  0.0360 -0.1224
33420W        W40020  20.042   3.684  20.695 -0.1464  0.2694  0.1073
33421W        W40021  16.824   5.682   3.281  0.1214  0.5504  0.1928
33422W        W40022  25.791   3.138   7.569 -0.1228 -0.0197  0.0179
33423W        W40023  31.002   6.655  22.051  0.0886  0.0480  0.0592
33424W        W40024  16.670   2.516   7.861 -0.1608  0.1175  0.0721
33425W        W40025  11.946   6.545   7.025 -0.1928  0.2805 -0.0307
33426W        W40026  14.694   3.123  23.555  0.2360  0.1750  0.0459
33427W        W40027  13.688   4.498  11.384 -0.0311 -0.0569  0.1923
33428W        W40028   8.627   3.174  10.595  0.1086  0.0569 -0.1970
33429W        W40029  29.927   5.802  24.356  0.1724  0.1822 -0.1616
33430W        W40030  23.611   1.942   9.059  0.0326 -0.2829 -0.1314
33431W        W40031  19.725   0.244   6.027  0.0976  0.0100 -0.0325
33432W        W40032   5.032   6.875   2.693 -0.0264  0.0824  0.0924
33433W        W40033  18.568   2.593  21.190  0.2666  0.2314  0.3358
33434W        W40034  23.402   6.402   4.492 -0.0242 -0.3633  0.0765
33435W        W40035  17.285   5.311   6.373 -0.3806 -0.1082  0.0016
33436W        W40036  23.195   1.129  15.992 -0.1039  0.3580  0.0254
33437W        W40037  23.350   5.543  22.182  0.1181 -0.4002  0.1645
33438W        W40038   0.327   5.512   6.157  0.0065 -0.0741 -0.0016
33439W        W40039  23.455   6.036  10.242  0.0045  0.1951  0.1503
33440W        W40040  12.518   5.757  19.650 -0.0332  0.0328 -0.2749
33441W        W40041  13.717   2.515   1.118  0.0036 -0.2881 -0.0400
33442W        W40042   8.925   7.176   4.200 -0.2182  0.0964 -0.0008
33443W        W40043  10.258   0.212  16.969 -0.1948  0.0523 -0.0004
33444W        W40044  25.700   3.067   6.980  0.0412 -0.0649  0.0271
33445W        W40045  25.591   7.791   0.888  0.2819 -0.3493 -0.2114
33446W        W40046  25.379   6.812  18.833 -0.2034 -0.3034  0.0849
33447W        W40047  21.109   3.556   5.661 -0.1698 -0.1563  0.0178
33448W        W40048   4.182   6.171  10.171 -0.1753  0.0477 -0.1868
33449W        W40049   5.627   1.873  10.839  0.0805 -0.0273 -0.2002
33450W        W40050  22.194   1.244  22.557  0.2897  0.1296 -0.0620
33451W        W40051   4.202   5.147  11.869 -0.1911 -0.0593  0.1454
33452W        W40052   8.283   5.085   5.433  0.3224 -0.0431 -0.0609
33453W        W40053   1.397   4.025  18.627  0.1151  0.1687 -0.0825
33454W        W40054   4.929   1.775  19.459 -0.0615 -0.3604 -0.0978
33455W        W40055  10.936   6.935  10.552 -0.4146  0.2727 -0.1138
33456W        W40056   8.684   2.852  14.820 -0.2028  0.0926 -0.0617
33457W        W40057   8.286   3.286  25.853 -0.0446 -0.1323 -0.1707
33458W        W40058  24.648   3.411   2.237  0.2317 -0.1790  0.1865
33459W        W40059   6.111   6.999   6.469 -0.1292  0.2917  0.0677
33460W        W40060   7.773   7.394  22.027 -0.0419 -0.0049 -0.2670
33461W        W40061   6.954   3.570  15.527  0.2694  0.1648 -0.0575
33462W        W40062   2.381   1.305  25.915  0.0849 -0.2049 -0.2673
33463W        W40063   1.305   1.370   3.059 -0.1727 -0.0017  0.0238
33464W        W40064   6.375   3.052   0.692 -0.1365  0.0740  0.1478
33465W        W40065  13.170   4.657   4.513 -0.0168  0.0317  0.0083
33466W        W40066  25.920   1.038  25.725  0.0976 -0.1669  0.2812
33467W        W40067   2.236   6.496   9.287 -0.0270 -0.5833  0.0073
33468W        W40068   1.803   2.803  17.514 -0.0762  0.2548  0.0985
33469W        W40069  25.678   7.169  21.352 -0.0470  0.0203 -0.1247
33470W        W40070  26.640   3.338   9.187 -0.2000  0.0505 -0.2374
33471W        W40071  21.908   1.221  18.073  0.2474  0.1116 -0.1151
33472W        W40072  15.644   2.643   5.227 -0.0894 -0.0709  0.0041
33473W        W40073   5.582   4.335  23.883  0.1954  0.1881  0.1795
33474W        W40074  31.288   5.429  16.001 -0.0705 -0.1037  0.0786
33475W        W40075  11.952   6.206   4.701  0.1469  0.0438  0.2476
33476W        W40076  10.527   4.064  24.741  0.2227  0.0979  0.0887
33477W        W40077   1.863   6.315  22.998  0.0553  0.1261  0.6364
33478W        W40078  17.168   5.051   5.085  0.2707  0.1509  0.2348
33479W        W40079   8.740   7.381   7.351  0.1424 -0.1461 -0.1643
33480W        W40080  15.355   5.711  20.028  0.2537  0.0903  0.2153
33481W        W40081  25.170   7.458  10.110 -0.0113 -0.3345 -0.0635
33482W        W40082  29.582   0.018  25.312 -0.3416  0.2043  0.1013
33483W        W40083  21.714   7.504  19.443  0.3474 -0.0310  0.0616
33484W        W40084  23.311   1.228  24.809  0.1339  0.0390  0.0755
33485W        W40085  23.900   3.892   3.878 -0.0297  0.1878 -0.1406
33486W        W40086  16.752   3.805  10.718  0.2000 -0.0756  0.0226
33487W        W40087  16.811   0.255  23.227 -0.1435  0.0737  0.1330
33488W        W40088   2.720   1.134   8.819 -0.0952  0.2167  0.3893
33489W        W40089  20.930   2.299  19.239  0.0768 -0.0635  0.0728
33490W        W40090   9.965   6.768  17.682  0.1485 -0.0863 -0.0905
33491W        W40091  14.526   2.509  22.761 -0.0168 -0.0996  0.1610
33492W        W40092   7.138   4.164  15.758 -0.0964  0.0895 -0.1587
33493W        W40093   5.791   1.125  10.190 -0.2231 -0.1872 -0.2320
33494W        W40094  25.772   4.834  18.801  0.2123  0.0853  0.0188
33495W        W40095   3.528   4.140   4.484 -0.0031 -0.1586 -0.1163
33496W        W40096  12.015   4.290  18.114 -0.0141  0.2326  0.0923
33497W        W40097  12.042   6.566  15.254  0.0855  0.1235 -0.4072
33498W        W40098  22.249   0.768  10.522  0.1041 -0.0610 -0.2840
33499W        W40099  25.351   4.975   8.634 -0.0657  0.0343 -0.1118
33500W        W40100  18.967   3.904  19.672  0.2486 -0.0381 -0.1776
33501W        W40101   1.082   7.491  25.355 -0.1445  0.0738  0.1355
33502W        W40102  11.223   2.706  24.028 -0.0771  0.1475  0.0042
33503W        W40103   0.885   7.115   7.071 -0.0685 -0.0107 -0.3603
33504W        W40104   0.781   0.695  20.173  0.0569 -0.1461  0.0325
33505W        W40105  21.993   6.212  15.231  0.4205 -0.1096 -0.0834
33506W        W40106   8.986   6.111   2.857 -0.0152  0.1510 -0.0172
33507W        W40107  25.927   1.545  23.356 -0.3165 -0.0821 -0.0507
33508W        W40108   0.718   1.169  21.390 -0.0385 -0.2432  0.1550
33509W        W40109   9.331   1.234  19.215  0.0008  0.0195 -0.1215
33510W        W40110  25.624   3.055   4.151 -0.1182  0.1126  0.3320
33511W        W40111  19.371   4.689   4.051 -0.0373  0.2736 -0.0767
33512W        W40112  14.791   1.042  15.131 -0.2546 -0.1255 -0.1244
33513W        W40113   9.867   5.083  23.763 -0.2188  0.0278  0.0502
33514W        W40114  28.549   7.041   6.903 -0.0729  0.1078  0.0014
33515W        W40115  11.326   4.340   3.983 -0.0308  0.1152 -0.0017
33516W        W40116   1.570   1.627  15.336 -0.1921 -0.2076  0.1205
33517W        W40117  17.430   0.963   4.493  0.2798  0.1006 -0.0970
33518W        W40118   0.172   6.461   9.654  0.1666  0.0269  0.1391
33519W        W40119  30.163   7.774  18.189 -0.0780  0.2276 -0.1504
33520W        W40120  12.235   5.510   2.456 -0.1020 -0.1929  0.0111
33521W        W40121  21.921   2.546  11.014  0.3292  0.0684 -0.1008
33522W        W40122  27.251   4.757  23.226  0.0811 -0.2070 -0.4221
33523W        W40123  23.696   6.443  16.435 -0.1101  0.1622  0.1759
33524W        W40124   4.064   4.143   4.642 -0.0855 -0.2431 -0.0284
33525W        W40125  29.617   3.876   4.214 -0.2253  0.1430  0.0380
33526W        W40126   9.907   7.155   8.030 -0.3345 -0.1242 -0.2894
33527W        W40127   8.199   4.309   4.065  0.0442  0.0147 -0.1670
33528W        W40128  12.038   0.849  21.887 -0.1354 -0.1026  0.1701
33529W        W40129  23.491   5.764  21.747 -0.3802 -0.0655 -0.1750
33530W        W40130   9.231   0.631  18.084  0.0744 -0.0096 -0.1117
33531W        W40131  18.259   0.215  18.927 -0.1595 -0.2062 -0.0403
33532W        W40132   5.102   3.687  24.499 -0.0092 -0.3377  0.2464
33533W        W40133   8.759   6.696   8.972  0.1552 -0.0559 -0.0978
33534W        W40134  10.592   7.256   6.376  0.0352 -0.1364 -0.0108
33535W        W40135  16.233   1.334   7.357  0.1363 -0.0578 -0.1476
33536W        W40136  26.111   2.067   3.424  0.2560  0.4162 -0.2632
33537W        W40137  30.184   2.946   6.312 -0.1727 -0.1666  0.1983
33538W        W40138  12.647   6.822   3.526  0.1150  0.0044 -0.0233
33539W        W40139  23.612   0.030  24.252 -0.0132  0.1956 -0.0371
33540W        W40140   3.367   6.255  25.297 -0.1110 -0.2263 -0.1136
33541W        W40141  10.907   2.997   2.040 -0.3499 -0.1292 -0.1468
33542W        W40142   8.676   4.092  18.491 -0.1134 -0.2258  0.0062
33543W        W40143   1.222   5.165  21.048 -0.0790 -0.0303 -0.1703
33544W        W40144  10.355   3.808  16.223 -0.0496 -0.0355  0.2531
33545W        W40145  12.449   0.845  23.078 -0.0823  0.2151  0.1107
33546W        W40146   8.769   6.135  20.818  0.0982  0.1578  0.1535
33547W        W40147  11.010   7.448  23.422 -0.3089  0.0809 -0.2811
33548W        W40148   3.081   0.521  21.345  0.0133 -0.1746  0.1879
33549W        W40149  27.305   2.356   0.973  0.1750 -0.0054 -0.1114
33550W        W40150   4.358   7.352  24.728 -0.0461  0.1033 -0.2495
33551W        W40151  14.954   7.087   7.213 -0.0245 -0.0788 -0.2486
33552W        W40152   8.961   2.665  25.923  0.1306  0.4605  0.0159
33553W        W40153   2.525   4.491  25.303 -0.2427  0.3034 -0.2119
33554W        W40154   0.980   7.088   2.615 -0.4033 -0.4210  0.1218
33555W        W40155  12.891   3.477  25.786 -0.1789  0.2415  0.1484
33556W        W40156   1.799   4.126  24.223 -0.0450  0.1808  0.2332
33557W        W40157   0.994   4.704   5.704 -0.2377 -0.0875  0.0260
33558W        W40158   8.753   6.513  17.978  0.1570 -0.0808 -0.1173
33559W        W40159  10.505   6.575  19.240 -0.1552 -0.3279 -0.1813
33560W        W40160   2.658   2.353   8.324  0.0322 -0.1856 -0.0232
33561W        W40161  30.790   2.281   1.831 -0.1745  0.1093  0.2707
33562W        W40162  12.390   7.529   2.772  0.1421  0.1125  0.2006
33563W        W40163  24.926   1.659  21.393  0.0396  0.1317  0.2739
33564W        W40164  19.974   5.117  23.241  0.3557 -0.1060  0.2107
33565W        W40165  20.827   3.327  16.866  0.2490  0.0150  0.0849
33566W        W40166  21.244   6.463  14.685 -0.0101 -0.0488 -0.0694
33567W        W40167  27.915   4.303  22.737 -0.0890  0.1573  0.0542
33568W        W40168  25.097   0.581  17.772  0.0650 -0.1140  0.2004
33569W        W40169  27.936   0.477  23.279  0.0299 -0.1939  0.0726
33570W        W40170  20.045   5.787  17.659 -0.1285 -0.1341 -0.0363
33571W        W40171  12.031   3.218   7.880  0.1142 -0.2144  0.2907
33572W        W40172  21.944   4.937  15.606 -0.5282 -0.0585  0.0275
33573W        W40173   7.133   5.616  17.373 -0.3068  0.1509  0.0511
33574W        W40174   6.038   3.542   0.184  0.0788  0.1279  0.1169
33575W        W40175  19.524   6.617  15.820 -0.1579 -0.1391 -0.2518
33576W        W40176  12.458   3.148   8.826 -0.1400  0.2292  0.0784
33577W        W40177  27.046   2.743  19.123  0.1337 -0.0573  0.1686
33578W        W40178  29.498   7.270   3.043 -0.2844 -0.4879 -0.1924
33579W        W40179  15.915   2.279   7.549 -0.1251  0.1080 -0.0181
33580W        W40180  26.279   3.477   8.200  0.2676 -0.0630 -0.0818
33581W        W40181  29.037   5.884  10.806 -0.0173 -0.0178  0.0318
33582W        W40182  16.289   7.672   8.474 -0.2744  0.1073  0.0867
33583W        W40183  27.754   3.509   7.786  0.1102  0.1362 -0.0991
33584W        W40184  31.145   7.307   3.755 -0.0172 -0.1843  0.0615
33585W        W40185  30.157   2.876   5.804  0.0267  0.1486  0.0474
33586W        W40186   5.310   0.604   2.831  0.0590  0.1021 -0.3395
33587W        W40187  24.951   2.438  18.073  0.0972  0.0905 -0.1651
33588W        W40188  15.786   1.992  25.596 -0.0482 -0.0728 -0.0356
33589W        W40189   1.971   4.877  21.808  0.1978 -0.0917 -0.0774
33590W        W40190  19.272   1.050  22.986 -0.0765  0.0912 -0.3431
33591W        W40191  24.030   5.352  25.074 -0.2069  0.3715  0.0381
33592W        W40192   7.772   3.712   0.710  0.0683 -0.1730 -0.0140
33593W        W40193  11.974   5.059  16.044  0.0753 -0.0877  0.1256
33594W        W40194   9.238   5.000  25.746  0.0759 -0.1241  0.0264
33595W        W40195  19.405   2.116   5.552  0.0716  0.0734  0.0147
33596W        W40196  15.194   2.098   8.529  0.1566  0.1253 -0.0324
33597W        W40197  10.549   7.340  20.401 -0.1487 -0.1415 -0.2474
33598W        W40198   9.831   7.321  17.800 -0.0245 -0.1566 -0.1157
33599W        W40199   9.596   0.224  19.194 -0.0023  0.4353 -0.0466
33600W        W40200   1.432   2.900  25.390 -0.0870  0.1608 -0.0682
33601W        W40201   8.859   7.146  18.531  0.0194 -0.3252 -0.2965
33602W        W40202  16.606   0.552   8.964  0.2782  0.0182 -0.2696
33603W        W40203  18.136   2.711   4.546  0.1310  0.0151 -0.0083
33604W        W40204   9.986   0.839  15.273 -0.0721  0.0286  0.2059
33605W        W40205   0.344   0.875   4.485  0.1278 -0.1098 -0.1319
33606W        W40206   4.344   1.860   6.920  0.1622 -0.0739 -0.0654
33607W        W40207  18.027   6.948  24.803 -0.0213  0.1924 -0.0583
33608W        W40208  25.529   2.286   3.185  0.0700  0.0229 -0.0463
33609W        W40209   6.995   1.302  25.436 -0.2498 -0.0810 -0.0667
33610W        W40210   1.975   5.158  17.912  0.0641 -0.2914 -0.3458
33611W        W40211  28.083   0.043   0.903 -0.2350 -0.0974  0.1187
33612W        W40212  28.096   5.925  23.108  0.3078  0.0001 -0.2391
33613W        W40213   3.411   2.256  22.872 -0.3152 -0.1284 -0.0166
33614W        W40214  23.641   1.712  20.616  0.0036  0.0040 -0.0300
33615W        W40215   0.834   1.477  20.987  0.0898  0.2280  0.1663
33616W        W40216  24.767   6.296   4.951  0.1486  0.2722 -0.1271
33617W        W40217  27.053   5.741   2.111  0.0086 -0.0098  0.0932
33618W        W40218  10.140   6.688   4.520 -0.1513  0.5268 -0.0993
33619W        W40219   2.388   6.922  10.256 -0.0870 -0.2603  0.2185
33620W        W40220  30.020   5.713  22.975 -0.4222  0.1139  0.1998
33621W        W40221   7.880   5.321   1.011 -0.0396  0.2152  0.1516
33622W        W40222  11.726   4.684  20.949  0.2348  0.1276  0.2441
33623W        W40223   6.301   4.171   3.922 -0.0763 -0.0420 -0.2664
33624W        W40224  20.118   1.516   2.165 -0.0846  0.1835  0.2294
33625W        W40225   5.075   5.589  25.351  0.2631  0.3449 -0.2415
33626W        W40226  16.052   4.710  15.481 -0.2130  0.2235 -0.0128
33627W        W40227   7.070   1.566  10.565  0.0534 -0.0113 -0.0760
33628W        W40228   1.424   3.715  23.322 -0.1185 -0.1881 -0.1552
33629W        W40229  10.687   6.827  22.040  0.2398 -0.0052 -0.2879
33630W        W40230  29.801   0.715  25.907  0.0090 -0.1990  0.1338
33631W        W40231  14.541   4.323  21.687  0.4641  0.1053  0.0119
33632W        W40232   8.929   0.041  23.119  0.0716 -0.0675  0.3025
33633W        W40233  12.555   6.432  10.875  0.1591 -0.2412 -0.4280
33634W        W40234  20.159   3.371  19.286 -0.1817 -0.0410 -0.0817
33635W        W40235   0.627   4.757  25.915 -0.2331  0.0217 -0.2461
33636W        W40236  19.579   5.793  20.842  0.1915  0.1000 -0.4882
33637W        W40237   0.371   2.219   5.880  0.0255 -0.1310 -0.0784
33638W        W40238  11.938   5.627  22.192 -0.1093  0.0476 -0.2128
33639W        W40239  28.956   3.479  10.608 -0.0736 -0.1531 -0.2882
33640W        W40240  11.263   7.404   3.867 -0.0936  0.1883 -0.0061
33641W        W40241   5.837   5.857  23.610  0.2961 -0.0669  0.2295
33642W        W40242  11.797   2.138  10.676 -0.3181 -0.1562 -0.1296
33643W        W40243   9.056   1.778   1.942  0.0377  0.1417 -0.1967
33644W        W40244  15.710   6.177   7.542 -0.1621  0.0145 -0.0190
33645W        W40245  18.461   6.364   4.251  0.2514 -0.0831  0.1327
33646W        W40246  28.361   3.718  17.257 -0.0108  0.0973 -0.1933
33647W        W40247  12.490   5.912  18.364  0.1114  0.1914  0.0433
33648W        W40248  17.990   2.836  24.257  0.0937 -0.2189  0.0707
33649W        W40249  22.422   0.257  22.375  0.0499 -0.2360 -0.6029
33650W        W40250  17.513   3.726  20.063 -0.1471  0.1291 -0.1535
33651W        W40251  28.861   4.885   3.274 -0.1277 -0.0685  0.2248
33652W        W40252  14.356   0.979  18.267  0.2145 -0.0996  0.1696
33653W        W40253   1.815   6.701  20.403  0.0743  0.1742 -0.0866
33654W        W40254  24.778   0.203   2.985  0.6841  0.0940  0.1864
33655W        W40255  28.193   1.444  16.834  0.1349 -0.0533 -0.4353
33656W        W40256  24.461   6.725  20.461  0.0509 -0.1753  0.0293
33657W        W40257  25.392   4.487   0.896  0.1013 -0.0954  0.1751
33658W        W40258   8.613   6.116   1.982 -0.0513  0.2231 -0.2024
33659W        W40259  29.155   3.770   2.525  0.1056 -0.0434 -0.0824
33660W        W40260   3.880   7.487   9.424 -0.1233 -0.0143 -0.4266
33661W        W40261  13.797   4.614  10.744 -0.0732 -0.1522 -0.0486
33662W        W40262  11.812   0.144  15.504  0.3272  0.2254 -0.0236
33663W        W40263  23.727   6.153  15.969  0.0060  0.6367  0.0327
33664W        W40264   4.837   4.306  16.623  0.1562  0.1971 -0.0297
33665W        W40265  27.365   4.281   6.721 -0.0720  0.2042  0.2328
33666W        W40266  28.093   5.866  17.473 -0.1596  0.0585 -0.0462
33667W        W40267   8.016   3.195   9.364 -0.1191 -0.0354  0.3207
33668W        W40268  16.048   4.163   4.867  0.0928  0.1878 -0.1276
33669W        W40269  13.756   5.190  23.802 -0.2206  0.1446 -0.0696
33670W        W40270  21.198   4.569   0.582  0.0128 -0.3636 -0.0653
33671W        W40271  22.990   1.632  25.582  0.0757 -0.0893  0.0521
33672W        W40272  27.094   7.559   9.233 -0.0711 -0.3257 -0.0274
33673W        W40273   2.045   0.646  24.777 -0.0928 -0.0154 -0.1505
33674W        W40274   2.375   4.536  10.857  0.1067  0.0246 -0.1947
33675W        W40275  10.563   0.883  26.185 -0.0114  0.1376 -0.2952
33676W        W40276   9.090   1.275   9.672 -0.0074  0.1696 -0.0451
33677W        W40277  23.116   7.558   4.988 -0.0828  0.0560  0.2136
33678W        W40278  10.203   2.677  14.974 -0.0374 -0.0415  0.0542
33679W        W40279   7.012   0.728  16.374  0.0227  0.2598  0.0566
33680W        W40280  26.781   3.536   6.754 -0.0868 -0.0510  0.0495
33681W        W40281  20.576   7.387   3.036 -0.2606 -0.1625 -0.1391
33682W        W40282  15.740   4.641  21.083  0.0984 -0.1782 -0.3268
33683W        W40283  12.881   5.027   0.460  0.1268  0.0198 -0.0536
33684W        W40284  24.569   6.432  25.893 -0.1235  0.1021 -0.2376
33685W        W40285  15.951   1.116  16.556 -0.1500 -0.2438  0.0724
33686W        W40286  14.124   5.000   8.921 -0.1680  0.1089  0.1996
33687W        W40287  15.705   4.260   7.678  0.1699  0.2987 -0.0072
33688W        W40288  23.196   3.281  10.268 -0.0820 -0.1324  0.2832
33689W        W40289   5.090   2.687  25.806  0.1580 -0.0487 -0.4642
33690W        W40290   7.312   5.179  17.978 -0.0258  0.2071  0.1679
33691W        W40291  18.773   5.220   6.645 -0.0897 -0.0464 -0.2851
33692W        W40292  16.321   5.142   0.770  0.3854  0.2400  0.1538
33693W        W40293  12.663   3.989   0.916  0.1896  0.2147 -0.1666
33694W        W40294  26.783   3.292   0.505 -0.1706 -0.1996 -0.1778
33695W        W40295  28.104   1.721   1.376  0.1113 -0.0444 -0.1033
33696W        W40296  18.411   0.307  19.958 -0.1081 -0.2802 -0.1224
33697W        W40297  18.156   6.589  26.062 -0.2365  0.1840  0.0945
33698W        W40298  11.760   6.066  22.269 -0.1827  0.1103 -0.1883
33699W        W40299   0.677   1.088   5.475 -0.3338 -0.1529  0.1583
33700W        W40300   4.655   4.646  21.401 -0.0002 -0.1260  0.1569
33701W        W40301  28.176   1.479  25.470 -0.0978 -0.3228 -0.0246
33702W        W40302  15.478   0.674  17.435 -0.0143  0.2524  0.2079
33703W        W40303  29.264   0.259  16.360  0.3304 -0.0908 -0.2349
33704W        W40304  23.783   4.878  21.838  0.0696  0.0032  0.4106
33705W        W40305  29.715   1.129   9.204  0.3345  0.0616 -0.0422
33706W        W40306  29.496   5.081  21.723  0.0022 -0.0843  0.0278
33707W        W40307   7.066   3.609   8.472 -0.1979  0.0000  0.2021
33708W        W40308   1.495   3.490   8.184  0.0331  0.2468  0.0451
33709W        W40309  20.275   7.049   8.359  0.1275  0.0069  0.0451
33710W        W40310   5.251   2.770   2.522  0.1068  0.0240  0.0423
33711W        W40311   9.968   0.223   9.359  0.3057  0.2478  0.0969
33712W        W40312  21.983   1.304  23.952 -0.0127 -0.0436  0.0369
33713W        W40313  26.369   0.108   0.377 -0.0363  0.0376  0.1212
33714W        W40314  16.251   6.407  17.339 -0.0098 -0.1139 -0.2692
33715W        W40315  23.503   0.475  16.321  0.0603  0.2052  0.2999
33716W        W40316  10.365   1.086  10.211 -0.0394 -0.1484  0.2350
33717W        W40317  29.135   2.783   8.818 -0.0982 -0.0519  0.0988
33718W        W40318  21.859   1.321  25.111  0.3542  0.4225  0.2593
33719W        W40319  29.043   3.243   5.479 -0.4204  0.3612 -0.2171
33720W        W40320  18.478   4.129   3.193  0.0353 -0.0812 -0.1298
33721W        W40321  11.561   1.917  19.626 -0.0378  0.0731  0.0377
33722W        W40322  12.680   6.348   3.626 -0.1915  0.1474  0.2862
33723W        W40323  20.956   1.387  16.305  0.0032  0.0181  0.1514
33724W        W40324  30.891   5.451   4.127  0.0571  0.1326  0.1362
33725W        W40325  22.799   4.709  20.683 -0.1440  0.2642 -0.1727
33726W        W40326   1.960   2.557   6.509 -0.0175  0.1336 -0.1214
33727W        W40327  29.307   5.484  10.276  0.1305 -0.1511 -0.0091
33728W        W40328  10.772   5.482  25.148 -0.0889 -0.0578 -0.0044
33729W        W40329  24.843   5.499   0.632  0.1391 -0.0060  0.2357
33730W        W40330  10.721   1.380   0.633 -0.2348  0.2039  0.0579
33731W        W40331  29.307   1.544   5.084  0.0328  0.0448 -0.4349
33732W        W40332  24.684   2.841   4.510  0.1212  0.0802  0.1380
33733W        W40333   1.544   3.054  19.713 -0.0941  0.1168  0.1442
33734W        W40334  17.449   7.395  22.404 -0.0718 -0.2403 -0.2782
33735W        W40335   2.925   6.221  21.259 -0.1745 -0.0113 -0.0876
33736W        W40336  16.607   6.301   0.182  0.3913  0.0956  0.1578
33737W        W40337   0.801   7.174  15.366 -0.1554 -0.0170 -0.1937
33738W        W40338  18.325   4.218  20.466  0.0378  0.0577  0.2122
33739W        W40339  23.575   5.881  19.348  0.4593  0.0025 -0.0424
33740W        W40340  24.363   5.371   3.714  0.1525 -0.0845  0.0130
33741W        W40341  29.429   5.397   1.046 -0.0131 -0.1124 -0.0603
33742W        W40342  22.322   2.198  24.104  0.0917  0.0571 -0.3255
33743W        W40343  27.442   6.761   4.405  0.1299 -0.3396  0.1276
33744W        W40344  19.955   7.277   2.417 -0.1837 -0.0343  0.2426
33745W        W40345   2.653   5.697   5.238 -0.0552  0.0567  0.0104
33746W        W40346   4.244   0.329  20.853 -0.0618  0.0060  0.0147
33747W        W40347   5.552   7.824  24.667  0.2620  0.0449  0.0546
33748W        W40348  26.593   4.593   4.568 -0.2181 -0.1281  0.3711
33749W        W40349  29.549   0.024   4.038 -0.0979  0.0117  0.0567
33750W        W40350   1.317   0.625  25.039  0.1936 -0.3294  0.1165
33751W        W40351  26.399   4.285  24.286 -0.0125  0.0614  0.1389
33752W        W40352  13.196   7.592   7.527 -0.2294  0.0130 -0.3692
33753W        W40353  13.151   1.657  23.965  0.0923 -0.0242  0.1383
33754W        W40354  26.510   6.916   7.790 -0.0440 -0.0924  0.1145
33755W        W40355  15.673   6.707   4.626  0.0354 -0.1544 -0.1032
33756W        W40356   1.173   2.189   2.270 -0.0262  0.1447 -0.1551
33757W        W40357  29.525   4.865  10.808 -0.1888  0.0720  0.0829
33758W        W40358  30.500   3.849   4.974  0.3058  0.0146 -0.2917
33759W        W40359  11.808   2.330  16.031 -0.0462  0.3720 -0.1068
33760W        W40360   0.067   2.559   8.172  0.1631  0.0300  0.1870
33761W        W40361  10.606   2.845   3.493  0.1650  0.1787  0.3844
33762W        W40362  10.791   7.292   0.082  0.0445 -0.2674  0.3108
33763W        W40363  21.976   7.129   1.101 -0.0597  0.1757 -0.2052
33764W        W40364  14.786   3.786  22.745 -0.2100  0.0406 -0.1144
33765W        W40365   6.441   0.601   0.971  0.1398  0.2093  0.1101
33766W        W40366  20.592   0.090   0.748 -0.2668  0.1892 -0.0183
33767W        W40367  20.086   6.012  24.247 -0.2013 -0.0977  0.0734
33768W        W40368  28.015   1.928  25.689  0.1100  0.0874  0.0043
33769W        W40369  31.046   7.137  22.139 -0.0246  0.1185  0.2255
33770W        W40370  15.822   4.664  25.805  0.0305 -0.2145 -0.1173
33771W        W40371   4.954   2.598  15.843  0.0189 -0.0193  0.0540
33772W        W40372   7.702   6.868  10.690 -0.3466  0.0380  0.1909
33773W        W40373   5.373   2.619   9.712  0.1485 -0.1623 -0.0994
33774W        W40374  16.131   6.221  26.140 -0.0417 -0.1136 -0.0780
33775W        W40375  29.645   1.008   3.006 -0.3967  0.0973  0.0837
33776W        W40376   3.279   4.088   8.777  0.3214 -0.0528  0.3230
33777W        W40377  14.383   1.085  23.661  0.0466 -0.0308  0.1599
33778W        W40378  26.271   5.444   4.840  0.0077 -0.2335 -0.2205
33779W        W40379  14.615   5.209  24.339 -0.1089  0.2177 -0.1015
33780W        W40380   9.615   3.177   4.319 -0.0968  0.2148 -0.0194
33781W        W40381   7.486   5.103  20.806  0.4294 -0.0324  0.0016
33782W        W40382   8.912   3.146   1.852  0.1726  0.2419 -0.2359
33783W        W40383  10.030   1.356  10.446 -0.0223  0.1612 -0.1759
33784W        W40384  11.204   5.485  15.975  0.0004  0.1206 -0.2569
33785W        W40385  10.888   7.710  18.550  0.1464  0.5830  0.0000
33786W        W40386   8.140   4.145  25.458 -0.2081  0.0459  0.2554
33787W        W40387  13.765   2.618   3.046 -0.0088 -0.0306 -0.0090
33788W        W40388   5.959   5.027   4.463  0.2340  0.1456 -0.3068
33789W        W40389  11.011   5.829  22.895 -0.0103  0.1933 -0.1961
33790W        W40390  16.821   0.349  25.560 -0.0746  0.1825  0.2259
33791W        W40391  30.916   3.986  21.488 -0.2331 -0.3115 -0.0981
33792W        W40392   2.385   6.002   4.393 -0.0800 -0.2996 -0.0052
33793W        W40393  13.383   0.068   0.422 -0.0993 -0.0180 -0.2069
33794W        W40394   1.962   3.510  23.492  0.2725 -0.2557 -0.0987
33795W        W40395   0.032   0.371  10.780 -0.0304  0.2445  0.1080
33796W        W40396  15.246   7.632  17.104 -0.0712 -0.0861 -0.0775
33797W        W40397   5.289   1.580  16.323 -0.0288  0.1028  0.2818
33798W        W40398  10.266   7.618   4.119 -0.0281 -0.1770 -0.1612
33799W        W40399  10.387   0.537   4.709 -0.0159  0.0627  0.1498
33800W        W40400   8.152   3.315   6.243 -0.2251 -0.0428  0.0066
33801W        W40401  18.052   6.043  23.159 -0.2353 -0.2890 -0.3382
33802W        W40402  19.209   1.944  18.261 -0.0448 -0.2252  0.0568
33803W        W40403  15.764   6.600   0.725 -0.1513  0.0968 -0.0169
33804W        W40404   9.450   2.679   9.643 -0.0994  0.3755  0.0531
33805W        W40405   3.167   4.780  23.739  0.1552 -0.0034  0.1987
33806W        W40406   2.830   3.964  21.910 -0.2068 -0.0456 -0.0158
33807W        W40407  26.034   1.237   9.092  0.0623 -0.2633 -0.0570
33808W        W40408  24.957   2.881   0.775 -0.0086  0.1986  0.1621
33809W        W40409   8.737   5.428  21.894 -0.2381 -0.3255 -0.3179
33810W        W40410  13.161   1.913   1.408  0.1168  0.2764  0.0969
33811W        W40411  25.492   7.350   1.391 -0.0769  0.2478 -0.1548
33812W        W40412  13.089   4.399  10.028  0.3045 -0.0832  0.0776
33813W        W40413  25.770   2.651   8.288 -0.0516  0.0618  0.2336
33814W        W40414   7.850   3.542   7.906  0.0579  0.0576  0.0911
33815W        W40415  20.493   1.792  21.926 -0.0809 -0.1060 -0.2017
33816W        W40416  11.490   3.275   8.899  0.1265  0.1789  0.4769
33817W        W40417  28.309   0.763  10.194 -0.0504 -0.0794  0.2189
33818W        W40418  24.181   5.508  25.584 -0.3966 -0.1203  0.0595
33819W        W40419  27.457   0.641  24.584 -0.1108 -0.1205  0.1789
33820W        W40420  23.729   5.505   0.217  0.2236 -0.2267  0.0304
33821W        W40421  17.666   3.632  19.053  0.1280  0.2737  0.0351
33822W        W40422   6.468   3.242   8.457  0.0059  0.1732  0.0360
33823W        W40423   9.704   4.185  26.116 -0.3853  0.0142 -0.2227
33824W        W40424  22.720   6.431  23.907  0.1387  0.0078  0.1388
33825W        W40425  14.469   3.723  19.968 -0.0512 -0.0636 -0.0585
33826W        W40426   6.515   7.310   9.008  0.0385 -0.0902 -0.1439
33827W        W40427   6.171   3.899  19.474  0.1142 -0.1211  0.1784
33828W        W40428   1.469   3.987  17.656 -0.3832 -0.0394 -0.2708
33829W        W40429  23.514   6.145  16.750 -0.0019  0.2332 -0.0271
33830W        W40430  27.101   6.847   9.798  0.0773  0.1678 -0.0796
33831W        W40431  27.140   6.251  19.372  0.0852 -0.0214 -0.0773
33832W        W40432  12.611   0.807   4.741  0.1857 -0.0045  0.1869
33833W        W40433  30.167   0.709  10.831  0.0291  0.2484 -0.0060
33834W        W40434   4.412   5.653  16.364 -0.2820  0.0973  0.4172
33835W        W40435  28.313   5.091  16.249  0.1905  0.1220 -0.0466
33836W        W40436  10.842   2.442  21.156 -0.0783 -0.1491 -0.0719
33837W        W40437  27.373   0.078  19.905  0.2223 -0.1185 -0.0160
33838W        W40438  15.535   0.962  19.806  0.0338  0.1094 -0.0611
33839W        W40439  30.491   1.025   1.622  0.2309 -0.0816 -0.0857
33840W        W40440   1.189   5.097  24.169 -0.1138  0.0042  0.0827
33841W        W40441  11.409   6.978   4.092  0.2144 -0.0746  0.0740
33842W        W40442  13.611   0.008  24.623  0.2520  0.0372 -0.0134
33843W        W40443  19.108   4.602  15.858  0.0030 -0.1407  0.0343
33844W        W40444   6.423   2.903  10.744  0.1390 -0.0614 -0.0660
33845W        W40445   9.536   3.100   9.962  0.3309  0.1305 -0.1313
33846W        W40446  21.865   0.273   0.108  0.1367 -0.0583  0.1378
33847W        W40447  27.387   3.981   4.031  0.1810 -0.0710 -0.2327
33848W        W40448   9.017   1.976  21.775  0.0323  0.0282  0.1114
33849W        W40449  16.556   5.005  20.993 -0.1727 -0.0091  0.2311
33850W        W40450  30.819   3.838  20.925 -0.1380  0.0227  0.1483
33851W        W40451   3.896   7.182  16.704  0.0092 -0.1281  0.0070
33852W        W40452   7.866   5.103   9.709 -0.1312 -0.0050  0.0315
33853W        W40453  23.652   1.726   3.765 -0.1892  0.0164 -0.0866
33854W        W40454  22.899   3.620  25.352 -0.0947  0.0305  0.0898
33855W        W40455  17.511   7.597   7.636  0.0875 -0.1233  0.0877
33856W        W40456   0.481   5.027  10.943 -0.0649 -0.0412  0.1706
33857W        W40457   4.046   6.903  25.529  0.0311  0.0559  0.3177
33858W        W40458  19.471   6.832  23.616 -0.5518 -0.0904 -0.0964
33859W        W40459   5.503   3.927   1.337  0.2099 -0.1278 -0.0450
33860W        W40460  10.195   2.609  22.235 -0.1461  0.0630 -0.0419
33861W        W40461   4.633   1.426   2.412 -0.5539 -0.1027  0.1418
33862W        W40462  22.248   4.417  20.057 -0.1652 -0.3511 -0.1994
33863W        W40463  19.602   2.683  15.473  0.1172  0.0728  0.1502
33864W        W40464   9.618   3.744  22.881 -0.0073  0.0944  0.2371
33865W        W40465  19.459   5.295  24.161 -0.1761 -0.0266  0.1205
33866W        W40466   3.640   5.536  19.854  0.1229 -0.2287  0.0204
33867W        W40467   2.240   7.765   0.078 -0.1568 -0.0145  0.2404
33868W        W40468  23.687   1.280   9.508 -0.0771  0.1021 -0.1138
33869W        W40469   1.766   0.655   9.331  0.2168 -0.0490 -0.1164
33870W        W40470  11.360   7.238  18.984  0.0859 -0.0457 -0.0796
33871W        W40471  25.425   3.296   2.973  0.2764  0.1218  0.0491
33872W        W40472  15.404   3.387  17.303  0.0507 -0.1593  0.2460
33873W        W40473  12.177   1.310  15.856 -0.1741 -0.0912 -0.1319
33874W        W40474   7.466   1.214   6.177 -0.0561 -0.0567  0.1989
33875W        W40475   1.436   1.127  25.443 -0.2893  0.0794  0.2476
33876W        W40476  21.271   7.141   8.591 -0.1472 -0.2206 -0.0125
33877W        W40477   0.563   3.100   5.590  0.1311 -0.0268  0.0013
33878W        W40478  20.243   6.265   7.032  0.3277 -0.1425  0.1786
33879W        W40479  14.008   0.126   0.441  0.1854 -0.0255 -0.1000
33880W        W40480  18.738   3.335  24.295  0.1923 -0.0400 -0.2891
33881W        W40481  14.465   4.526   4.892  0.2810  0.0079  0.1403
33882W        W40482   3.451   7.483   3.009 -0.2885 -0.2924  0.2468
33883W        W40483  25.689   1.883  15.650  0.0172 -0.1838 -0.0019
33884W        W40484   1.554   7.501  16.974 -0.1176 -0.1792  0.3034
33885W        W40485   4.875   1.844  22.939  0.0787 -0.0963  0.1468
33886W        W40486   0.973   4.108  18.387 -0.0515 -0.0247 -0.2201
33887W        W40487  18.847   2.389  20.171 -0.0405  0.1341 -0.0166
33888W        W40488  19.757   7.195  15.794  0.2546 -0.2233  0.0755
33889W        W40489  23.072   1.538  16.237 -0.2325  0.0555  0.0366
33890W        W40490   3.629   7.076  18.626 -0.1674 -0.1699 -0.1076
33891W        W40491  25.173   7.623   6.669  0.0900  0.1421  0.0749
33892W        W40492  29.383   1.146   5.571 -0.3616  0.1702  0.1106
33893W        W40493  15.324   4.484  25.626  0.1504  0.2850  0.3978
33894W        W40494  10.427   1.596   2.097  0.1554 -0.0902 -0.1362
33895W        W40495  23.401   2.524   3.795  0.2630  0.0890  0.4013
33896W        W40496  27.897   2.241   2.076 -0.0104  0.2460  0.1154
33897W        W40497   4.471   6.163  16.913  0.2885 -0.1380  0.0050
33898W        W40498   4.764   0.939  25.537  0.3022  0.1689  0.1975
33899W        W40499  30.265   0.990  26.171  0.2529 -0.0576  0.2723
33900W        W40500  15.583   1.014   0.768  0.0189 -0.2553 -0.1592
33901W        W40501  11.070   0.125  20.606  0.0377 -0.2168  0.0185
33902W        W40502   7.136   5.423   1.857 -0.0711 -0.1972  0.0209
33903W        W40503  22.891   6.026  15.978 -0.2955  0.0863  0.0970
33904W        W40504  23.189   4.204  15.920 -0.3469  0.2066  0.1598
33905W        W40505   3.158   0.825  22.171  0.4274 -0.0018  0.2288
33906W        W40506   8.186   7.440   6.813  0.0829  0.2846 -0.0136
33907W        W40507   7.839   2.745   8.013  0.0507 -0.3823  0.0262
33908W        W40508   4.109   6.701   7.553  0.1209 -0.0214  0.0453
33909W        W40509  27.436   1.984  16.473  0.1283 -0.1520  0.1114
33910W        W40510  10.650   1.311  19.340 -0.0073  0.0834  0.1733
33911W        W40511  24.943   3.314   3.193 -0.0547 -0.0784  0.1688
33912W        W40512  25.210   4.442   8.701 -0.0546 -0.0370 -0.0360
33913W        W40513  11.432   6.281  10.347 -0.0206  0.0639  0.1178
33914W        W40514   0.380   1.272  16.444 -0.0161 -0.1866  0.1979
33915W        W40515  22.883   4.686  22.011  0.2030 -0.0162  0.0498
33916W        W40516  12.172   7.015  16.739  0.0390 -0.0147 -0.3204
33917W        W40517  24.476   6.764  11.407  0.0754 -0.0848 -0.2399
33918W        W40518   6.065   7.783  25.388  0.0796  0.3419 -0.0677
33919W        W40519  31.164   4.771   3.419  0.1883  0.3626  0.1303
33920W        W40520   9.293   1.080  17.458  0.3227  0.0053 -0.1224
33921W        W40521  19.010   0.445   1.986  0.0745 -0.0373 -0.2866
33922W        W40522   2.308   3.408  25.370 -0.1077 -0.0337  0.2214
33923W        W40523  23.102   0.858   7.892 -0.1933 -0.0864  0.0187
33924W        W40524   2.561   1.829  20.645  0.1003  0.1399 -0.0563
33925W        W40525  18.377   4.955   6.458 -0.0437  0.0456  0.0903
33926W        W40526  17.643   6.518   6.117  0.0553 -0.0111 -0.2572
33927W        W40527  21.916   2.781   1.401 -0.0243 -0.1259 -0.2185
33928W        W40528   3.958   7.547  15.913  0.0667  0.0458  0.1261
33929W        W40529  17.697   3.456  20.840 -0.3098 -0.0169  0.0465
33930W        W40530   8.503   5.013  20.101 -0.0598 -0.0157 -0.1552
33931W        W40531   1.046   2.294  25.702 -0.1726  0.0285 -0.1572
33932W        W40532  26.891   2.592   7.833  0.1016  0.0708 -0.1756
33933W        W40533   9.877   3.770   0.194  0.0144  0.0710  0.3972
33934W        W40534   8.275   6.195   6.680 -0.2356  0.1049 -0.0689
33935W        W40535   9.730   6.214   6.811 -0.1852  0.1033 -0.0338
33936W        W40536  17.800   1.334   7.664 -0.0863 -0.2043 -0.2455
33937W        W40537  29.931   0.373   7.616 -0.0957 -0.3905  0.0336
33938W        W40538  18.141   6.114   0.217  0.0557  0.0544  0.0072
33939W        W40539  24.841   3.746  19.140 -0.0798 -0.2754  0.1428
33940W        W40540   7.219   5.786   5.564  0.2581  0.0777 -0.1391
33941W        W40541  19.716   0.339   6.790  0.0013  0.0779 -0.0289
33942W        W40542   5.834   5.823  10.123  0.0687 -0.0598  0.3535
33943W        W40543   5.916   7.438  22.279 -0.0183 -0.3069 -0.0244
33944W        W40544   2.832   1.249   0.648  0.0442 -0.0515  0.1714
33945W        W40545   3.893   0.954   5.989  0.1926 -0.2369 -0.0216
33946W        W40546  23.432   7.794  16.533 -0.2818  0.0620  0.0040
33947W        W40547  21.067   0.549   4.635 -0.1311  0.1862  0.1959
33948W        W40548  25.447   0.360  24.759  0.0821  0.2312  0.2876
33949W        W40549  10.995   7.081   2.434 -0.2743  0.0328  0.1375
33950W        W40550   9.032   5.563  25.293  0.0750 -0.0722 -0.0756
33951W        W40551  11.873   7.764  16.077  0.3767  0.1796  0.1509
33952W        W40552  30.558   7.561   6.491 -0.2820  0.0129 -0.1069
33953W        W40553   6.749   1.684   8.452 -0.3848  0.2863 -0.0040
33954W        W40554   3.521   3.188  21.411 -0.0780 -0.0029 -0.3258
33955W        W40555  16.962   5.465   2.837 -0.3626  0.1864 -0.0699
33956W        W40556  12.736   5.632   2.302 -0.0078  0.2071 -0.0868
33957W        W40557  22.754   5.740   2.651  0.3608  0.0689  0.4233
33958W        W40558   6.073   4.469  10.675  0.0596 -0.1028 -0.0540
33959W        W40559  15.438   6.789  25.086  0.1045  0.0865  0.1787
33960W        W40560  11.792   0.236  23.455 -0.2192 -0.1937 -0.0099
33961W        W40561  23.333   2.999   7.262  0.3553  0.1383  0.1065
33962W        W40562   3.842   0.388   5.986 -0.1700 -0.0878  0.1492
33963W        W40563  23.294   1.308  16.606  0.0062 -0.1240 -0.3398
33964W        W40564   5.163   5.669   0.495  0.1852  0.0498 -0.1268
33965W        W40565   6.289   4.973   3.032 -0.1666 -0.0867  0.1408
33966W        W40566  17.032   4.467   6.957  0.1839  0.1666 -0.3909
33967W        W40567  12.510   2.139  25.661 -0.0550 -0.0289  0.0242
33968W        W40568  31.050   6.684   6.618  0.0609 -0.1981 -0.1718
33969W        W40569   3.734   2.984   4.200 -0.1808  0.1287  0.1215
33970W        W40570  24.857   6.598  20.842  0.0654 -0.0037  0.2018
33971W        W40571  17.973   2.553  25.472  0.2261 -0.0558  0.0063
33972W        W40572  24.624   6.995  17.214  0.0027  0.0469  0.3553
33973W        W40573  26.107   5.152  16.481  0.0810 -0.2761  0.0336
33974W        W40574   1.501   5.980   6.803  0.1339  0.0221 -0.3480
33975W        W40575  28.847   2.152  19.857 -0.2818  0.2824  0.0272
33976W        W40576  21.947   3.020  18.559 -0.2501 -0.1123 -0.1512
33977W        W40577   6.871   6.115  19.401 -0.1085 -0.2163 -0.1847
33978W        W40578  10.316   2.504  17.320  0.0365  0.0373  0.0928
33979W        W40579  11.607   2.909  19.816 -0.0882  0.2095  0.0735
33980W        W40580  26.316   5.736   1.312 -0.2133 -0.1196  0.0320
33981W        W40581  13.347   7.205   8.452 -0.2398  0.1071 -0.2200
33982W        W40582  30.730   3.258   6.476  0.2004  0.0616 -0.0890
33983W        W40583  16.685   6.641   3.946  0.1396  0.2194 -0.3520
33984W        W40584  11.348   5.200   4.324 -0.0216 -0.2054 -0.0456
33985W        W40585  15.012   2.672   1.347 -0.2744  0.0978 -0.3675
33986W        W40586  28.156   7.607  21.124 -0.0463 -0.1097 -0.0153
33987W        W40587   6.335   0.334  17.541  0.0702 -0.0698  0.4219
33988W        W40588   7.408   3.488  10.650 -0.0438  0.0613  0.3262
33989W        W40589  10.665   4.827   5.183  0.2514 -0.3104 -0.0653
33990W        W40590  25.336   4.174   0.417  0.2001  0.1471 -0.3765
33991W        W40591  13.108   6.999  20.633  0.2869  0.2778 -0.0570
33992W        W40592  11.806   2.856  24.698 -0.0645  0.0125  0.3815
33993W        W40593  10.916   7.100  24.658 -0.0464 -0.2610  0.0250
33994W        W40594  12.842   4.599  24.312  0.1966 -0.0172 -0.1713
33995W        W40595   8.324   7.164   3.226  0.3865  0.2754  0.1036
33996W        W40596   3.878   4.420   4.991  0.1449 -0.1493 -0.0495
33997W        W40597  10.825   6.047  20.011 -0.0127 -0.1045 -0.0749
33998W        W40598  21.582   2.722   6.568 -0.0362  0.0987  0.0837
33999W        W40599  14.705   0.908   6.965  0.1244  0.1533 -0.0610
34000W        W40600   5.436   1.324  15.834  0.1460  0.0127 -0.1380
34001W        W40601   0.933   5.280   9.424  0.1826  0.2737 -0.1329
34002W        W40602  12.658   5.054  21.278  0.0141 -0.1582 -0.1366
34003W        W40603   5.407   1.647  18.361  0.4058 -0.0759 -0.4017
34004W        W40604  17.501   0.062  19.435  0.0530  0.1164 -0.0142
34005W        W40605  22.588   3.163   1.392 -0.2906 -0.0485 -0.0304
34006W        W40606   8.564   3.300   3.689 -0.2401  0.0565  0.1618
34007W        W40607  28.879   7.221  26.102 -0.1721 -0.0122 -0.2013
34008W        W40608   6.846   5.638  10.237 -0.0433  0.1508 -0.1308
34009W        W40609  18.787   0.144   6.356 -0.3091  0.1936 -0.0896
34010W        W40610  13.503   0.429  17.734 -0.0655 -0.0405  0.1084
34011W        W40611   3.139   3.494  16.319  0.0737 -0.0176  0.2560
34012W        W40612  25.910   0.940  20.000 -0.0279  0.4300 -0.0730
34013W        W40613  28.818   5.577  23.177  0.0150 -0.2931  0.0148
34014W        W40614   7.680   5.693   0.709 -0.1749  0.3314 -0.1201
34015W        W40615  17.719   6.336  23.905  0.3112  0.1263 -0.2093
34016W        W40616   7.370   6.041   5.940 -0.0499 -0.1798  0.0505
34017W        W40617  14.254   1.350  18.667 -0.2369 -0.1744 -0.0481
34018W        W40618   5.368   6.268   6.384 -0.1984 -0.0009 -0.0407
34019W        W40619  30.886   0.044   6.162 -0.1350  0.1437 -0.0459
34020W        W40620   3.290   2.066   9.035 -0.0977  0.1749  0.1136
34021W        W40621  26.178   7.649  22.993  0.0195 -0.2273 -0.0283
34022W        W40622  23.107   6.320   4.881  0.0894  0.0509  0.0408
34023W        W40623  24.665   5.929  23.106 -0.0370  0.2376 -0.0072
34024W        W40624  17.415   4.499   1.198 -0.0968 -0.2800 -0.2521
34025W        W40625  21.436   4.921  23.690  0.0072  0.0551  0.0377
34026W        W40626   3.388   2.110  24.425  0.0591  0.1769 -0.3282
34027W        W40627   1.504   3.246   7.667  0.3695 -0.2082 -0.1493
34028W        W40628  25.475   2.424   0.893 -0.0171  0.5677  0.0316
34029W        W40629   3.305   2.902  19.173 -0.2837 -0.0465 -0.0064
34030W        W40630   4.565   2.724  18.209  0.2043  0.0264  0.1293
34031W        W40631  15.814   7.735  24.570 -0.1638 -0.0584 -0.0673
34032W        W40632  23.587   6.384   5.077  0.0360 -0.1807 -0.0649
34033W        W40633  13.227   0.452  20.464 -0.0798 -0.1951  0.0474
34034W        W40634  25.317   7.335   9.634 -0.0587  0.0196 -0.1386
34035W        W40635  29.038   6.402   9.728  0.2726 -0.1547  0.1993
34036W        W40636  24.880   2.702  10.603 -0.0546  0.0043 -0.1236
34037W        W40637  14.398   2.622  16.069 -0.2389  0.0445  0.1197
34038W        W40638  20.261   6.770  20.043  0.1046 -0.2307  0.1270
34039W        W40639  29.837   4.965   0.461  0.1694 -0.3646  0.1316
34040W        W40640  24.282   1.151   9.576  0.0276  0.1915 -0.0950
34041W        W40641  29.864   0.168  25.922 -0.1710  0.1931 -0.0861
34042W        W40642   3.248   6.244  18.152  0.0195 -0.1199 -0.0900
34043W        W40643  17.568   2.749   6.346 -0.4140 -0.0570 -0.0655
34044W        W40644   9.657   0.804  14.875 -0.0857 -0.2684 -0.1597
34045W        W40645  17.246   3.620   5.138 -0.0890  0.1126 -0.0439
34046W        W40646  24.302   0.124  16.182 -0.0721 -0.3047 -0.1022
34047W        W40647  16.027   4.181  20.732  0.0400 -0.0286 -0.0372
34048W        W40648  25.493   4.042   7.442 -0.0303 -0.0169 -0.0805
34049W        W40649  21.863   7.162   8.895  0.1949  0.1199  0.0689
34050W        W40650  21.805   4.001   5.914 -0.2914 -0.1369  0.2742
34051W        W40651  16.719   0.766  23.212  0.0695 -0.3522 -0.2379
34052W        W40652  22.271   1.319  25.388  0.3128 -0.4609  0.1394
34053W        W40653  18.091   7.162  15.436 -0.0211  0.0212  0.3515
34054W        W40654  15.557   0.332  21.569 -0.2513 -0.0831 -0.2954
34055W        W40655  24.596   7.283   5.164 -0.2795 -0.1401 -0.1596
34056W        W40656  13.003   0.889  16.975  0.0742  0.1695  0.1849
34057W        W40657  14.772   3.921   7.109 -0.1193 -0.1455 -0.0505
34058W        W40658   3.839   5.232  17.765  0.1769 -0.3390  0.0513
34059W        W40659  19.073   6.672   9.277 -0.1195  0.0290  0.1286
34060W        W40660   6.593   6.957   5.041  0.1392  0.1667  0.1498
34061W        W40661  28.196   4.747  15.835 -0.0471  0.2900 -0.2678
34062W        W40662  29.761   4.747  26.058 -0.0782 -0.4234  0.0395
34063W        W40663   0.431   3.460  22.310 -0.0949 -0.0433 -0.0374
34064W        W40664  20.349   0.510   9.829  0.0156  0.0236 -0.1083
34065W        W40665  26.587   1.088   1.603 -0.1953 -0.0374  0.0231
34066W        W40666  29.265   7.453  19.464 -0.1591 -0.1879  0.0516
34067W        W40667  24.328   1.372  23.845 -0.0881  0.2406 -0.1309
34068W        W40668  17.338   6.288  15.139  0.0393 -0.2866  0.0367
34069W        W40669  29.284   5.062   9.842  0.6202  0.0992  0.0747
34070W        W40670   6.155   7.250   4.877 -0.0340 -0.0785  0.2265
34071W        W40671   8.790   4.000  19.631  0.1323  0.0995  0.0310
34072W        W40672  19.807   1.209  24.028 -0.1836  0.1323  0.2515
34073W        W40673   3.669   7.358   5.818  0.2701 -0.0374 -0.2129
34074W        W40674  30.266   2.226   5.672 -0.1525 -0.2068  0.0289
34075W        W40675   9.306   6.383   7.659 -0.0396  0.0829 -0.2402
34076W        W40676  17.895   6.442  17.270 -0.2614  0.1195  0.0390
34077W        W40677  22.094   7.085  18.286 -0.1936  0.2136  0.0300
34078W        W40678  19.874   3.036   6.195  0.1230  0.1693 -0.0180
34079W        W40679  14.588   3.631  25.791  0.2638  0.2549 -0.1422
34080W        W40680   1.699   4.269  17.980 -0.0765 -0.0706  0.0612
34081W        W40681  30.819   3.753   6.659 -0.2164 -0.1815  0.0469
34082W        W40682   5.589   2.191   3.563 -0.0741  0.1159 -0.4430
34083W        W40683  20.680   4.785   5.787  0.1511 -0.1569  0.1859
34084W        W40684  11.334   1.868  25.166 -0.2775 -0.1133 -0.0724
34085W        W40685  17.304   2.484  14.492 -0.0250 -0.0702  0.2576
34086W        W40686  25.765   2.113   8.518 -0.0560 -0.0712 -0.1122
34087W        W40687  14.529   2.107  25.063  0.1474  0.0021 -0.1235
34088W        W40688  26.941   7.106   3.798 -0.1155  0.0869  0.0283
34089W        W40689  22.326   3.015  10.567  0.1803 -0.0354  0.0393
34090W        W40690  28.916   7.565   0.286  0.1921 -0.1570 -0.0920
34091W        W40691  11.545   6.851   7.257 -0.1397 -0.3046 -0.0328
34092W        W40692   1.691   7.121  21.480 -0.0166  0.1289  0.2507
34093W        W40693   8.802   4.456   8.254  0.0073  0.0673  0.2953
34094W        W40694   3.853   1.010   1.740  0.1442 -0.0145  0.2665
34095W        W40695   6.348   4.962  21.512  0.0308 -0.3207 -0.3021
34096W        W40696  20.614   7.772   9.172  0.2629 -0.3368 -0.1809
34097W        W40697   9.545   1.082  20.343 -0.3398 -0.2378 -0.2501
34098W        W40698   5.600   0.769  25.897  0.0187  0.2601  0.0720
34099W        W40699  14.804   2.554  23.585 -0.1346 -0.1191 -0.1595
34100W        W40700  21.235   1.423   4.913  0.0975 -0.1661  0.1072
34101W        W40701  14.163   0.620   2.956  0.0661  0.3115  0.0780
34102W        W40702  23.761   7.211  24.127 -0.1244 -0.0364  0.1060
34103W        W40703  23.249   6.356  15.969  0.2015  0.1717 -0.0240
34104W        W40704  12.797   3.724   0.047  0.1183 -0.1418 -0.0024
34105W        W40705  25.786   2.738  18.721 -0.0480  0.0553  0.0173
34106W        W40706  29.699   2.045   6.252 -0.1794  0.2584 -0.1235
34107W        W40707   3.375   2.924   9.372  0.2450 -0.0053  0.1281
34108W        W40708  28.969   0.024  17.690  0.3813  0.1271  0.1202
34109W        W40709   7.233   1.793  24.075 -0.0876 -0.0141 -0.0528
34110W        W40710  27.037   2.922   7.456 -0.1328 -0.1123 -0.0395
34111W        W40711  22.069   6.740   3.432 -0.1708  0.4267  0.1010
34112W        W40712  31.156   2.258  17.415  0.2505 -0.1705  0.3034
34113W        W40713  21.902   6.606  21.675 -0.0548  0.2768  0.0120
34114W        W40714  29.283   7.692   7.883 -0.2433 -0.1214  0.0401
34115W        W40715   9.963   6.712  19.340 -0.0258 -0.0280 -0.1043
34116W        W40716  15.838   6.494  20.924 -0.0510  0.0112 -0.2587
34117W        W40717  22.122   0.299  21.236 -0.0664 -0.1785  0.1884
34118W        W40718   1.413   4.663   6.598  0.1825 -0.0043  0.2192
34119W        W40719  25.122   7.261   7.526  0.2051 -0.0513  0.0154
34120W        W40720  18.030   7.813   6.549 -0.2122  0.1047 -0.0878
34121W        W40721   7.874   3.000   8.446  0.2080  0.3341 -0.0661
34122W        W40722  11.617   6.849  15.801 -0.0131 -0.0106 -0.0219
34123W        W40723  29.199   4.593   2.331  0.1720  0.0373  0.0598
34124W        W40724   8.785   2.160   7.809 -0.3580 -0.0513 -0.3951
34125W        W40725  23.969   3.359   4.769 -0.3099  0.0292  0.0594
34126W        W40726  26.697   3.490   5.079  0.0610 -0.3928 -0.2009
34127W        W40727  21.756   3.491  19.624  0.1955 -0.3850 -0.0790
34128W        W40728  20.677   3.203   0.395 -0.1117 -0.0406  0.0035
34129W        W40729  15.377   1.141  21.972 -0.1066  0.1964 -0.1012
34130W        W40730  11.619   6.510  22.232  0.2037 -0.1006 -0.0682
34131W        W40731  13.696   4.160   0.984 -0.3029  0.0542  0.0555
34132W        W40732  24.301   7.696  22.557 -0.3021 -0.0498 -0.2752
34133W        W40733  14.525   3.131  15.427 -0.0976 -0.1754  0.3341
34134W        W40734  13.680   1.919   9.699 -0.1037  0.1304  0.1467
34135W        W40735  20.368   2.292   5.494  0.0299 -0.1685  0.0852
34136W        W40736   0.215   2.288  25.223 -0.2256  0.0851  0.0498
34137W        W40737  12.276   0.655  17.065  0.1847 -0.0164 -0.0551
34138W        W40738  14.833   5.913   7.433  0.0025  0.4250  0.2196
34139W        W40739  15.007   6.069   3.138  0.2421 -0.0560  0.3359
34140W        W40740  17.692   7.407  20.290 -0.3739 -0.1843 -0.2024
34141W        W40741  10.968   2.365   7.177 -0.0889  0.4282 -0.0977
34142W        W40742   5.957   2.404   2.246  0.0192  0.1275 -0.0793
34143W        W40743  23.484   1.373   8.638  0.1130 -0.3787  0.1974
34144W        W40744   6.421   3.760  19.917 -0.0200  0.0279 -0.1974
34145W        W40745  26.991   4.713  23.778  0.1892 -0.0078  0.1948
34146W        W40746  20.161   3.181  19.792 -0.1879  0.2679  0.0801
34147W        W40747  27.474   0.133  18.213  0.0352 -0.0373 -0.1124
34148W        W40748  28.763   5.162  17.739  0.2241  0.1479 -0.2299
34149W        W40749  18.716   3.950   1.249  0.1495 -0.1022 -0.2479
34150W        W40750  27.308   6.242   5.716 -0.0714  0.1429 -0.2830
34151W        W40751   5.146   0.811  15.247  0.2172 -0.0333 -0.2087
34152W        W40752  24.570   0.316  19.686  0.0977  0.0291 -0.1128
34153W        W40753  30.116   4.517  23.246  0.0567  0.0185  0.1716
34154W        W40754  14.426   1.295   7.355  0.1011 -0.1146  0.0963
34155W        W40755   9.747   5.431  19.527  0.0647 -0.0806 -0.1395
34156W        W40756  21.324   4.560   5.078  0.0176  0.2748 -0.0078
34157W        W40757  26.284   1.849   7.938 -0.2283 -0.3681 -0.0928
34158W        W40758  16.735   3.730   3.467 -0.0656 -0.2145  0.0199
34159W        W40759  19.459   4.248  19.948 -0.0263 -0.0732 -0.1649
34160W        W40760  20.179   0.407   2.967 -0.2605 -0.2678  0.0967
34161W        W40761  17.276   6.169   8.868  0.2010 -0.2921 -0.1177
34162W        W40762  18.325   5.935   6.170  0.1270  0.0980 -0.0484
34163W        W40763   4.427   0.975   7.802 -0.2761 -0.3383  0.0017
34164W        W40764   1.138   6.965  22.298  0.0642 -0.0441 -0.2288
34165W        W40765   2.428   3.938  24.586 -0.0082  0.1719 -0.3121
34166W        W40766  21.488   3.205   6.879  0.2861 -0.3081  0.0514
34167W        W40767   7.349   6.769   9.212 -0.2335  0.2636 -0.1220
34168W        W40768  29.885   1.442   6.123 -0.0714  0.0204 -0.3499
34169W        W40769  17.400   0.652  23.708 -0.1462 -0.0602 -0.2759
34170W        W40770  29.176   6.306   0.988  0.0710 -0.0012  0.0960
34171W        W40771  11.328   5.865   0.287  0.0591 -0.2036 -0.0396
34172W        W40772  25.114   5.803   7.156 -0.0552  0.0532 -0.0837
34173W        W40773  12.157   6.554   8.338  0.2455 -0.1175  0.0190
34174W        W40774  29.463   3.798  20.302  0.0005  0.1620 -0.0910
34175W        W40775  30.805   3.331   8.470  0.1816  0.1220 -0.0182
34176W        W40776  20.163   1.148   5.435  0.2800  0.0499  0.1178
34177W        W40777  25.644   1.916  18.818 -0.0443 -0.1591  0.2734
34178W        W40778  14.846   3.875   5.595  0.3351 -0.4115 -0.1677
34179W        W40779  18.104   1.108  17.932 -0.0936 -0.0854 -0.2430
34180W        W40780  20.155   7.155  22.171 -0.1067 -0.3312 -0.2036
34181W        W40781  22.837   4.242  21.188 -0.1030 -0.0124  0.2645
34182W        W40782  22.608   2.188  14.818  0.2747  0.0361  0.0749
34183W        W40783  16.749   5.611  23.415  0.0671 -0.0484  0.1517
34184W        W40784   0.429   6.590  18.994  0.1294 -0.1603  0.0916
34185W        W40785  21.137   5.541   2.265 -0.5354  0.2710 -0.1434
34186W        W40786  30.995   6.320   4.355 -0.0010 -0.1359  0.0303
34187W        W40787  16.914   2.691   0.508  0.1073 -0.0102 -0.0791
34188W        W40788   8.010   2.080   9.781  0.0918 -0.3842 -0.1396
34189W        W40789  19.056   7.076  25.461 -0.2022  0.0178 -0.1699
34190W        W40790  29.346   2.810   0.634 -0.0616 -0.3535  0.0639
34191W        W40791  17.165   3.349  21.441  0.2283  0.1615 -0.1538
34192W        W40792  13.811   6.620  10.111  0.2734  0.2024 -0.1340
34193W        W40793  16.415   6.072   0.633 -0.0381  0.0489  0.1957
34194W        W40794  21.194   3.107   0.316  0.4218  0.0522 -0.2482
34195W        W40795  13.770   5.081  22.166 -0.0173  0.1869  0.2274
34196W        W40796  19.730   5.841   9.486  0.0800 -0.2342 -0.0843
34197W        W40797   1.242   3.221  20.153  0.3630 -0.0284 -0.3813
34198W        W40798  20.536   2.477   8.270 -0.2006  0.2292 -0.2046
34199W        W40799   4.788   5.518   3.967 -0.0324 -0.1872 -0.0214
34200W        W40800  30.659   6.702  10.536 -0.3114  0.0307  0.1589
34201W        W40801  11.743   0.730   2.771 -0.0807  0.2706 -0.0584
34202W        W40802  25.414   1.993   9.772  0.1760 -0.0448  0.0479
34203W        W40803   4.296   1.379  20.099  0.4220 -0.0897  0.1849
34204W        W40804  31.001   4.894   7.847 -0.1088  0.0342 -0.0486
34205W        W40805  16.396   0.024  18.043 -0.2077 -0.0926 -0.2227
34206W        W40806  26.549   5.534  21.310 -0.2556 -0.0595  0.2862
34207W        W40807  28.170   5.035  18.435 -0.2197  0.3423  0.0212
34208W        W40808  12.864   5.896   9.223  0.3668  0.0575 -0.4162
34209W        W40809   2.994   2.159  16.148 -0.0306  0.0473  0.0699
34210W        W40810  16.654   2.692   2.756 -0.2233 -0.0649 -0.1454
34211W        W40811  20.559   3.302   9.402 -0.1732  0.0147 -0.0716
34212W        W40812   9.328   0.710   5.146 -0.0156 -0.1310  0.2284
34213W        W40813  25.223   1.163   4.913  0.2176 -0.1133  0.0496
34214W        W40814  10.003   5.544  14.870  0.3002  0.0261 -0.1199
34215W        W40815   6.173   4.278  18.205 -0.0334 -0.0247 -0.0084
34216W        W40816  17.810   1.823   4.360 -0.0776 -0.1602  0.3276
34217W        W40817  11.298   4.418  24.526  0.1175  0.0911  0.1304
34218W        W40818  10.529   2.915  25.673  0.1344  0.0386  0.0335
34219W        W40819  23.834   6.579  19.335  0.0977 -0.0853  0.1872
34220W        W40820  29.330   7.003   1.720 -0.3474 -0.0904  0.1292
34221W        W40821   8.319   4.061   0.137 -0.0031 -0.2074 -0.0007
34222W        W40822  20.372   4.660   3.942 -0.1791  0.1439 -0.1478
34223W        W40823   0.402   2.395  17.473  0.0227  0.0163  0.1804
34224W        W40824  30.368   2.650  15.647 -0.3374  0.3446 -0.4817
34225W        W40825  30.202   4.308  16.394  0.0799 -0.3737 -0.1494
34226W        W40826  25.656   7.759  18.521 -0.2020 -0.0278 -0.0476
34227W        W40827  19.922   4.774  23.617 -0.0435 -0.3075  0.2008
34228W        W40828   8.142   7.524  19.534  0.0322  0.0535 -0.2355
34229W        W40829  10.202   1.198   9.668 -0.0213  0.1581 -0.2352
34230W        W40830  16.874   4.733  25.041  0.0176 -0.1430 -0.1944
34231W        W40831  30.341   6.039   6.916  0.0525  0.1223  0.0912
34232W        W40832  13.966   5.250  18.480  0.1068 -0.1666 -0.2817
34233W        W40833  18.387   7.693  22.731 -0.0544 -0.0075  0.2174
34234W        W40834  20.470   2.860   0.900 -0.0068  0.1831  0.0493
34235W        W40835  25.696   6.267   4.829 -0.1939 -0.1746 -0.0093
34236W        W40836  26.793   5.621  16.726  0.2212  0.1381  0.4557
34237W        W40837  21.872   2.008   5.989 -0.1722  0.0392 -0.0385
34238W        W40838  18.595   6.950  18.495 -0.1239  0.1121 -0.0166
34239W        W40839  31.279   6.895  18.974  0.4696 -0.1165  0.2113
34240W        W40840  20.619   6.743   9.354 -0.1591 -0.0791  0.2396
34241W        W40841  24.574   2.464  24.466  0.0745 -0.2158 -0.0494
34242W        W40842  20.765   4.196   4.531 -0.1107  0.0460  0.1307
34243W        W40843  23.113   5.291  16.611 -0.1533 -0.0784  0.1774
34244W        W40844  29.944   5.193  16.411  0.1370  0.2216 -0.2129
34245W        W40845  15.334   1.857   0.354 -0.0243 -0.0781 -0.1320
34246W        W40846   1.521   3.864   2.195  0.4361  0.0152  0.1832
34247W        W40847  26.351   6.671   0.001 -0.0648 -0.0179  0.0311
34248W        W40848   6.147   2.860   8.514 -0.0575 -0.1047  0.2671
34249W        W40849  28.590   2.875   9.215  0.1941 -0.0750  0.0502
34250W        W40850  19.796   2.478  23.188  0.0127 -0.0260 -0.0614
34251W        W40851  10.511   3.600   4.259 -0.2495  0.2232 -0.0463
34252W        W40852   8.657   4.581   9.517  0.1981  0.0363  0.0248
34253W        W40853  13.228   0.004   8.042 -0.1621  0.3172 -0.1655
34254W        W40854   0.385   0.645  10.462 -0.0864  0.0800  0.3279
34255W        W40855  17.258   5.512   3.761  0.0169 -0.2222  0.2904
34256W        W40856  30.675   4.607  17.420 -0.0459 -0.0829  0.1024
34257W        W40857   6.612   0.386   5.056  0.1587 -0.0882  0.2321
34258W        W40858  30.578   1.331  21.614 -0.1254 -0.0050  0.0808
34259W        W40859  11.325   4.661  18.704  0.0685  0.0076 -0.0159
34260W        W40860   6.001   2.689  26.111 -0.0505  0.3139  0.0593
34261W        W40861  25.919   0.209  22.768  0.0883 -0.1902 -0.0843
34262W        W40862  17.820   6.115   9.037  0.0583 -0.2327 -0.2387
34263W        W40863   5.790   0.337   4.960 -0.2695 -0.2234  0.2490
34264W        W40864  12.283   7.444  21.041 -0.1819 -0.0973 -0.1282
34265W        W40865  18.264   7.536   5.015  0.1305  0.0711  0.1037
34266W        W40866  21.328   5.259   1.029 -0.1379 -0.0864  0.2476
34267W        W40867   8.249   1.932  23.860  0.0010 -0.1636  0.0246
34268W        W40868   6.210   2.959  23.010 -0.0110 -0.0313 -0.4719
34269W        W40869   0.213   0.742   5.529 -0.1664 -0.1364  0.0686
34270W        W40870  22.992   5.649   3.539  0.1729  0.1592  0.0654
34271W        W40871  22.397   5.316   2.747 -0.4511  0.0184 -0.0394
34272W        W40872  23.405   7.245   3.845 -0.0503 -0.0386  0.2826
34273W        W40873   0.695   7.180  18.354  0.0214  0.0302 -0.0334
34274W        W40874  25.552   0.937  15.213  0.0490 -0.0615 -0.0333
34275W        W40875   5.387   3.118   8.498 -0.2415  0.0291  0.0040
34276W        W40876  18.830   3.575   0.305  0.1254  0.0387  0.1993
34277W        W40877  17.782   5.336  19.014 -0.2977  0.1921  0.0988
34278W        W40878  30.568   4.801  19.997  0.3817  0.1214  0.2348
34279W        W40879  10.543   6.327   2.869 -0.0312  0.1221  0.1497
34280W        W40880  12.118   3.647  20.255 -0.1142 -0.0830  0.0325
34281W        W40881  11.767   3.917   5.714 -0.1507 -0.1021  0.0691
34282W        W40882  25.928   7.248   7.000 -0.0671  0.0472  0.1101
34283W        W40883  12.262   7.351  26.052  0.0144  0.1018 -0.0987
34284W        W40884  10.653   7.006  18.229 -0.0462  0.1191  0.1608
34285W        W40885  26.231   1.358  19.771 -0.0529 -0.2638  0.1677
34286W        W40886  21.404   5.407   4.863 -0.1835 -0.2031  0.1833
34287W        W40887  24.664   5.712  23.943  0.0824 -0.2162 -0.1615
34288W        W40888  27.643   6.337   4.079 -0.0321  0.1280 -0.0469
34289W        W40889  24.649   5.282  20.284  0.0891  0.3809  0.2653
34290W        W40890   8.044   4.188   0.619 -0.2179 -0.2082  0.6764
34291W        W40891  30.726   3.650  18.046 -0.0692 -0.1592 -0.1991
34292W        W40892  20.354   2.426   3.074 -0.1296 -0.2162 -0.1203
34293W        W40893   5.561   1.142   2.022  0.2102  0.1126 -0.0332
34294W        W40894  14.041   2.074  21.772  0.0983 -0.0298 -0.2509
34295W        W40895  10.013   6.703   8.304  0.0359 -0.0307 -0.2194
34296W        W40896  14.533   5.288  23.262 -0.0724  0.1968 -0.0773
34297W        W40897  18.780   6.063  16.670 -0.2253 -0.0455  0.1820
34298W        W40898   6.251   5.817  21.036  0.2194  0.1027  0.0505
34299W        W40899  24.777   6.397   7.815  0.0878 -0.1630 -0.1717
34300W        W40900  29.892   3.849  22.300  0.0998  0.1279 -0.1786
34301W        W40901  14.731   7.177   5.577  0.3064  0.0168  0.0010
34302W        W40902   4.519   4.297   3.386 -0.2213 -0.3717 -0.2157
34303W        W40903   6.921   5.254   5.474  0.1005  0.0620  0.0347
34304W        W40904   8.820   1.286  25.557  0.0240  0.1484  0.1281
34305W        W40905  29.989   1.022  24.245 -0.0256  0.0863  0.2912
34306W        W40906  18.011   7.259  22.485  0.3933  0.2450  0.1450
34307W        W40907  22.077   0.795   8.667  0.4719  0.0977  0.1494
34308W        W40908   4.453   1.596  22.871 -0.0814 -0.0916 -0.6231
34309W        W40909   3.964   2.961  20.673 -0.1128 -0.1070  0.0214
34310W        W40910  31.053   2.751  17.357  0.0205 -0.0375  0.1966
34311W        W40911  19.404   4.119   2.482  0.0831  0.4512  0.0252
34312W        W40912  25.496   2.591  25.350  0.1620 -0.2596  0.0284
34313W        W40913  12.467   4.917  11.003 -0.0012  0.1078 -0.1700
34314W        W40914  10.550   6.719  22.973 -0.0745  0.5225  0.2276
34315W        W40915   2.299   1.868   1.096 -0.2578  0.0819  0.0929
34316W        W40916   1.749   0.802  22.517 -0.0989  0.0004  0.2286
34317W        W40917   7.775   4.660  15.206 -0.1062 -0.3960 -0.2656
34318W        W40918   3.393   6.054  21.275 -0.1870  0.0881 -0.1974
34319W        W40919  28.317   1.310  23.786  0.2006 -0.2102 -0.0346
34320W        W40920  18.295   7.678  16.090 -0.0264 -0.1682  0.2437
34321W        W40921   7.655   3.440  20.014 -0.2633 -0.3209  0.0680
34322W        W40922  28.444   5.962   1.590 -0.0459  0.1661  0.0408
34323W        W40923  29.300   1.475  19.686 -0.1211 -0.0462 -0.1275
34324W        W40924  27.383   1.338  17.391 -0.5823  0.1445 -0.0054
34325W        W40925  25.172   3.918   3.427 -0.0954  0.0970  0.0373
34326W        W40926  12.454   5.929   7.625 -0.1822  0.1397  0.2704
34327W        W40927  18.320   4.905  21.833  0.0003  0.0210  0.2584
34328W        W40928  20.228   5.895  22.665  0.1203 -0.0677  0.1338
34329W        W40929  17.099   0.165   3.835  0.2809  0.0963  0.0533
34330W        W40930   7.135   7.126   2.251  0.0189 -0.1101  0.0455
34331W        W40931   2.808   3.168   5.384  0.0676 -0.2521  0.3240
34332W        W40932   2.483   4.370  17.622 -0.1520 -0.0461  0.2598
34333W        W40933   0.388   2.870   7.979  0.3074  0.2764 -0.1781
34334W        W40934   5.514   0.816   9.893 -0.0199  0.0743 -0.2959
34335W        W40935  22.142   6.402   4.155  0.2119 -0.2126  0.0364
34336W        W40936   3.769   0.286  10.206  0.1890  0.2328  0.1876
34337W        W40937   1.735   4.791   2.805  0.0456  0.1754  0.0406
34338W        W40938  24.282   0.280  24.315  0.1524 -0.0707 -0.2873
34339W        W40939  18.723   5.839   7.426 -0.0032 -0.1170 -0.0383
34340W        W40940  28.288   4.422   5.866 -0.0753  0.1062 -0.0781
34341W        W40941  24.215   0.575  15.516 -0.1529 -0.0547  0.1137
34342W        W40942  28.388   7.821  23.334 -0.2725 -0.0410 -0.0677
34343W        W40943   8.487   1.296  20.806  0.1206  0.0127 -0.0377
34344W        W40944   5.114   7.817  16.848 -0.1243  0.0385  0.1035
34345W        W40945  20.863   6.461  16.906 -0.0729  0.4226 -0.0010
34346W        W40946  27.760   3.930   2.852  0.2811  0.0151  0.0260
34347W        W40947  27.147   7.823   7.551  0.1944  0.2109 -0.0087
34348W        W40948  10.560   1.823  19.661  0.0920 -0.1465  0.1357
34349W        W40949  11.901   1.852  20.001  0.2023 -0.6519 -0.0180
34350W        W40950  24.541   6.139   2.107 -0.0153 -0.1859  0.0159
34351W        W40951  11.360   2.815   4.243  0.0349  0.0657 -0.3093
34352W        W40952  13.947   7.198  21.415 -0.2197  0.3179 -0.0682
34353W        W40953  27.928   2.660  17.848 -0.0186  0.0321  0.0880
34354W        W40954   2.493   4.309  16.669 -0.2619 -0.0205  0.1169
34355W        W40955  25.147   3.107   6.238 -0.1031  0.0502 -0.4173
34356W        W40956   1.210   4.874  17.668 -0.2562  0.1683  0.0821
34357W        W40957  27.863   2.473  17.365 -0.0999 -0.0152 -0.1462
34358W        W40958  11.482   6.216  16.569 -0.2184  0.0800  0.1114
34359W        W40959   9.182   7.506  23.472 -0.0263  0.1396 -0.3502
34360W        W40960  13.094   3.120  24.112  0.0017 -0.1859  0.1391
34361W        W40961  18.136   5.443  24.838 -0.1108 -0.0660 -0.3151
34362W        W40962   6.233   4.211   6.220 -0.1108  0.0709  0.2485
34363W        W40963  22.250   3.348  23.040  0.1391 -0.2759 -0.0285
34364W        W40964  22.092   1.737   3.829  0.0849  0.0168  0.1590
34365W        W40965  28.880   7.249   1.900 -0.0678 -0.3703  0.1060
34366W        W40966   5.983   2.336  15.612  0.1636 -0.3316  0.2491
34367W        W40967   0.012   1.574   9.893 -0.2862 -0.0299  0.4296
34368W        W40968  26.370   4.919  20.753 -0.1200 -0.1388  0.3163
34369W        W40969  14.841   2.409   4.092  0.1629 -0.2546  0.2499
34370W        W40970   8.673   1.886   0.769 -0.0365  0.2734  0.0719
34371W        W40971   6.593   0.965   9.957  0.2917  0.0377 -0.0933
34372W        W40972  26.152   1.904  22.080 -0.0459 -0.2021  0.4293
34373W        W40973  14.489   1.641   9.152  0.2402  0.2493 -0.0037
34374W        W40974  10.517   2.327   9.754  0.1879 -0.3357  0.1925
34375W        W40975   4.864   3.160   5.957 -0.0577 -0.1413 -0.0568
34376W        W40976  24.452   2.578   5.380 -0.1511 -0.2543 -0.3074
34377W        W40977  10.971   7.454  16.511 -0.1903 -0.1776 -0.2012
34378W        W40978   4.585   2.313  25.745 -0.0668 -0.0813 -0.1236
34379W        W40979  16.315   0.061  21.956  0.1268  0.2460 -0.1385
34380W        W40980   6.528   6.470   5.136  0.2575 -0.1902  0.0518
34381W        W40981   2.199   5.105  24.369 -0.0159 -0.0461  0.2114
34382W        W40982   1.772   0.438   1.202 -0.1207 -0.0015  0.1106
34383W        W40983   3.376   5.160   5.250 -0.0623 -0.0034  0.1040
34384W        W40984  12.773   0.280  16.389 -0.0193 -0.2604  0.1959
34385W        W40985   4.927   5.741  19.074  0.0149 -0.0883  0.1095
34386W        W40986  24.040   6.270  24.929  0.1763  0.4980 -0.1476
34387W        W40987  27.366   0.150   3.581 -0.1742 -0.0773  0.0169
34388W        W40988  14.400   6.602  23.136 -0.1325  0.1802 -0.2939
34389W        W40989  28.667   4.925   7.504  0.0364 -0.0373 -0.0170
34390W        W40990   1.248   2.748   3.199  0.1052 -0.1328 -0.2470
34391W        W40991  12.173   0.357  16.104  0.0154 -0.4952 -0.0662
34392W        W40992  10.870   0.956  16.531 -0.1486 -0.0583  0.0304
34393W        W40993  25.670   6.630  19.705  0.1473  0.0833 -0.0785
34394W        W40994  29.139   5.266  24.781 -0.0423  0.0778  0.0867
34395W        W40995  18.704   0.728   4.066 -0.0821  0.0268  0.0565
34396W        W40996  19.244   5.899  22.793  0.3148  0.0572  0.2424
34397W        W40997  25.528   2.286  21.158 -0.2250 -0.1525 -0.0708
34398W        W40998   9.567   4.726   4.264  0.0887 -0.0825  0.2782
34399W        W40999  16.433   7.727   9.300  0.3482 -0.0462  0.0023
34400W        W41000   8.352   4.768   2.136  0.0344 -0.1375 -0.2674
34401W        W41001   4.698   5.587  19.841 -0.1322  0.0907 -0.1716
34402W        W41002   3.277   5.155  16.788  0.1207  0.2142  0.1840
34403W        W41003  16.235   7.169   7.533  0.1887  0.0123  0.0722
34404W        W41004  29.934   7.411  24.975 -0.0507  0.3234  0.1141
34405W        W41005  12.060   3.678  18.474 -0.3154  0.0020 -0.1770
34406W        W41006  12.194   0.734   8.436 -0.1068  0.2194  0.4675
34407W        W41007   6.578   0.555  15.499  0.2939 -0.3391 -0.0796
34408W        W41008  30.919   4.818   7.310 -0.0990  0.1103 -0.0145
34409W        W41009  29.935   2.571  16.936 -0.0085  0.2112  0.1124
34410W        W41010   5.613   0.328   0.639 -0.0707 -0.0916 -0.0356
34411W        W41011  26.816   0.701  16.986  0.2238  0.0143 -0.0985
34412W        W41012  31.162   2.453  10.908 -0.1296 -0.2131  0.0461
34413W        W41013  19.372   6.982   2.627 -0.2286  0.0997 -0.1843
34414W        W41014  18.192   1.710   2.318 -0.1374  0.0947  0.1266
34415W        W41015  30.476   4.231   9.313 -0.1582 -0.0311 -0.0752
34416W        W41016  13.039   1.566  16.487  0.1446 -0.1393 -0.0350
34417W        W41017  24.525   2.328  20.345  0.2840  0.1431 -0.1125
34418W        W41018   5.010   5.030  21.435 -0.3075  0.2379 -0.0509
34419W        W41019   6.631   4.130  10.649 -0.1712  0.0636  0.1122
34420W        W41020  19.254   3.378  24.247  0.0225  0.0840  0.4429
34421W        W41021  23.989   5.738  20.958 -0.0084 -0.1737  0.0360
34422W        W41022  14.851   5.552   6.856 -0.1844  0.1632  0.1959
34423W        W41023   7.080   4.199   5.125 -0.5615  0.3159  0.1827
34424W        W41024  23.457   2.867  16.343  0.3418 -0.1302  0.2812
34425W        W41025  30.099   7.798   7.346  0.1679  0.0101  0.0922
34426W        W41026  24.043   3.948   9.879 -0.2392 -0.1430  0.1195
34427W        W41027  20.322   4.561  17.863 -0.1566  0.0605 -0.0850
34428W        W41028   7.132   3.571   9.023 -0.0131 -0.2920 -0.0639
34429W        W41029   2.122   0.492  22.375 -0.3445  0.1678 -0.0644
34430W        W41030  11.686   0.449  15.140  0.1668  0.2062  0.2477
34431W        W41031  15.349   3.986   4.104 -0.1770 -0.1983 -0.1844
34432W        W41032  16.385   5.345   1.451 -0.0410  0.1420  0.1092
34433W        W41033   3.095   1.036   7.864 -0.0167 -0.0435 -0.3779
34434W        W41034   2.729   7.189  16.988  0.1028  0.1279  0.0117
34435W        W41035  14.855   5.565  18.646  0.0914 -0.2388  0.5124
34436W        W41036   9.548   5.803   2.992  0.0244 -0.2094 -0.1232
34437W        W41037   4.907   2.481  17.941 -0.0644  0.1720  0.0551
34438W        W41038  27.698   3.853  15.609  0.3309  0.2795  0.0680
34439W        W41039   3.103   5.945   8.418 -0.3886  0.1750 -0.0751
34440W        W41040  27.805   7.352  22.084 -0.1045  0.0781 -0.0448
34441W        W41041  15.713   6.449   1.611 -0.0170  0.1161 -0.0790
34442W        W41042  19.433   4.513  15.280  0.1215  0.2516 -0.1341
34443W        W41043   0.957   6.340   1.155  0.2436  0.0801  0.0975
34444W        W41044  30.457   5.755  15.847 -0.0444  0.4081  0.2994
34445W        W41045  25.083   2.149  21.494  0.1439 -0.0455  0.2676
34446W        W41046  24.748   7.131  25.233 -0.1195  0.0193  0.2844
34447W        W41047   3.387   7.634  11.414  0.4260 -0.2756  0.1031
34448W        W41048   3.029   5.047   7.887 -0.0586 -0.2155 -0.1151
34449W        W41049  12.031   0.158   6.602 -0.3469  0.1551  0.1309
34450W        W41050   7.625   7.428   2.174 -0.0877  0.1965 -0.1060
34451W        W41051  29.059   7.046  19.854 -0.2248 -0.1042  0.1167
34452W        W41052   0.066   1.899   4.816  0.2162  0.0420  0.0689
34453W        W41053  28.176   4.527   9.413  0.0690 -0.2649  0.1112
34454W        W41054   2.059   6.629   3.933  0.0993  0.0701 -0.0487
34455W        W41055  22.822   0.993  24.656 -0.0350  0.1616 -0.0681
34456W        W41056  10.981   1.441  23.379 -0.1261 -0.4282 -0.0947
34457W        W41057   4.868   0.870   5.055  0.0646 -0.0108  0.0520
34458W        W41058  20.980   1.787  21.054  0.1069 -0.2272  0.0206
34459W        W41059  20.983   1.051  20.339  0.0934 -0.3687  0.1591
34460W        W41060  26.904   5.965   4.576  0.0779  0.0383  0.0645
34461W        W41061  15.401   0.220   5.039  0.2576 -0.1755  0.3682
34462W        W41062  22.943   0.718  19.363  0.3110  0.1088  0.0992
34463W        W41063  13.119   2.045   7.630 -0.0172  0.2263 -0.2814
34464W        W41064  10.403   2.292  10.580  0.0471 -0.2115  0.0294
34465W        W41065  30.163   3.761   1.878 -0.0948  0.1408 -0.1241
34466W        W41066  24.592   0.307  15.331 -0.1290 -0.0036  0.0244
34467W        W41067  15.901   0.347   8.811  0.0293  0.1841 -0.4438
34468W        W41068  28.881   4.226   3.587 -0.2626  0.2117 -0.1631
34469W        W41069   1.975   4.564  21.343 -0.0364  0.1995 -0.0931
34470W        W41070   0.702   6.968  18.916  0.3605  0.2497 -0.1726
34471W        W41071  15.599   1.819  24.226  0.2429  0.0334 -0.2833
34472W        W41072   1.652   0.812   2.416 -0.0015 -0.0465  0.0939
34473W        W41073  15.860   5.369  15.099  0.0858  0.2709  0.0171
34474W        W41074  27.015   5.478  25.999  0.1943 -0.3417  0.2337
34475W        W41075   6.394   1.227  20.265 -0.0008 -0.0560  0.3208
34476W        W41076  27.106   6.279   2.849 -0.2480 -0.0504 -0.0564
34477W        W41077  16.025   0.642   8.455  0.2611  0.0538 -0.0116
34478W        W41078   6.254   0.379   4.736  0.1764  0.3210  0.1332
34479W        W41079  23.797   0.215   5.007  0.0479 -0.1360 -0.2019
34480W        W41080  14.277   4.257   0.389 -0.1395 -0.0191 -0.0877
34481W        W41081   8.243   1.624   8.346  0.1130  0.2471  0.1564
34482W        W41082  19.737   5.154  20.734  0.2224 -0.2636  0.2592
34483W        W41083  15.360   0.365  10.985 -0.2752  0.1156 -0.2198
34484W        W41084  19.096   1.423  17.989 -0.2883 -0.1557 -0.0035
34485W        W41085   1.824   1.777   5.361  0.4509 -0.1954 -0.0693
34486W        W41086  25.558   3.348  10.724  0.0192  0.1493 -0.1253
34487W        W41087  23.840   2.652  22.550  0.3193 -0.1521 -0.0761
34488W        W41088  22.129   5.254  23.276 -0.0524  0.0574  0.1135
34489W        W41089   3.522   6.548  19.128 -0.2853  0.1597  0.3859
34490W        W41090   6.238   5.036   3.544  0.0004 -0.2745  0.1450
34491W        W41091  23.063   2.144   1.171 -0.1656 -0.0925  0.1473
34492W        W41092   9.817   3.404  18.624  0.2974 -0.0687 -0.0545
34493W        W41093  22.823   2.741  18.454 -0.2489  0.2661  0.4445
34494W        W41094  10.846   3.478   3.012 -0.1661  0.1603 -0.2646
34495W        W41095  18.821   2.512  15.487 -0.0302  0.1704 -0.1859
34496W        W41096   6.521   2.296  15.554 -0.0527  0.2317 -0.2108
34497W        W41097  26.357   3.556  18.555 -0.1766  0.0528  0.4667
34498W        W41098   5.744   2.814   2.455  0.1489  0.0215  0.0000
34499W        W41099   0.962   5.445   7.490 -0.0294 -0.1207 -0.0798
34500W        W41100   2.650   4.918   3.771 -0.1795  0.1835 -0.1213
34501W        W41101   6.902   7.750   4.770  0.2065 -0.0572  0.2292
34502W        W41102  27.920   0.005   7.083  0.0029 -0.2448 -0.1850
34503W        W41103   1.018   1.364   9.977  0.0452  0.3783 -0.0981
34504W        W41104  27.393   4.289   7.732  0.4574 -0.0767  0.1322
34505W        W41105  17.045   4.242  22.894  0.0043  0.2909 -0.1658
34506W        W41106  12.899   5.570  15.425  0.2663 -0.1900  0.0900
34507W        W41107  14.493   6.878  19.124  0.0838  0.0054  0.2284
34508W        W41108  17.517   1.789   3.387  0.1417  0.0978 -0.1217
34509W        W41109   5.059   7.665   5.782  0.0907 -0.1155 -0.0205
34510W        W41110  26.377   2.952  23.443 -0.2377 -0.2631  0.0974
34511W        W41111  25.147   6.892  19.751  0.2566  0.1867 -0.1127
34512W        W41112  27.119   0.879   5.454  0.3312  0.2225  0.0086
34513W        W41113  25.950   0.022   8.910 -0.2215  0.0347 -0.1729
34514W        W41114  24.693   0.690  25.018 -0.3339 -0.0886  0.0230
34515W        W41115  21.817   7.197   3.156 -0.1340 -0.2963 -0.1201
34516W        W41116  17.722   1.168  15.788  0.0855  0.0898 -0.1544
34517W        W41117  29.765   0.310  19.971 -0.2242  0.1738  0.2966
34518W        W41118  10.649   5.287   8.437 -0.1407  0.3724  0.0855
34519W        W41119  11.942   7.486   1.505  0.2074 -0.0669  0.0744
34520W        W41120  26.934   4.250   2.173 -0.1459  0.2421 -0.0087
34521W        W41121  17.294   5.577   8.664 -0.0546  0.0486  0.0681
34522W        W41122   9.864   3.356   0.976 -0.3363 -0.1041 -0.0698
34523W        W41123  28.102   1.435   6.299  0.0094 -0.1906 -0.1800
34524W        W41124   6.145   7.233  20.736 -0.4165 -0.1988  0.0321
34525W        W41125  20.219   4.471  20.215 -0.0042  0.1641 -0.0463
34526W        W41126  23.938   2.063  17.324 -0.0482 -0.0703 -0.2390
34527W        W41127  15.266   4.448   7.495  0.0299  0.0285  0.0667
34528W        W41128  16.606   2.665  20.906  0.1251 -0.0887 -0.0712
34529W        W41129   7.430   2.097  24.465  0.0299 -0.0052  0.1948
34530W        W41130  30.400   6.709  19.230 -0.2547 -0.0441 -0.2183
34531W        W41131  13.827   0.879  16.700  0.0106  0.0046  0.1828
34532W        W41132  26.090   3.715  25.624 -0.1821  0.3129  0.1029
34533W        W41133  16.944   6.619  25.597 -0.0676  0.1187  0.2026
34534W        W41134   4.191   0.214  15.995 -0.1355 -0.1664 -0.1932
34535W        W41135   5.802   3.140  20.027 -0.2179 -0.1700  0.0223
34536W        W41136   0.492   6.352   4.733  0.3877 -0.1648 -0.0620
34537W        W41137   8.494   5.810  19.800 -0.0924 -0.2853 -0.0027
34538W        W41138  17.546   1.693  20.381 -0.1422  0.1231  0.0050
34539W        W41139   4.474   3.915   7.450 -0.1690 -0.1171 -0.0834
34540W        W41140  31.027   4.116  16.782 -0.0773 -0.1157  0.1028
34541W        W41141  19.395   3.092  21.819  0.2455 -0.0791  0.0855
34542W        W41142   1.441   3.668   4.930  0.1039 -0.0101 -0.1794
34543W        W41143  29.162   5.528  25.246  0.1341  0.1553  0.1779
34544W        W41144  29.178   6.022  24.122 -0.0249 -0.1483  0.0730
34545W        W41145  19.555   2.313  11.190  0.0411 -0.0083  0.3395
34546W        W41146   7.826   4.754  20.983 -0.2343  0.1047  0.1725
34547W        W41147  30.189   3.783  17.231  0.2386  0.1904  0.2249
34548W        W41148  12.984   7.205  22.466  0.2077 -0.1952  0.2241
34549W        W41149  12.795   5.837   5.443 -0.1196 -0.0096  0.1920
34550W        W41150   1.557   7.112  25.226 -0.0464 -0.0470  0.1594
34551W        W41151  25.823   5.507  22.036  0.1573 -0.0245  0.1622
34552W        W41152   8.320   7.632   1.536  0.1796  0.0346  0.1034
34553W        W41153  23.187   2.448   0.817  0.1666 -0.5206  0.0287
34554W        W41154  11.579   4.649  19.592  0.1500  0.1266 -0.2761
34555W        W41155  18.083   7.346  16.346 -0.0217  0.1909  0.2322
34556W        W41156   5.385   1.202  20.608  0.0425 -0.1498 -0.1257
34557W        W41157  26.553   1.681  21.921 -0.2441  0.2234 -0.2430
34558W        W41158   8.868   3.532  18.298  0.2614  0.1234 -0.1308
34559W        W41159  27.577   0.073  21.177  0.1756  0.2881 -0.1622
34560W        W41160  30.108   3.982   8.263  0.0083 -0.0474 -0.1147
34561W        W41161  25.550   3.720   3.146 -0.0487  0.0692  0.0359
34562W        W41162   8.054   2.085   1.161 -0.0117  0.1704  0.1314
34563W        W41163  19.289   4.901  18.703 -0.0260  0.2179 -0.0263
34564W        W41164   3.885   6.277  22.756 -0.2507  0.1335 -0.1084
34565W        W41165  23.574   3.580   9.045  0.1684 -0.0231  0.2018
34566W        W41166  13.862   5.736  19.134  0.0010  0.1485 -0.0164
34567W        W41167   7.289   7.613   3.902  0.2087 -0.0904 -0.1389
34568W        W41168  24.542   1.065  25.624  0.3042 -0.0882 -0.3854
34569W        W41169  29.163   7.653  21.631  0.0107 -0.2990  0.1724
34570W        W41170  19.150   5.061  25.230 -0.0952 -0.3396 -0.0566
34571W        W41171  10.936   2.985   5.962 -0.2131 -0.0183  0.1641
34572W        W41172  15.570   5.617  15.542 -0.1133 -0.1029 -0.0196
34573W        W41173   9.753   6.361   4.204 -0.2371  0.0697  0.0201
34574W        W41174  24.126   0.593   2.210  0.2325 -0.0222 -0.1552
34575W        W41175  14.032   0.820  20.974  0.3037 -0.0663 -0.0728
34576W        W41176   0.504   3.445  21.588  0.0293 -0.1632  0.1263
34577W        W41177   9.759   4.565  23.928  0.0407  0.0291  0.1367
34578W        W41178   8.856   4.283  10.441  0.0814  0.2269 -0.2569
34579W        W41179  30.704   1.895   1.509 -0.0253  0.2345  0.0418
34580W        W41180   1.524   5.472  18.993  0.3568 -0.0527  0.0047
34581W        W41181  15.368   0.126   0.489 -0.0594  0.2749  0.0433
34582W        W41182   3.698   7.105  23.079 -0.1941  0.2118 -0.0357
34583W        W41183  26.763   6.518   9.431  0.1032  0.0432  0.1593
34584W        W41184  12.367   1.031   6.415 -0.4273 -0.2618 -0.0839
34585W        W41185  13.817   0.009  15.562 -0.1647 -0.2482 -0.1891
34586W        W41186   7.356   7.168   6.723  0.1096  0.2426  0.0160
34587W        W41187  21.231   4.765   1.851 -0.1428  0.0967  0.1172
34588W        W41188  30.215   3.941  10.116  0.0214  0.0640  0.3411
34589W        W41189  30.398   4.326   6.675  0.1579  0.0433 -0.0224
34590W        W41190  30.126   4.588   7.712  0.2518 -0.1445  0.0893
34591W        W41191  26.091   0.022   2.414  0.1284 -0.0236 -0.0749
34592W        W41192  10.630   4.260   5.947 -0.0402  0.0833 -0.0738
34593W        W41193  19.849   5.742  16.757  0.4297 -0.0797 -0.1420
34594W        W41194  28.203   3.777  10.569  0.3495  0.1929  0.0398
34595W        W41195  28.403   3.938  22.947 -0.1840 -0.0409 -0.0361
34596W        W41196  15.236   4.850   7.148  0.0398 -0.1064  0.2348
34597W        W41197  10.946   5.650  19.081  0.1278 -0.0879  0.1875
34598W        W41198   3.809   3.023   3.680 -0.2091 -0.0894  0.1371
34599W        W41199   1.790   2.467  25.444 -0.2282  0.2449 -0.3709
34600W        W41200  27.748   1.967  20.418  0.3297  0.0705  0.2250
34601W        W41201  22.234   3.638   6.686  0.0112 -0.3302 -0.2907
34602W        W41202   8.062   3.202   1.496 -0.1291  0.0041 -0.0202
34603W        W41203  30.166   2.209  24.166 -0.0782 -0.1058 -0.2962
34604W        W41204   8.880   7.371   7.985  0.1710  0.0295  0.0740
34605W        W41205   1.346   3.527  19.700 -0.3243  0.0092 -0.1030
34606W        W41206  11.785   2.649   4.430  0.1251  0.1130  0.0500
34607W        W41207   2.497   1.697  19.764  0.1903 -0.0411 -0.0160
34608W        W41208   3.331   5.098  21.098 -0.2342 -0.1469  0.1728
34609W        W41209   5.145   1.540   3.809 -0.1001 -0.0834  0.0804
34610W        W41210   6.342   3.249  17.356 -0.2968 -0.0892  0.0667
34611W        W41211   1.325   2.881  23.541 -0.1476 -0.2248 -0.1770
34612W        W41212  15.379   0.292  24.419 -0.0882 -0.0965  0.3412
34613W        W41213  13.548   2.257  15.954 -0.0003  0.2357 -0.2262
34614W        W41214  28.278   4.489   4.935 -0.3721  0.1697 -0.0299
34615W        W41215  14.147   7.801  23.292 -0.0348 -0.1978  0.4353
34616W        W41216  12.593   7.560  23.938 -0.2952  0.0976  0.0030
34617W        W41217   3.254   7.693  15.882 -0.2127  0.1792  0.1808
34618W        W41218  21.342   0.945  22.288  0.1426 -0.0300  0.1443
34619W        W41219  29.074   2.776  21.427 -0.4095  0.2794 -0.1721
34620W        W41220   3.477   3.710  23.939 -0.0035 -0.1864 -0.1878
34621W        W41221  19.316   3.642   2.952  0.2561 -0.0428 -0.1516
34622W        W41222   4.950   1.223   8.033  0.0038  0.2258  0.0152
34623W        W41223  14.841   4.915   2.592 -0.3041 -0.0114  0.1598
34624W        W41224  31.242   0.814  23.177  0.0047  0.0490  0.0314
34625W        W41225   2.054   3.791   6.668 -0.0007 -0.1851 -0.0537
34626W        W41226   4.141   3.912   5.624  0.1221 -0.1370  0.0680
34627W        W41227   2.949   1.872  25.619 -0.0677 -0.2375 -0.4092
34628W        W41228   1.203   6.805  21.335 -0.0425  0.3609  0.2269
34629W        W41229   7.023   3.939   6.627 -0.0240 -0.1548 -0.4780
34630W        W41230  24.712   0.154  15.983  0.0381  0.1212  0.0773
34631W        W41231  15.557   2.026   2.490 -0.0622  0.0224 -0.0517
34632W        W41232   4.633   7.363  23.292 -0.2646 -0.1651  0.8500
34633W        W41233   3.729   7.396  21.293 -0.1303  0.0207  0.0089
34634W        W41234  24.151   6.424  19.747  0.2009 -0.1818 -0.0872
34635W        W41235  27.391   3.212  18.564  0.0700  0.1523 -0.1632
34636W        W41236   9.032   6.401   2.001 -0.0470 -0.2177 -0.2059
34637W        W41237  18.897   0.236   9.767  0.1963 -0.1062 -0.0167
34638W        W41238  19.941   5.328  24.890  0.1106  0.1252  0.3330
34639W        W41239   7.663   2.229  16.526 -0.0115 -0.1497  0.0272
34640W        W41240  11.460   7.586  19.360 -0.2814 -0.3717 -0.0276
34641W        W41241  19.834   1.310  19.988 -0.3497  0.0028  0.1849
34642W        W41242  15.693   3.425   5.424  0.0214  0.1123 -0.1412
34643W        W41243  11.526   5.860   3.010  0.0267  0.0173 -0.0386
34644W        W41244   8.986   6.898   2.479 -0.3024 -0.1415 -0.2032
34645W        W41245  15.703   6.779  18.385  0.0029  0.0024  0.1159
34646W        W41246  19.788   2.373   2.936 -0.2023  0.2774 -0.1321
34647W        W41247  20.484   6.344   7.483 -0.2562  0.0066 -0.0035
34648W        W41248   4.606   6.528   5.668 -0.0634  0.1853 -0.0675
34649W        W41249  23.066   0.837   4.565 -0.1023  0.3128  0.0071
34650W        W41250  14.031   3.216   8.319  0.0109  0.1465  0.0007
34651W        W41251  26.382   4.894   5.977  0.0039  0.2020 -0.0702
34652W        W41252  24.146   1.186  17.370 -0.2204 -0.1462 -0.3119
34653W        W41253  20.866   7.267  21.376 -0.0308 -0.0273 -0.1503
34654W        W41254   6.959   6.908  23.488 -0.2048 -0.2207 -0.1085
34655W        W41255  18.786   4.571   7.301 -0.2052 -0.2871 -0.0452
34656W        W41256  13.867   4.574   4.077 -0.3603 -0.4233  0.0262
34657W        W41257  29.099   0.771  25.377 -0.0975 -0.0238 -0.0006
34658W        W41258  21.086   0.138  25.151 -0.2538  0.0691 -0.3643
34659W        W41259  19.869   5.948   3.661  0.1342  0.0406  0.2177
34660W        W41260  21.644   7.248   4.082 -0.1544 -0.0557  0.2800
34661W        W41261  14.942   5.460  18.110 -0.1828  0.2913  0.3017
34662W        W41262  29.123   5.057  10.447 -0.0432 -0.0577 -0.2140
34663W        W41263  29.647   4.618  22.562 -0.2705 -0.1054 -0.0179
34664W        W41264  17.308   2.878  18.643  0.0944 -0.0048  0.0109
34665W        W41265  25.377   3.133   0.474 -0.1301  0.0196  0.0850
34666W        W41266  26.675   5.817  24.669 -0.3411  0.3734  0.2216
34667W        W41267   7.187   0.102  21.488 -0.0092  0.0605  0.1484
34668W        W41268  25.830   2.666   7.326  0.0421 -0.0091  0.0748
34669W        W41269   7.142   6.588  18.082 -0.0827  0.0456 -0.0340
34670W        W41270  25.782   7.445  15.799 -0.0806 -0.3895  0.2577
34671W        W41271   7.049   5.780   4.220  0.0114  0.1701 -0.1201
34672W        W41272  30.257   4.625  21.780  0.0960 -0.1286 -0.2208
34673W        W41273  11.401   6.380   9.287 -0.1440  0.0661  0.2262
34674W        W41274   7.496   2.260   9.518  0.3659 -0.0043  0.1376
34675W        W41275   2.738   0.475   7.321  0.2327  0.1352 -0.2783
34676W        W41276   2.600   5.566  18.812  0.0745 -0.1350 -0.1948
34677W        W41277  25.934   0.201  10.283  0.1442 -0.2826 -0.1410
34678W        W41278  27.938   5.853  19.429  0.3276 -0.3102  0.0808
34679W        W41279  13.702   5.081  24.317 -0.0163 -0.0161  0.0132
34680W        W41280  21.067   2.878  23.397 -0.1360  0.2550  0.3587
34681W        W41281  26.894   7.663   7.131 -0.1600 -0.2638 -0.0190
34682W        W41282   1.834   6.092  23.469 -0.0560 -0.1384 -0.1090
34683W        W41283   4.447   6.249  22.727 -0.0496 -0.1037 -0.2029
34684W        W41284  13.821   3.355   0.672  0.0983  0.0314  0.2485
34685W        W41285  17.550   6.590  16.477 -0.0866 -0.1005 -0.0201
34686W        W41286  28.594   1.277  20.813  0.0365  0.0490 -0.2219
34687W        W41287  25.793   7.382   8.877 -0.3086 -0.0470 -0.1293
34688W        W41288  11.398   3.919  15.902 -0.1043  0.0495  0.1787
34689W        W41289  14.712   1.330  25.458 -0.1099  0.3539  0.0322
34690W        W41290   3.167   1.826  26.061  0.3017 -0.2016  0.3306
34691W        W41291  20.686   6.863   8.008 -0.1465 -0.3097  0.0033
34692W        W41292   5.042   0.954   4.038 -0.1173 -0.2513 -0.4204
34693W        W41293   5.702   5.822   5.868 -0.1457  0.1802 -0.1076
34694W        W41294  29.157   4.907  17.966 -0.1175  0.1927  0.2028
34695W        W41295  23.699   7.505  19.565  0.2220 -0.0970  0.2343
34696W        W41296   9.280   0.857  24.852 -0.2576  0.0319 -0.0249
34697W        W41297  29.196   4.808   9.391  0.2475  0.0986 -0.0839
34698W        W41298  14.159   0.757  23.953  0.0869  0.0882  0.2361
34699W        W41299   0.459   0.681   3.547 -0.0745 -0.2453  0.0268
34700W        W41300  19.528   0.632   1.018  0.1498  0.1123  0.1258
34701W        W41301  21.038   6.844  16.372 -0.2447  0.3573 -0.2900
34702W        W41302   6.761   4.740   0.320 -0.1394 -0.1180 -0.2113
34703W        W41303  22.953   4.797  23.542  0.3081  0.1703  0.1423
34704W        W41304  12.969   7.267  10.434 -0.1311  0.1931 -0.3269
34705W        W41305  26.854   3.417  15.422 -0.2584  0.1376  0.1268
34706W        W41306  11.420   3.753  23.885  0.0458 -0.3925 -0.1597
34707W        W41307   3.351   0.239   6.016  0.3204 -0.0855 -0.3977
34708W        W41308  25.726   3.612  21.260  0.0142 -0.1306  0.0380
34709W        W41309   0.762   7.495   9.723  0.0288  0.2869 -0.0150
34710W        W41310  22.366   7.460   9.490 -0.1154 -0.0850 -0.1592
34711W        W41311  14.975   4.484   5.006 -0.0799 -0.1391 -0.0447
34712W        W41312  12.459   6.048  24.515 -0.2353  0.2829  0.1132
34713W        W41313  24.391   3.926  17.116 -0.0099 -0.1455  0.2601
34714W        W41314  17.669   7.153   5.917 -0.1115 -0.1877 -0.0264
34715W        W41315   6.070   1.919  21.413 -0.0542 -0.0286 -0.1263
34716W        W41316  20.273   3.799  15.201  0.1333 -0.2779  0.0780
34717W        W41317   2.797   4.937   9.280 -0.2547 -0.0267 -0.3370
34718W        W41318  25.092   1.455   8.550 -0.2150 -0.5114  0.1853
34719W        W41319  28.339   1.214  15.347 -0.0315  0.2160 -0.0576
34720W        W41320  14.713   4.427   2.834 -0.0055  0.4259  0.0716
34721W        W41321   0.618   6.308  22.861  0.0720  0.4515  0.1504
34722W        W41322  15.104   0.807  16.184  0.0024 -0.1632  0.4267
34723W        W41323   1.309   3.011   0.025 -0.2389  0.1240  0.2534
34724W        W41324  18.963   3.594  16.750  0.0634  0.1573 -0.0922
34725W        W41325   7.910   3.788   8.390 -0.1686  0.1546 -0.0773
34726W        W41326  16.054   5.415   6.262 -0.1156 -0.1865  0.0585
34727W        W41327  16.259   4.251  21.173  0.4386  0.1878 -0.2569
34728W        W41328  25.432   4.882  17.894 -0.1562  0.2210  0.0205
34729W        W41329  17.780   6.006  10.305 -0.2796 -0.2374 -0.1916
34730W        W41330  25.784   3.461   6.725 -0.0119  0.2834  0.2391
34731W        W41331  28.211   3.870  10.111  0.2737 -0.0492  0.1718
34732W        W41332   4.668   6.828  23.047 -0.2750  0.1251  0.0332
34733W        W41333  29.936   0.868   0.336 -0.1990 -0.2443 -0.1538
34734W        W41334  13.669   6.016   6.639 -0.0712 -0.1262 -0.0586
34735W        W41335  29.301   1.585  21.626 -0.1417  0.1709  0.0108
34736W        W41336  16.790   6.434  22.751 -0.0185  0.0558 -0.1358
34737W        W41337  16.503   3.373  15.347  0.0784 -0.3273  0.0346
34738W        W41338  20.787   3.633  22.881  0.2220  0.1071  0.1036
34739W        W41339  24.249   4.501   0.084 -0.0701 -0.0366  0.1343
34740W        W41340   9.590   6.644   3.699  0.1008  0.1703 -0.0582
34741W        W41341   0.623   1.125  19.478  0.3738 -0.0848 -0.0848
34742W        W41342  10.135   1.019   6.592  0.3270 -0.2643  0.1135
34743W        W41343  14.977   6.807   2.843  0.0807  0.3004  0.2881
34744W        W41344  31.136   4.255   4.314  0.0676  0.0056  0.3944
34745W        W41345   1.002   0.241  25.880  0.1798  0.1315  0.0146
34746W        W41346  12.220   2.604  25.579  0.1190  0.0274  0.4040
34747W        W41347  15.069   1.213  24.222  0.1108 -0.0901 -0.0888
34748W        W41348  27.322   7.452  21.276  0.2939  0.1015  0.2420
34749W        W41349   2.226   3.757   9.306 -0.1243 -0.0464  0.2498
34750W        W41350   9.979   0.804  25.809  0.0844 -0.2162 -0.1376
34751W        W41351  26.091   0.354  23.705  0.1093  0.0612 -0.3668
34752W        W41352  23.735   0.463  22.993  0.2329  0.2259  0.0448
34753W        W41353  21.246   4.182   0.301 -0.0366 -0.1637 -0.0707
34754W        W41354  24.860   4.060  20.918 -0.0890  0.0380 -0.0914
34755W        W41355   4.734   2.688  10.311 -0.0471 -0.3340 -0.0544
34756W        W41356   1.969   5.717   6.010 -0.1402  0.1688 -0.0896
34757W        W41357   1.928   6.737  19.779  0.3694 -0.1341 -0.2133
34758W        W41358  24.102   3.386   0.080 -0.0258 -0.1941 -0.2079
34759W        W41359   2.300   4.228  22.346 -0.1624  0.1962  0.0815
34760W        W41360  16.159   5.028  20.529  0.2780  0.0900  0.2961
34761W        W41361  30.930   1.760   9.680  0.0167  0.0987 -0.1655
34762W        W41362  20.404   0.244   4.311 -0.2668 -0.0508  0.1560
34763W        W41363   4.504   2.316   8.202 -0.2095  0.3820 -0.2342
34764W        W41364  17.605   2.379  25.777  0.1907 -0.0217  0.0606
34765W        W41365   4.374   2.627  21.908 -0.3670 -0.0514  0.1580
34766W        W41366   0.024   3.634   2.210  0.1585 -0.1803 -0.0795
34767W        W41367   6.309   6.602   1.360 -0.0124 -0.4128 -0.3420
34768W        W41368   5.135   2.435  17.506  0.2147  0.2057 -0.1294
34769W        W41369   7.749   0.832  23.879  0.2955  0.0955  0.1673
34770W        W41370  14.905   6.483   4.895  0.1945 -0.0891 -0.0949
34771W        W41371   6.921   4.594  10.047  0.0976 -0.1267  0.0115
34772W        W41372   0.115   1.688  16.280 -0.2798 -0.0780 -0.0758
34773W        W41373  17.395   4.675  21.537  0.0586  0.2174  0.3150
34774W        W41374  11.088   6.224  23.145 -0.0042  0.2190  0.1723
34775W        W41375  17.823   0.216   0.572  0.2623  0.0321 -0.1282
34776W        W41376   6.303   1.591   8.778 -0.1882 -0.0638 -0.2203
34777W        W41377  30.484   2.519   6.161 -0.0688 -0.2208 -0.4205
34778W        W41378   9.057   4.731   8.695  0.0245 -0.3252 -0.0936
34779W        W41379  18.540   2.849  24.367  0.1723 -0.1637 -0.1125
34780W        W41380  25.891   2.114   0.908  0.0707  0.0712  0.4404
34781W        W41381  17.589   4.718   3.822  0.0519 -0.0250  0.1528
34782W        W41382  15.238   0.143   6.907  0.1993 -0.0677  0.0027
34783W        W41383   4.264   3.225  25.491 -0.0960 -0.2087  0.2728
34784W        W41384  12.432   5.251   0.614 -0.0480 -0.2064 -0.0666
34785W        W41385  20.422   7.791  16.245  0.1197  0.1639 -0.0981
34786W        W41386  21.499   1.827   7.713  0.0158 -0.0905  0.0142
34787W        W41387   0.979   2.172   4.607  0.0254 -0.2346 -0.2547
34788W        W41388  19.314   1.472  18.438  0.1645 -0.1108  0.2014
34789W        W41389  23.331   5.504   4.518  0.1849 -0.0759  0.2637
34790W        W41390  11.289   0.228   6.370  0.0056 -0.0067  0.0187
34791W        W41391  10.265   3.320  15.448  0.0423 -0.0736  0.2044
34792W        W41392  13.168   7.376   8.984 -0.2443  0.0751 -0.3191
34793W        W41393  25.024   7.059  20.481 -0.0735  0.0096 -0.1101
34794W        W41394  23.091   5.324   6.072  0.0908 -0.3342 -0.1133
34795W        W41395   5.015   4.505   8.539 -0.0761 -0.0104 -0.0987
34796W        W41396  12.960   4.769   6.787  0.2935 -0.0025 -0.1706
34797W        W41397  31.022   7.681  23.898  0.1865 -0.2037  0.0055
34798W        W41398  20.218   3.276   4.351 -0.0559 -0.0599  0.0713
34799W        W41399   8.004   3.650   7.406  0.0254  0.1005  0.3732
34800W        W41400  22.751   6.831   2.023  0.5078  0.0701 -0.1120
34801W        W41401   8.614   1.890   4.315 -0.0091 -0.0896  0.3777
34802W        W41402  23.979   4.635  22.798 -0.0209 -0.2782 -0.0245
34803W        W41403  10.697   1.718  20.253  0.0967 -0.1993  0.0766
34804W        W41404  19.529   4.939  17.422 -0.0210 -0.1310  0.0568
34805W        W41405   6.360   6.104   7.482 -0.0023  0.1433  0.2728
34806W        W41406   0.732   5.516  15.264  0.2309 -0.2885 -0.0296
34807W        W41407   9.298   0.259  21.260 -0.2319  0.0974  0.0110
34808W        W41408  14.532   0.354   0.241 -0.1047  0.1985 -0.1825
34809W        W41409   8.717   0.817   5.983 -0.2656 -0.0170  0.2193
34810W        W41410   8.428   7.106  16.869  0.1577 -0.0533  0.1834
34811W        W41411  18.978   7.315   2.943 -0.1155 -0.1669 -0.3829
34812W        W41412  17.309   6.664   7.614 -0.0510 -0.1502  0.2280
34813W        W41413  12.794   4.007  25.197  0.0758 -0.2966 -0.1634
34814W        W41414  21.857   5.728   4.748 -0.1511  0.1843  0.2863
34815W        W41415   1.278   1.545  25.240 -0.0117 -0.0340 -0.2499
34816W        W41416   0.208   7.543   8.189 -0.0095  0.0776 -0.2328
34817W        W41417  11.797   3.752   9.452 -0.1129 -0.0304 -0.1278
34818W        W41418  29.574   4.614  18.679 -0.2148  0.0688 -0.0557
34819W        W41419  17.929   5.576  17.272  0.1764  0.4319 -0.1120
34820W        W41420  24.539   2.004  20.714 -0.0908 -0.0520  0.1341
34821W        W41421  19.594   7.216  19.474  0.2173 -0.1434 -0.1189
34822W        W41422   0.195   6.823  11.675 -0.2419  0.1081  0.2110
34823W        W41423   3.038   5.027  16.339 -0.0325 -0.1620 -0.2418
34824W        W41424  30.129   2.367   3.403  0.2364 -0.1776 -0.2280
34825W        W41425   1.367   6.000  25.904 -0.2837  0.1168  0.0247
34826W        W41426   2.291   6.045  25.892 -0.1891  0.2971 -0.0744
34827W        W41427  18.900   2.871  20.921 -0.0794  0.3967  0.1658
34828W        W41428  27.103   4.367  20.040  0.3233 -0.0883 -0.1657
34829W        W41429  29.892   0.548  16.953 -0.1324 -0.1174 -0.0170
34830W        W41430  29.397   1.236  18.987  0.2144  0.2399  0.0074
34831W        W41431   7.905   4.271   8.687 -0.0963 -0.3457  0.0250
34832W        W41432   5.461   2.836  17.332 -0.0549  0.1996  0.1327
34833W        W41433   6.642   0.759   8.981 -0.0112 -0.0740 -0.2227
34834W        W41434   9.682   3.206   2.489 -0.2264 -0.1797 -0.1388
34835W        W41435  20.679   2.312  19.694  0.2584 -0.0175 -0.0907
34836W        W41436  29.233   0.277  24.095 -0.1419 -0.0109 -0.2212
34837W        W41437  16.962   1.214   9.474  0.1975 -0.2478  0.0896
34838W        W41438  15.825   3.016  22.001 -0.2552  0.1732 -0.0817
34839W        W41439  12.894   4.334  20.734  0.3281 -0.5513  0.0349
34840W        W41440  16.866   5.420   1.687 -0.0674 -0.0763 -0.0124
34841W        W41441  24.027   4.479   2.324 -0.2333 -0.0892 -0.1709
34842W        W41442  17.836   4.314   5.432 -0.0766  0.1973 -0.2576
34843W        W41443   8.261   4.623  22.793 -0.1041  0.1915  0.0944
34844W        W41444  15.637   0.116   0.075 -0.0959  0.0328 -0.1645
34845W        W41445   4.749   7.541  21.008 -0.1550  0.0636  0.1391
34846W        W41446  27.462   6.875   9.400  0.1535  0.0116  0.4776
34847W        W41447  17.373   2.854  25.947 -0.1660  0.1967 -0.1102
34848W        W41448   8.744   0.713   1.199  0.1551 -0.2151  0.1875
34849W        W41449  17.882   0.927   3.701 -0.0112  0.1532  0.1705
34850W        W41450  23.933   0.186   6.567  0.0352  0.0722 -0.4503
34851W        W41451  10.337   5.036   4.172  0.0846  0.0983 -0.1618
34852W        W41452   7.477   3.045   3.259 -0.2605 -0.2321 -0.1041
34853W        W41453  28.016   7.626   9.014  0.1984 -0.1523  0.1252
34854W        W41454  27.599   5.693  24.411 -0.1472  0.2698  0.4002
34855W        W41455  19.396   2.626  18.773 -0.4111 -0.2079 -0.1545
34856W        W41456   1.790   6.149   9.231  0.1147  0.4010 -0.0061
34857W        W41457  18.524   6.912  16.130  0.0198  0.3574 -0.2225
34858W        W41458  12.850   6.529   9.113 -0.2206  0.0230 -0.1466
34859W        W41459   2.117   1.946  15.969 -0.1230  0.0263  0.2262
34860W        W41460   2.602   1.775  16.088  0.1433 -0.1066 -0.3382
34861W        W41461  28.485   7.402   1.156  0.0963  0.0388  0.0394
34862W        W41462  27.813   3.113   6.610  0.1761 -0.0189  0.0946
34863W        W41463  12.850   5.069  15.503  0.0764  0.1645 -0.4289
34864W        W41464  25.987   5.060  19.947 -0.0707 -0.0035 -0.0903
34865W        W41465   8.968   1.181  10.465 -0.1183 -0.1353 -0.2719
34866W        W41466   7.531   0.411  21.825 -0.0018 -0.0596 -0.0510
34867W        W41467   8.419   5.644  17.011 -0.0933 -0.1925  0.2097
34868W        W41468  27.014   5.998  15.428  0.0787  0.2771  0.1554
34869W        W41469   6.856   1.975   5.091  0.4172  0.0502 -0.2135
34870W        W41470  29.464   4.990  24.060  0.0883 -0.0546  0.0250
34871W        W41471  27.406   7.616   6.896 -0.0685 -0.2789  0.0587
34872W        W41472   6.400   3.333  21.371 -0.0466 -0.0375 -0.2010
34873W        W41473   0.150   0.327   5.323  0.0577 -0.1217  0.3526
34874W        W41474  22.014   2.152   3.218  0.0440  0.1911  0.2288
34875W        W41475   7.990   0.480   4.582  0.2805 -0.0238  0.0581
34876W        W41476  11.806   0.041  19.883  0.5232 -0.1081  0.0607
34877W        W41477  28.826   4.484  16.243  0.0167  0.0871  0.1384
34878W        W41478   2.824   4.387   8.348  0.0712  0.1592  0.2367
34879W        W41479   0.221   4.917   3.095  0.0347  0.1225  0.1686
34880W        W41480  25.012   3.371  21.899  0.1136 -0.1601 -0.0754
34881W        W41481   6.132   1.324   7.406  0.1929  0.1812 -0.2126
34882W        W41482  29.799   6.005  21.561 -0.1264  0.2638  0.0459
34883W        W41483   6.752   5.294   7.783 -0.1863 -0.0351  0.0305
34884W        W41484  10.097   4.823  24.165 -0.2016 -0.1104 -0.0274
34885W        W41485  29.277   7.361  23.305  0.0502 -0.2622  0.2934
34886W        W41486   3.625   1.511   4.716 -0.3296 -0.2584  0.1194
34887W        W41487  15.555   3.064  21.569 -0.0396 -0.0483  0.4684
34888W        W41488  14.816   5.669  25.554 -0.0970 -0.0996  0.0344
34889W        W41489  11.457   4.084  10.967  0.1465 -0.2668 -0.0390
34890W        W41490   8.299   6.755   9.455 -0.0689  0.1080  0.1078
34891W        W41491   4.607   4.084   5.519 -0.0400  0.1500  0.1328
34892W        W41492  13.258   6.906  24.088  0.0905  0.1538  0.0452
34893W        W41493  29.527   5.007   4.661  0.3085 -0.0172  0.0022
34894W        W41494   9.276   7.767  25.039  0.4613 -0.0918 -0.1181
34895W        W41495  23.229   7.364  24.905  0.2011 -0.0404 -0.0986
34896W        W41496   4.846   0.463  24.733  0.0332 -0.0858 -0.0815
34897W        W41497   7.798   1.823   6.942  0.2074  0.2040 -0.2064
34898W        W41498  19.458   2.751  17.538  0.3718 -0.0061  0.3373
34899W        W41499   1.829   0.636  19.275 -0.5408 -0.2300  0.0370
34900W        W41500   3.197   0.487   7.961  0.1840  0.3248 -0.0208
34901W        W41501  24.992   2.425  11.320 -0.2441  0.2775  0.0700
34902W        W41502  29.055   6.062   9.309 -0.1378 -0.2375 -0.2384
34903W        W41503  15.593   5.625   7.659 -0.1189  0.2766  0.2426
34904W        W41504  27.280   2.788  16.075 -0.0811  0.1854 -0.1775
34905W        W41505  11.324   7.303  15.390  0.0303  0.0968 -0.1545
34906W        W41506  18.610   6.305   7.592  0.1429 -0.1025 -0.0072
34907W        W41507  17.928   1.486   6.198  0.0017 -0.2586  0.0529
34908W        W41508  21.505   0.448  25.185 -0.0981  0.0531  0.1824
34909W        W41509  14.680   1.994  14.614 -0.0537 -0.3962  0.0268
34910W        W41510  29.290   4.469   6.593  0.1619  0.0663  0.0809
34911W        W41511  16.228   0.884   8.901  0.1811  0.1159 -0.2908
34912W        W41512  10.995   4.485   3.368 -0.1644 -0.1675  0.1064
34913W        W41513  23.697   3.902  20.567  0.3584 -0.0717  0.0441
34914W        W41514  10.551   7.076   3.301 -0.1153 -0.0362  0.0026
34915W        W41515   0.837   7.197   1.388  0.3093 -0.2214 -0.1900
34916W        W41516   1.150   0.611  22.877  0.0540  0.1288 -0.4398
34917W        W41517   4.188   4.865   6.427  0.0839  0.0285  0.1715
34918W        W41518   9.029   6.385  19.865 -0.3129  0.1051  0.2752
34919W        W41519   0.099   6.021  17.924 -0.1448 -0.1557 -0.1137
34920W        W41520  29.625   5.016   2.117  0.0991 -0.3754 -0.0485
34921W        W41521   3.951   6.269  16.776  0.0612 -0.0926  0.0066
34922W        W41522  12.845   1.415  19.176 -0.1031  0.0092  0.2209
34923W        W41523  20.465   3.340  25.453 -0.4175 -0.1701 -0.0670
34924W        W41524  25.573   7.069  20.749 -0.1827  0.0741 -0.0581
34925W        W41525  21.953   1.495   8.130 -0.0213  0.1424  0.1417
34926W        W41526  21.773   2.028  18.938 -0.2651  0.1005  0.1086
34927W        W41527  26.012   3.582  15.355 -0.5114 -0.1121  0.1076
34928W        W41528  18.580   1.040   4.606 -0.0282 -0.1240  0.2754
34929W        W41529  17.307   1.505  16.867 -0.0318  0.2038  0.3723
34930W        W41530  15.649   1.424  15.572  0.1463 -0.1533 -0.0966
34931W        W41531  18.766   0.968  16.150 -0.2868 -0.1804 -0.0857
34932W        W41532  19.441   0.106   2.758 -0.1328 -0.2470  0.1086
34933W        W41533  28.127   4.530  24.733  0.0223 -0.0328  0.1295
34934W        W41534   1.471   7.128   8.808 -0.2163 -0.1418  0.0091
34935W        W41535  19.775   3.647   4.011 -0.0373 -0.0160 -0.1216
34936W        W41536  14.857   4.399  15.307  0.2114  0.1063 -0.0242
34937W        W41537  20.039   4.838   4.739 -0.0998 -0.0537 -0.0936
34938W        W41538  16.284   6.285  18.933 -0.0253  0.0381  0.3656
34939W        W41539   5.271   7.634  19.508 -0.0053 -0.0150  0.0807
34940W        W41540   3.903   1.841  25.197 -0.0430  0.1462  0.2462
34941W        W41541  11.103   3.925  20.234 -0.0706  0.0759 -0.0098
34942W        W41542   6.698   3.824   4.019 -0.0746 -0.1317 -0.1193
34943W        W41543  25.344   6.370  11.378 -0.1830 -0.0641 -0.0905
34944W        W41544  26.096   1.929  11.509 -0.1883 -0.0122 -0.0271
34945W        W41545  23.365   0.365  22.629  0.0569 -0.1003  0.1933
34946W        W41546  30.267   1.513  11.074  0.1450 -0.0723  0.0017
34947W        W41547  15.679   1.686   5.140  0.0248 -0.1916  0.3176
34948W        W41548  26.462   3.076  26.043 -0.0299  0.1483  0.3851
34949W        W41549  28.304   4.154  20.874 -0.3996 -0.0040 -0.0695
34950W        W41550  27.809   6.399  25.527 -0.2528 -0.3472 -0.0290
34951W        W41551  29.342   3.741   5.569  0.1145  0.0052 -0.0076
34952W        W41552   5.369   3.086   4.833  0.1894 -0.0961  0.0905
34953W        W41553  18.996   5.304  18.918 -0.3137 -0.0628 -0.0685
34954W        W41554  22.564   5.645  22.557  0.1423 -0.0305  0.2918
34955W        W41555   1.583   0.012  10.890  0.3303  0.0215  0.1002
34956W        W41556  19.234   4.498   1.740  0.1243  0.2143 -0.1703
34957W        W41557  15.089   3.496  14.794 -0.0600 -0.0436  0.0361
34958W        W41558  12.168   6.132  20.970  0.2614 -0.1321  0.0529
34959W        W41559  14.526   7.718   4.656 -0.2733 -0.0767  0.0380
34960W        W41560   1.939   0.915   1.293  0.1620  0.0956  0.2573
34961W        W41561  25.053   2.056   1.304 -0.0818 -0.1083 -0.0171
34962W        W41562   0.456   3.732  20.216  0.0155 -0.1582  0.2619
34963W        W41563  28.366   0.415   3.882 -0.1043  0.0232  0.3234
34964W        W41564  28.869   0.630  22.719 -0.0455 -0.1318 -0.0601
34965W        W41565  15.253   5.389  16.731 -0.0858  0.2612  0.3202
34966W        W41566  22.974   2.632  23.729 -0.0199 -0.1513 -0.0438
34967W        W41567  22.590   3.522   3.735  0.1364  0.0797  0.0541
34968W        W41568  21.984   3.601  22.615  0.1360 -0.0767  0.0289
34969W        W41569  13.423   3.195   1.731 -0.0259  0.0003  0.0510
34970W        W41570  16.609   2.223   1.504  0.0391 -0.3433 -0.2889
34971W        W41571  22.154   5.948   7.470 -0.4134  0.0036  0.4620
34972W        W41572  20.274   6.693  22.000  0.1197 -0.1142 -0.0822
34973W        W41573   0.277   7.812   8.652 -0.1620 -0.0116 -0.2824
34974W        W41574  15.172   7.712   6.035 -0.0749  0.1847  0.2265
34975W        W41575  21.078   6.151   4.058  0.0382 -0.1173  0.0767
34976W        W41576   1.111   1.085   3.886 -0.1664  0.0566 -0.2486
34977W        W41577  12.961   7.303  16.819  0.1691 -0.2566  0.3614
34978W        W41578  28.179   3.697   3.115  0.0645 -0.3538 -0.2819
34979W        W41579  10.345   1.185   9.170  0.0490  0.0404  0.1169
34980W        W41580  26.320   2.643  23.818 -0.2267  0.0101 -0.0100
34981W        W41581  12.920   1.056  25.323 -0.2155  0.1662  0.1755
34982W        W41582   2.533   0.925   2.736 -0.0985 -0.0405  0.1937
34983W        W41583   7.352   1.474  10.106 -0.1213  0.3559  0.3044
34984W        W41584  15.647   1.256   4.806  0.3259  0.2145 -0.0088
34985W        W41585  18.196   7.670  24.780  0.2301  0.2091  0.0658
34986W        W41586  22.213   6.012  22.632 -0.0931 -0.2170  0.1272
34987W        W41587   3.638   5.373   6.794 -0.2373  0.1145  0.0323
34988W        W41588  21.823   2.074   5.028  0.0454 -0.1102 -0.0046
34989W        W41589  11.292   5.637  23.799  0.0205 -0.2533 -0.0899
34990W        W41590   6.404   5.380  21.952 -0.1946  0.1105  0.3245
34991W        W41591   1.604   3.352   4.109 -0.1054 -0.0284 -0.0247
34992W        W41592  18.151   6.452   6.106  0.1237 -0.2651 -0.2525
34993W        W41593  28.007   4.152  19.416 -0.0940 -0.0621  0.1157
34994W        W41594  22.080   1.610  16.500  0.1888  0.0744  0.0141
34995W        W41595  10.334   1.530  15.457 -0.1190  0.0580  0.0023
34996W        W41596  15.796   7.688   3.790  0.2280 -0.2135  0.1961
34997W        W41597  24.353   0.520   7.496 -0.1291  0.1053  0.2969
34998W        W41598  24.240   7.704   1.725 -0.1438  0.2814 -0.0134
34999W        W41599   8.356   4.697   4.462  0.3032  0.1693 -0.0287
35000W        W41600  13.641   6.263   9.766  0.2059 -0.0078  0.1396
35001W        W41601   3.586   2.587  23.278  0.4467 -0.0625 -0.1083
35002W        W41602   9.796   4.628  15.381 -0.0285 -0.2503  0.1461
35003W        W41603   1.164   7.774  19.083 -0.1290 -0.0958  0.3225
35004W        W41604   2.280   4.170   2.709  0.0027 -0.0077 -0.1454
35005W        W41605  12.603   5.381  20.888  0.1194 -0.3365  0.0195
35006W        W41606  11.210   4.355  19.331 -0.1870 -0.1662  0.2667
35007W        W41607  29.083   0.111  19.327 -0.0214  0.1831  0.1518
35008W        W41608   6.594   6.565  19.044 -0.1070  0.1934 -0.1303
35009W        W41609  24.044   1.956  16.342 -0.0899  0.0553  0.1437
35010W        W41610   2.704   3.933   6.051 -0.3224 -0.3174 -0.2412
35011W        W41611  26.291   7.151  24.216 -0.1994 -0.1579 -0.0058
35012W        W41612  14.576   7.420  23.622  0.0856  0.1493 -0.1146
35013W        W41613  29.809   3.449   1.669 -0.0075  0.1570  0.0222
35014W        W41614  10.633   3.821  21.273  0.1401 -0.0260  0.0609
35015W        W41615   2.116   4.712  10.120  0.1657 -0.2287 -0.2523
35016W        W41616  27.347   5.286   3.995 -0.0986  0.1074 -0.0703
35017W        W41617  22.928   1.929  17.235 -0.0273 -0.1703  0.2510
35018W        W41618   1.555   2.622  24.651  0.1939 -0.0163  0.4052
35019W        W41619  12.080   2.042  15.226  0.2096 -0.0481 -0.0437
35020W        W41620  21.204   3.089   2.123  0.1584 -0.1304 -0.1525
35021W        W41621  10.254   0.412   5.155 -0.1557  0.2994  0.1986
35022W        W41622   6.610   4.505   0.796  0.2022  0.1826  0.1339
35023W        W41623   8.385   2.981  20.556 -0.2907  0.0298  0.1881
35024W        W41624  24.674   4.306  23.776 -0.2233  0.0267  0.0001
35025W        W41625   3.473   5.736   0.038  0.0514 -0.1942 -0.4314
35026W        W41626  11.490   0.949  17.562  0.1073 -0.2999  0.2637
35027W        W41627  15.671   1.288   7.319 -0.0165 -0.0077  0.1326
35028W        W41628  17.344   2.002  16.843  0.2309 -0.0507  0.0152
35029W        W41629  23.791   0.747  15.411 -0.1858 -0.2085  0.2547
35030W        W41630  28.998   1.900   6.666 -0.0613  0.2708 -0.0569
35031W        W41631   0.023   4.612   3.856 -0.0524 -0.0273 -0.1548
35032W        W41632   9.968   1.450  20.703  0.0714 -0.0223  0.0835
35033W        W41633   4.134   5.408  25.081 -0.0270  0.1624  0.0075
35034W        W41634  25.554   2.625   5.318 -0.1119 -0.1486  0.0347
35035W        W41635  20.201   4.568  24.136  0.0154  0.0158  0.0558
35036W        W41636  20.334   4.214  14.342  0.1296 -0.0816 -0.1874
35037W        W41637  10.201   7.801   0.808 -0.1064 -0.1854  0.1487
35038W        W41638  20.109   7.279  10.069  0.2004 -0.0923  0.0928
35039W        W41639   2.809   7.005  18.811  0.0054  0.0757 -0.0358
35040W        W41640   7.410   1.402  17.173 -0.1628  0.0582  0.0558
35041W        W41641  17.238   4.183  18.322  0.0461 -0.1728  0.2084
35042W        W41642  13.392   0.351  21.645 -0.3422  0.0886  0.0110
35043W        W41643  30.126   2.676   7.993  0.0959  0.0951 -0.2196
35044W        W41644  29.526   1.928   1.114 -0.1775 -0.0238 -0.2287
35045W        W41645   8.380   0.856   5.598  0.0167 -0.0288 -0.0448
35046W        W41646  21.161   6.057  26.099  0.0547 -0.0592  0.2438
35047W        W41647  19.650   5.490  25.776  0.0696 -0.3036  0.0736
35048W        W41648   7.713   7.468   5.876  0.1009 -0.3454  0.0102
35049W        W41649  16.823   6.459   6.210 -0.1211  0.0659  0.0287
35050W        W41650   2.974   0.299  15.993  0.1610 -0.1124 -0.0302
35051W        W41651  14.200   5.034   3.448  0.1270 -0.0747 -0.1161
35052W        W41652  15.010   4.147   1.811 -0.3194  0.1838  0.0863
35053W        W41653  27.819   0.585   8.094 -0.2407  0.0147 -0.1144
35054W        W41654   8.683   3.614  22.746  0.1727  0.0714 -0.2865
35055W        W41655  15.478   6.269   0.467  0.1841 -0.2870  0.1335
35056W        W41656  23.875   2.128  21.771 -0.2273 -0.1669 -0.1044
35057W        W41657  12.788   4.328  19.628  0.1316  0.0675 -0.2103
35058W        W41658   4.548   3.605   5.318 -0.0922 -0.4850 -0.1213
35059W        W41659   2.943   7.020  23.933 -0.4076  0.0152  0.0671
35060W        W41660  12.803   2.289   6.663  0.1113  0.2679  0.1180
35061W        W41661  20.949   6.174  17.275 -0.1289 -0.2825 -0.2939
35062W        W41662   2.307   4.607   4.635 -0.0325 -0.1845  0.3120
35063W        W41663  21.334   0.247  18.914 -0.0293 -0.0052  0.0372
35064W        W41664   8.628   5.956   5.220 -0.0353  0.0115  0.1496
35065W        W41665  28.588   5.288   3.344 -0.3872  0.4240  0.0549
35066W        W41666   4.353   2.106   5.472  0.0701 -0.3171 -0.0196
35067W        W41667  19.489   2.752   2.631  0.1753 -0.0089  0.0052
35068W        W41668   5.815   4.277   6.872 -0.1442 -0.3435 -0.1362
35069W        W41669   4.422   5.785   7.953 -0.1506  0.0904  0.0707
35070W        W41670  11.074   6.634  17.693  0.2033  0.0759 -0.1741
35071W        W41671  30.573   7.040  21.932  0.2720  0.2956 -0.3353
35072W        W41672  27.047   6.093  11.165 -0.2105 -0.3278 -0.0767
35073W        W41673   7.384   2.767   6.474 -0.2218 -0.1733  0.3479
35074W        W41674  18.661   1.667  16.694 -0.0185  0.1610 -0.3991
35075W        W41675  20.079   5.216   5.122  0.2297 -0.2820  0.0985
35076W        W41676  23.658   0.686  18.046  0.5319  0.0479 -0.0334
35077W        W41677   9.473   1.493   0.390 -0.0768  0.3692 -0.0326
35078W        W41678  16.458   3.281  24.896  0.0567 -0.0092  0.2726
35079W        W41679   6.274   0.787  16.789 -0.3019  0.1286 -0.1600
35080W        W41680   5.130   5.159   4.036  0.1093 -0.0037 -0.2243
35081W        W41681   1.657   1.082   0.421  0.0277  0.1768 -0.0947
35082W        W41682   0.525   6.026  20.555  0.2177 -0.3552  0.0773
35083W        W41683  25.260   1.661   5.110 -0.0357 -0.3713  0.0155
35084W        W41684   5.591   1.552   5.241 -0.0550 -0.0104 -0.1474
35085W        W41685  25.942   7.687   5.767  0.1917 -0.0593 -0.1503
35086W        W41686  19.488   5.571   1.246 -0.0807  0.0414 -0.0406
35087W        W41687  27.009   4.902   4.654  0.0726  0.0278  0.0614
35088W        W41688  25.241   6.309   5.665 -0.1799 -0.0150  0.2237
35089W        W41689  11.947   4.412   2.436  0.1146  0.4516 -0.3996
35090W        W41690  24.760   5.900  24.395  0.1432 -0.0591  0.0282
35091W        W41691  28.492   4.054   8.751  0.2062 -0.0589  0.0065
35092W        W41692  28.403   4.939  14.636  0.0785 -0.0854 -0.1970
35093W        W41693   5.010   2.202  20.516 -0.2901  0.0045 -0.4699
35094W        W41694  25.275   7.214  21.882 -0.1886  0.1937 -0.2886
35095W        W41695  16.478   6.946   3.568  0.1193  0.0447 -0.1664
35096W        W41696  24.749   6.768  17.889  0.2093 -0.1861 -0.0317
35097W        W41697   4.136   1.540  25.642  0.0245  0.3754  0.2180
35098W        W41698  13.484   4.218  17.665  0.0513  0.0522 -0.2365
35099W        W41699   5.711   6.842  25.796  0.0188  0.0494 -0.0941
35100W        W41700  25.088   7.044  22.377 -0.1725  0.0086  0.2559
35101W        W41701   0.202   3.442  22.772 -0.1109 -0.3426 -0.3409
35102W        W41702  25.219   5.770  17.742 -0.1057  0.1269 -0.0451
35103W        W41703  26.252   2.300   1.746  0.2112 -0.1344  0.2300
35104W        W41704  24.314   0.171   1.263  0.1802  0.0119  0.0147
35105W        W41705  31.213   3.059  25.300  0.0914 -0.6198  0.2209
35106W        W41706  16.161   7.449   5.959 -0.0628 -0.0873  0.1012
35107W        W41707   3.506   7.334   0.244 -0.1003  0.0831  0.2587
35108W        W41708  15.815   0.352  23.559  0.0317 -0.2088  0.0227
35109W        W41709  30.886   1.077  16.037  0.1661 -0.0788 -0.0527
35110W        W41710   0.363   2.588  16.484  0.3065  0.0666 -0.4613
35111W        W41711  25.306   1.307  16.708 -0.0804 -0.0349 -0.1934
35112W        W41712   3.179   1.219  24.274  0.1656  0.5614 -0.0184
35113W        W41713  12.334   5.634  17.917 -0.1297  0.1086  0.0590
35114W        W41714   7.358   0.395   3.340 -0.4219 -0.0623  0.0421
35115W        W41715  28.114   2.040   4.743 -0.3651 -0.1514 -0.1318
35116W        W41716  16.619   4.783  18.151 -0.1534 -0.1044  0.1728
35117W        W41717  10.771   4.983  25.056  0.0131  0.0543  0.1844
35118W        W41718  11.422   2.301  22.820  0.0942  0.0041 -0.0577
35119W        W41719  22.311   5.177  22.070  0.1825 -0.0904 -0.0140
35120W        W41720  13.128   1.299  22.491  0.2449 -0.2775  0.2211
35121W        W41721   5.708   1.672  17.980  0.2613 -0.1151 -0.0571
35122W        W41722  17.549   7.632   4.236 -0.0357 -0.0205 -0.0517
35123W        W41723  12.989   5.072  10.212 -0.1490 -0.0303 -0.1330
35124W        W41724  29.663   3.691   7.904 -0.3805  0.0599  0.3402
35125W        W41725   3.825   2.203   4.729 -0.0797  0.0022 -0.0080
35126W        W41726   4.274   1.105  25.448  0.0158 -0.1206 -0.1350
35127W        W41727  17.508   1.473   8.136  0.1569  0.2761 -0.2215
35128W        W41728  21.124   4.101   3.128 -0.0757 -0.5281 -0.0322
35129W        W41729  15.039   4.587   0.904  0.1444  0.2082 -0.3071
35130W        W41730  27.188   0.435  24.958  0.1332  0.0750 -0.0732
35131W        W41731  10.400   0.651  25.034  0.1821 -0.0377  0.2625
35132W        W41732  25.013   6.577  16.613  0.2763  0.1408  0.0916
35133W        W41733  26.971   0.541  16.145  0.0828  0.0283  0.2548
35134W        W41734  15.462   4.464  17.044  0.0573 -0.0264  0.4446
35135W        W41735  28.007   4.386   4.390 -0.0700  0.0305  0.1138
35136W        W41736   7.581   5.475  17.709  0.2326 -0.0314  0.3503
35137W        W41737  10.916   2.635  25.434 -0.0066  0.1713  0.1586
35138W        W41738  30.168   1.232  16.989 -0.0406 -0.1747 -0.1336
35139W        W41739   7.024   5.177   3.193 -0.2443 -0.3866  0.2821
35140W        W41740  20.732   7.368  23.783 -0.0481  0.0473 -0.0775
35141W        W41741   9.887   3.950  15.878  0.0945  0.1450 -0.1813
35142W        W41742  30.962   1.955   7.486  0.0348 -0.3143 -0.1822
35143W        W41743  22.683   6.896  22.508 -0.0779  0.2875 -0.1796
35144W        W41744  22.577   0.783  23.417  0.0272  0.1774 -0.2012
35145W        W41745  23.312   7.403  17.700 -0.4876  0.0483 -0.0225
35146W        W41746  26.060   2.530  24.935 -0.3358  0.0005  0.3809
35147W        W41747  22.975   7.483  21.927 -0.1140  0.3987 -0.0275
35148W        W41748  28.048   2.731  24.457  0.1963 -0.2682  0.0038
35149W        W41749  20.879   6.070  18.472 -0.0339  0.0170  0.0076
35150W        W41750  16.117   4.224  21.974 -0.1422  0.3044 -0.0906
35151W        W41751   4.987   4.374   3.231  0.0312  0.4737 -0.3076
35152W        W41752   9.071   5.695   5.410 -0.1421  0.1716  0.0962
35153W        W41753  19.287   6.199   3.638  0.1299  0.1377  0.0585
35154W        W41754  24.395   5.237   8.788  0.2160  0.1366  0.0859
35155W        W41755  12.755   2.699   8.940 -0.0690  0.1573 -0.1835
35156W        W41756   3.947   6.620   7.092 -0.2936 -0.0081  0.1833
35157W        W41757  18.509   5.987   5.434 -0.0078 -0.2582 -0.1943
35158W        W41758  24.576   6.780  21.213 -0.2270 -0.0270 -0.1826
35159W        W41759  14.370   0.673   7.670  0.2094 -0.2950 -0.2574
35160W        W41760  30.155   0.964  20.114  0.0180 -0.0604 -0.0203
35161W        W41761   2.981   5.254  23.718  0.2785  0.1414 -0.1089
35162W        W41762   6.465   0.904  24.893 -0.0808 -0.2110 -0.1556
35163W        W41763   8.566   5.947   6.329 -0.1228 -0.1424 -0.0447
35164W        W41764  29.216   4.569   9.860  0.2726 -0.0460  0.1457
35165W        W41765  13.327   2.077  10.315 -0.2750 -0.3862 -0.0200
35166W        W41766  26.723   7.704   2.998 -0.0562 -0.0404  0.1059
35167W        W41767  11.891   1.955  22.971 -0.2838 -0.0641 -0.4146
35168W        W41768   7.682   1.284   6.707 -0.1002  0.0503 -0.4726
35169W        W41769  25.994   7.187   3.409 -0.0300  0.0003 -0.3932
35170W        W41770  18.370   1.752  22.004 -0.2694  0.1711 -0.4561
35171W        W41771  13.947   7.084   8.111 -0.2373 -0.0318  0.1095
35172W        W41772  21.763   5.366   8.691 -0.0955 -0.0339 -0.1138
35173W        W41773  15.071   1.283   1.120 -0.0340  0.3876  0.4994
35174W        W41774  12.026   4.044   4.024 -0.1676  0.3758 -0.1358
35175W        W41775   6.137   2.847   2.077  0.2508 -0.1100  0.1579
35176W        W41776  25.241   0.844   7.934  0.0199  0.2371 -0.0840
35177W        W41777   6.160   7.383  18.065  0.1718 -0.0792 -0.0602
35178W        W41778  22.773   2.662   0.560  0.1285 -0.2366 -0.2146
35179W        W41779   7.408   6.779   2.009 -0.0524  0.2204 -0.2337
35180W        W41780  25.393   6.701  15.702  0.1793 -0.0047 -0.3384
35181W        W41781   6.358   6.817  15.626  0.2354  0.1524 -0.4384
35182W        W41782  24.446   3.030  25.046  0.1878 -0.0402 -0.0054
35183W        W41783  29.287   4.622  16.046 -0.1392  0.2327 -0.0382
35184W        W41784  27.824   4.656   0.970  0.1801 -0.3643 -0.2615
35185W        W41785  15.165   5.521   8.604  0.1412  0.1082  0.2113
35186W        W41786  11.015   6.256  16.627  0.2484  0.2773 -0.0213
35187W        W41787   9.135   2.078  20.018 -0.1660 -0.0243  0.0372
35188W        W41788   8.675   3.551   4.800 -0.0428 -0.2068 -0.1907
35189W        W41789  19.233   2.153  20.904  0.1497 -0.0405 -0.0765
35190W        W41790  30.000   6.353  16.743 -0.2680 -0.2633 -0.2268
35191W        W41791  19.046   6.660  15.293  0.1949  0.1945  0.1334
35192W        W41792  17.808   4.794  17.478  0.5227 -0.1014 -0.1415
35193W        W41793   3.429   5.647  19.336 -0.3819 -0.0729  0.1047
35194W        W41794  28.804   4.651   1.268  0.0151 -0.1754 -0.2145
35195W        W41795  29.119   1.565   9.439 -0.0097 -0.1038  0.0867
35196W        W41796   2.074   4.793  22.684 -0.0234  0.0656  0.0418
35197W        W41797  19.641   0.531  21.835 -0.0975  0.0244  0.0060
35198W        W41798  15.844   4.646  20.527 -0.1257  0.1622 -0.0350
35199W        W41799  22.181   1.303  21.605  0.2567 -0.1112  0.0773
35200W        W41800  22.202   5.741  20.080 -0.1392  0.1172  0.1591
35201W        W41801  29.845   1.932  20.703  0.0171 -0.1262  0.0946
35202W        W41802   8.242   6.809  17.408 -0.2628 -0.1341 -0.0263
35203W        W41803   6.568   2.514  22.573 -0.0285  0.1486 -0.2016
35204W        W41804   3.441   6.994  16.409 -0.0117  0.1278  0.2644
35205W        W41805  26.003   1.483   2.591 -0.2984  0.1533 -0.1962
35206W        W41806   0.082   0.770  11.028 -0.1906  0.0254 -0.0079
35207W        W41807   5.023   6.817  25.673  0.0240  0.2584  0.2017
35208W        W41808  13.866   1.437   7.768  0.1398  0.0961 -0.1437
35209W        W41809  19.814   3.582  10.250  0.0517  0.1396  0.2828
35210W        W41810  27.079   7.166  23.580  0.0045  0.2147 -0.3296
35211W        W41811  27.148   0.447  19.636 -0.0190  0.1379  0.1010
35212W        W41812  12.949   1.700  15.240 -0.0402 -0.1157  0.2879
35213W        W41813  25.728   7.380  25.579  0.1198 -0.0126 -0.0506
35214W        W41814  27.297   0.887  10.719 -0.2142 -0.0723 -0.0870
35215W        W41815  10.587   4.397   4.808 -0.0047  0.1280  0.2041
35216W        W41816  27.364   7.220  25.442 -0.2125  0.0592  0.1640
35217W        W41817  20.950   0.462   5.303 -0.1212 -0.5686 -0.1890
35218W        W41818  30.311   5.695   5.554 -0.0837 -0.0242  0.3363
35219W        W41819  11.067   2.640   0.443  0.4325 -0.1064 -0.0431
35220W        W41820  27.875   3.925  23.063 -0.0762  0.0483  0.1952
35221W        W41821  23.907   3.509   6.158  0.1028 -0.0084 -0.0302
35222W        W41822  26.203   6.822  17.791 -0.0799  0.0035  0.0883
35223W        W41823  30.380   4.923  23.026 -0.0813 -0.5132  0.0240
35224W        W41824   6.382   6.191   9.513 -0.1316 -0.0059 -0.1617
35225W        W41825  16.393   4.133  19.481  0.2013  0.0294  0.0452
35226W        W41826  17.105   2.783  10.011  0.0818 -0.0694  0.0505
35227W        W41827  13.169   3.831  24.847 -0.1984 -0.0644  0.1187
35228W        W41828   2.980   4.168   6.505 -0.1075 -0.0621 -0.0847
35229W        W41829   0.516   1.960   2.721  0.1323  0.2752 -0.1882
35230W        W41830  23.297   1.452   9.208 -0.0943  0.3243 -0.0617
35231W        W41831  24.714   5.364  24.359  0.3162 -0.0968 -0.2655
35232W        W41832   7.754   7.519   9.940 -0.1760  0.2696 -0.0891
35233W        W41833   9.010   7.235   6.877  0.0182 -0.0045 -0.0123
35234W        W41834  12.293   5.901   6.008 -0.3321  0.0776  0.0201
35235W        W41835  19.540   2.931  24.172  0.3283  0.0181 -0.0072
35236W        W41836   8.780   0.147  25.594  0.1019  0.0933  0.0394
35237W        W41837  16.310   1.854  22.327  0.1294 -0.1387  0.0775
35238W        W41838  24.884   7.761   8.081  0.1101 -0.0589 -0.3113
35239W        W41839   8.679   5.184   7.521  0.1412  0.3293  0.0996
35240W        W41840   4.658   2.626   4.680  0.2024  0.1068 -0.0841
35241W        W41841  23.880   2.860  18.504  0.1149 -0.1069 -0.0536
35242W        W41842  12.077   2.186   4.398  0.0099 -0.3473  0.0954
35243W        W41843   3.702   3.895  19.500 -0.0981  0.0205 -0.3560
35244W        W41844   5.277   3.859  18.608 -0.1805 -0.1640 -0.0868
35245W        W41845  22.262   3.961   6.169 -0.0632  0.0019 -0.3173
35246W        W41846   3.071   7.216   5.032 -0.0028  0.0091  0.1562
35247W        W41847  21.655   1.106   8.474 -0.0864  0.1695  0.0695
35248W        W41848  11.324   0.373   8.583 -0.0700 -0.1529 -0.2802
35249W        W41849  16.405   3.053   0.487  0.0281 -0.1462 -0.0064
35250W        W41850  28.204   2.647  19.732 -0.0313  0.0947 -0.2165
35251W        W41851   7.473   7.248  23.483 -0.1210 -0.1896 -0.2246
35252W        W41852   3.828   4.644   2.822  0.3983 -0.2604  0.3758
35253W        W41853  13.230   5.793  10.158  0.2205  0.0369  0.2149
35254W        W41854   1.698   5.803  16.144  0.2375  0.1011 -0.2302
35255W        W41855  11.449   4.429  23.019 -0.1124  0.0153  0.1954
35256W        W41856  12.992   1.786   3.487  0.0772 -0.0944 -0.1646
35257W        W41857  23.550   4.773   8.998  0.0757  0.3690 -0.1485
35258W        W41858  20.064   3.508  21.536 -0.1117 -0.1372  0.1364
35259W        W41859   9.930   0.323   5.962 -0.2605 -0.2614  0.3265
35260W        W41860  18.245   0.491   0.346  0.0729 -0.0001 -0.0873
35261W        W41861   6.607   2.233  24.393 -0.0390  0.0032  0.2604
35262W        W41862  26.801   5.660  20.559  0.2252  0.1293 -0.1293
35263W        W41863   4.920   5.733   7.638  0.1392 -0.0528 -0.0246
35264W        W41864  22.045   7.527   0.808 -0.1749  0.0763 -0.1029
35265W        W41865  10.142   7.458  21.696  0.0988  0.2854 -0.1732
35266W        W41866  15.118   2.873   2.830  0.4866  0.1466  0.0786
35267W        W41867  12.999   2.095  25.664  0.3774  0.1609  0.0825
35268W        W41868  14.996   6.102   0.157  0.0118  0.2003  0.0199
35269W        W41869  12.109   7.798  23.218 -0.0749  0.0500  0.2068
35270W        W41870  10.576   3.110   3.936  0.1249 -0.0026  0.0163
35271W        W41871  26.451   1.731  25.678  0.1434 -0.0572  0.0696
35272W        W41872  11.535   3.946   8.087 -0.0752 -0.2249  0.2517
35273W        W41873  27.806   0.446   2.041 -0.2398  0.1122 -0.0035
35274W        W41874   7.978   5.803   5.912 -0.2802 -0.0966 -0.1377
35275W        W41875   3.685   3.380   9.289  0.1421  0.1455 -0.0116
35276W        W41876   3.540   5.213   5.872 -0.5254  0.0504 -0.2268
35277W        W41877  19.631   3.518   7.063  0.0792 -0.1841  0.0867
35278W        W41878  29.319   6.231   8.077 -0.1271 -0.2779  0.1420
35279W        W41879  16.292   6.076  18.459 -0.0147 -0.1320  0.4363
35280W        W41880   6.185   4.689   8.157 -0.3089  0.1764 -0.2148
35281W        W41881  22.630   4.214  25.690 -0.0534  0.1119  0.2336
35282W        W41882  28.813   1.500   1.956 -0.1056  0.0427 -0.0958
35283W        W41883  15.323   3.798   5.549  0.1240 -0.2811 -0.0546
35284W        W41884   0.493   6.167   9.442 -0.2266  0.4774  0.1859
35285W        W41885  20.066   5.025   9.066  0.0225  0.1066 -0.1299
35286W        W41886   1.695   6.268  17.435  0.2814 -0.1464 -0.2210
35287W        W41887  19.374   5.356   7.790  0.1006  0.0682 -0.2015
35288W        W41888   1.874   5.093   9.387 -0.0849 -0.1137  0.1428
35289W        W41889  16.158   5.962   2.671  0.2895  0.0816  0.2204
35290W        W41890  23.509   1.651   5.369 -0.1821  0.2146  0.0817
35291W        W41891  25.483   7.045  25.850 -0.1756  0.2356 -0.0676
35292W        W41892   7.023   4.636   9.351  0.1578 -0.2687  0.1219
35293W        W41893  27.860   2.154  23.583  0.0033 -0.0107 -0.1313
35294W        W41894   4.184   1.038   6.437 -0.0223  0.1015  0.0888
35295W        W41895   8.152   7.824  23.799 -0.2688  0.0125  0.0514
35296W        W41896  15.804   5.743   1.317 -0.1261 -0.1870  0.1430
35297W        W41897  25.537   4.114  18.436 -0.2135  0.0397 -0.2782
35298W        W41898  16.578   4.789  10.737 -0.2523  0.1339 -0.0251
35299W        W41899   5.179   5.965  16.463  0.0921 -0.1482  0.1751
35300W        W41900  18.067   2.997  20.280 -0.1937  0.1948 -0.1562
35301W        W41901   8.472   6.565  10.048  0.1112  0.2030 -0.2076
35302W        W41902  12.658   4.494  22.881  0.2543 -0.0360  0.0417
35303W        W41903  27.537   5.115   1.159 -0.0712  0.0573 -0.0654
35304W        W41904   0.673   7.132  25.072  0.1378  0.2633 -0.0560
35305W        W41905   0.154   7.752  21.765 -0.0327  0.2609  0.3001
35306W        W41906  17.058   0.648  24.703  0.1530  0.0876 -0.0710
35307W        W41907   3.247   4.133   3.287 -0.0923  0.1043  0.2738
35308W        W41908  22.591   5.319   6.233 -0.1507  0.0583 -0.0560
35309W        W41909  13.718   6.919  15.249 -0.1177  0.1325 -0.0585
35310W        W41910  23.925   6.200  21.235 -0.1954  0.2673  0.2324
35311W        W41911   6.107   3.858  25.832 -0.0450  0.0914  0.0931
35312W        W41912  12.287   1.895  26.167  0.0851  0.1843  0.0764
35313W        W41913  28.194   3.933   3.585  0.0961  0.2877 -0.2386
35314W        W41914  11.421   3.205  11.173 -0.1120 -0.0567 -0.2559
35315W        W41915  15.673   1.260   1.674 -0.0284 -0.2738 -0.1312
35316W        W41916  29.475   3.406   1.140  0.0242  0.0791 -0.3206
35317W        W41917  14.577   4.139  19.665  0.1765  0.1383 -0.1529
35318W        W41918   3.885   3.786  20.429  0.0777 -0.0478  0.1599
35319W        W41919   2.579   5.459   8.487  0.2681  0.1122 -0.1716
35320W        W41920  18.035   6.068  25.215 -0.0063 -0.0192 -0.0575
35321W        W41921   9.475   7.578  16.295  0.1031  0.0167 -0.6604
35322W        W41922  21.887   2.896  10.202  0.2034  0.2735 -0.0994
35323W        W41923  13.798   1.481   4.030 -0.2367  0.2816 -0.1158
35324W        W41924  15.695   3.161  19.846 -0.0803 -0.3927 -0.1835
35325W        W41925  25.808   7.300   9.647  0.2717 -0.0402  0.1640
35326W        W41926   6.722   0.164  23.079 -0.0131 -0.2488 -0.0810
35327W        W41927   1.156   3.582   7.856  0.0884 -0.1472 -0.1464
35328W        W41928   1.185   1.477  24.425  0.1052  0.2924  0.1715
35329W        W41929  26.123   0.067   4.565 -0.3066  0.5520  0.1384
35330W        W41930  21.797   6.326   0.472 -0.0359  0.0142 -0.3119
35331W        W41931  26.922   6.297   1.999  0.2274  0.3519 -0.0603
35332W        W41932   0.816   0.194   8.604  0.0010 -0.0150 -0.0838
35333W        W41933   8.961   2.216   6.737 -0.0702 -0.0839  0.0321
35334W        W41934  16.827   6.246  20.894 -0.0477 -0.0581  0.0688
35335W        W41935  14.288   2.184   2.915 -0.3304 -0.0282 -0.0011
35336W        W41936  27.531   5.446  21.439  0.0009 -0.2873  0.2026
35337W        W41937  16.952   7.608  18.532  0.0744  0.0052 -0.2102
35338W        W41938  15.056   0.022  24.081  0.1109 -0.0221  0.1175
35339W        W41939  21.883   1.645  10.418  0.1042 -0.2144 -0.2175
35340W        W41940  26.066   3.693   6.235  0.1588 -0.5376  0.3019
35341W        W41941   6.749   2.871   9.203 -0.1030 -0.2267  0.0755
35342W        W41942  16.348   0.764   5.757 -0.0456  0.0910 -0.0859
35343W        W41943   2.437   2.775  25.489  0.2287  0.0397 -0.1268
35344W        W41944   6.596   6.478  16.498 -0.1460  0.1819 -0.0388
35345W        W41945  25.244   5.999   4.996  0.2861  0.1275  0.3785
35346W        W41946  16.209   3.205  18.157  0.2122 -0.2062  0.3058
35347W        W41947  21.783   2.496  18.633 -0.2237  0.2070 -0.1309
35348W        W41948  11.980   1.629   7.986 -0.1364  0.2539  0.2422
35349W        W41949   4.995   6.580  23.992 -0.0874 -0.0207 -0.2065
35350W        W41950  17.618   4.701   6.358  0.1855 -0.0793  0.1396
35351W        W41951  26.642   1.480  20.951 -0.1190 -0.1390 -0.0636
35352W        W41952  28.684   2.571   4.587 -0.3316 -0.1518 -0.2261
35353W        W41953  12.982   7.580  19.902 -0.2316 -0.0004 -0.0881
35354W        W41954   5.614   6.403   8.515 -0.0660  0.0556  0.0002
35355W        W41955  19.938   1.925   6.821  0.1291  0.0729 -0.0575
35356W        W41956  29.944   5.835   3.029  0.1133  0.0673  0.0252
35357W        W41957   0.696   4.923   5.173  0.2837  0.1487 -0.0561
35358W        W41958  15.056   6.252  18.004  0.0850 -0.0925 -0.0115
35359W        W41959   1.456   6.961   6.613  0.0095 -0.2657  0.2397
35360W        W41960   9.928   4.889   6.262  0.1968  0.0939 -0.1902
35361W        W41961  30.942   6.872  21.640 -0.1752 -0.0972  0.3421
35362W        W41962  14.948   6.707  20.514 -0.0696 -0.1325 -0.1306
35363W        W41963   0.018   1.851   5.371  0.0453  0.2361 -0.0828
35364W        W41964  12.765   4.277  20.116 -0.1663  0.2131  0.0095
35365W        W41965   2.241   2.472   7.555 -0.0263  0.0391  0.0976
35366W        W41966  28.199   5.147   9.317  0.0204 -0.2936 -0.2382
35367W        W41967  26.668   3.373  21.227 -0.1836  0.1680  0.1564
35368W        W41968  17.062   4.145   1.216 -0.1189 -0.1743 -0.0815
35369W        W41969   0.202   6.102   5.576  0.0322  0.1078  0.0682
35370W        W41970  16.792   0.194  19.879  0.0186  0.1010  0.1736
35371W        W41971   7.070   2.002   6.019 -0.1677  0.1459  0.0258
35372W        W41972  12.695   2.874  21.768 -0.0980 -0.0803  0.1675
35373W        W41973  24.217   6.167  17.138 -0.2967  0.2821 -0.0294
35374W        W41974  22.297   2.493   0.276  0.0826 -0.3482  0.1148
35375W        W41975  18.545   4.570  20.269  0.1015  0.3759  0.0276
35376W        W41976  17.373   3.242   9.382 -0.0696 -0.4313  0.3075
35377W        W41977  17.106   7.070   5.816 -0.0662  0.0220 -0.1766
35378W        W41978  20.526   6.452   2.411  0.2940 -0.2859  0.0548
35379W        W41979  14.506   3.619  23.562  0.0787 -0.0239 -0.0505
35380W        W41980  17.892   1.272  10.392 -0.2464 -0.1276  0.0459
35381W        W41981  18.520   3.512  24.686  0.2382  0.0377 -0.3318
35382W        W41982  23.267   2.414   9.766  0.3759 -0.0074  0.2624
35383W        W41983   0.963   4.047  17.808 -0.4142 -0.4213 -0.1767
35384W        W41984   8.218   5.617   0.705  0.0851  0.0198 -0.2487
35385W        W41985  25.282   5.937   1.121 -0.0604  0.1044 -0.3322
35386W        W41986  26.621   1.420  26.096 -0.1635 -0.1341  0.0742
35387W        W41987  27.723   6.160   6.968  0.4875 -0.0720 -0.0351
35388W        W41988  22.441   1.218   6.080 -0.5276 -0.2786  0.3726
35389W        W41989   0.862   5.255   7.038  0.1345  0.1014 -0.2379
35390W        W41990   0.692   0.054  25.284 -0.0103 -0.0873 -0.0006
35391W        W41991   0.839   3.137  22.277  0.0736  0.2913  0.2886
35392W        W41992  19.189   3.385  15.693  0.0966  0.0229 -0.1666
35393W        W41993  19.220   6.640  10.115 -0.0636  0.0716 -0.2097
35394W        W41994  26.968   1.943  24.680 -0.1531 -0.1923  0.0023
35395W        W41995  17.308   0.276  25.101  0.0543 -0.0192 -0.2705
35396W        W41996  23.002   4.153  16.592 -0.0173  0.3344 -0.1455
35397W        W41997   0.919   0.519  15.990 -0.1407 -0.2941  0.1207
35398W        W41998   6.881   5.594  10.773 -0.0952 -0.1311 -0.0549
35399W        W41999  11.940   2.329   9.126  0.1954 -0.1521  0.0642
35400W        W42000   3.282   6.992  19.041  0.1679 -0.1594  0.1069
35401W        W42001  20.390   2.978  21.442  0.0963 -0.2522  0.0651
35402W        W42002  23.585   4.099   8.847  0.1410  0.1876  0.1276
35403W        W42003  25.644   6.137  17.112  0.0275 -0.3411 -0.0431
35404W        W42004  17.086   1.113   5.403  0.0506 -0.0408  0.0616
35405W        W42005  28.975   3.152   8.339 -0.2546  0.2132 -0.3184
35406W        W42006  16.506   2.220  23.898  0.1325  0.1009  0.2150
35407W        W42007   8.604   4.625  24.266  0.4606 -0.2207  0.0680
35408W        W42008   8.559   1.433  23.695  0.0586 -0.0652 -0.0025
35409W        W42009  20.066   7.400   3.223  0.1007  0.0308 -0.2081
35410W        W42010  24.162   5.762   4.902  0.3878  0.0888 -0.1225
35411W        W42011   1.551   3.564  20.166 -0.0599 -0.2833 -0.0270
35412W        W42012  17.683   6.705   5.499  0.2908 -0.2774  0.0603
35413W        W42013   7.219   2.403  16.653 -0.1846 -0.2096 -0.0168
35414W        W42014  11.842   3.681   2.784 -0.1180  0.0622 -0.1824
35415W        W42015  12.293   2.472  22.282  0.0857 -0.0359 -0.1858
35416W        W42016  11.820   0.952   3.289 -0.0937  0.2566  0.0239
35417W        W42017  30.317   3.554   6.554  0.1908  0.0917 -0.0667
35418W        W42018  17.712   1.426   3.015 -0.1214  0.0659 -0.2230
35419W        W42019   0.756   2.943  21.424 -0.1225  0.0684 -0.2455
35420W        W42020  24.568   5.773  22.620 -0.1493  0.2006 -0.2617
35421W        W42021   1.758   3.613   7.095  0.0139 -0.2013  0.2005
35422W        W42022  16.835   1.681   9.733 -0.0943  0.2313 -0.0516
35423W        W42023   6.651   7.151   6.818 -0.3201  0.2372 -0.0911
35424W        W42024  20.740   6.467  23.817  0.1525  0.3059 -0.0613
35425W        W42025   5.155   2.481  18.791 -0.1461  0.1500  0.0569
35426W        W42026   8.077   3.110   9.953 -0.0066 -0.1113 -0.0689
35427W        W42027  21.389   2.204   9.766 -0.0435 -0.0755  0.1689
35428W        W42028  29.372   2.821   9.977  0.0037 -0.2069 -0.1002
35429W        W42029   6.357   3.301   2.574  0.1586  0.0022  0.1447
35430W        W42030   4.650   6.622  22.032  0.0505 -0.0909 -0.0317
35431W        W42031  25.901   3.044  10.218 -0.0948 -0.2980 -0.0895
35432W        W42032  14.247   3.021   2.297  0.2901  0.0921 -0.1083
35433W        W42033   2.935   5.568  11.276  0.0028 -0.1595 -0.1599
35434W        W42034  25.244   4.502  20.594  0.2085 -0.3891 -0.1006
35435W        W42035   6.105   0.427  18.637  0.0315 -0.1293 -0.0897
35436W        W42036  27.359   7.518  16.340  0.2690  0.1835 -0.0781
35437W        W42037  28.227   4.198  18.958  0.0229 -0.2663 -0.1691
35438W        W42038  14.442   2.287   8.888  0.0965 -0.4083 -0.0399
35439W        W42039  30.616   2.814   7.870 -0.0354  0.1023 -0.0508
35440W        W42040   0.530   3.215   1.409 -0.0455  0.0476  0.1686
35441W        W42041  22.408   2.588   7.164  0.0081  0.0146  0.0268
35442W        W42042  12.737   6.731   0.645  0.0995  0.1101  0.3098
35443W        W42043  28.836   5.532   4.275 -0.2724 -0.1885  0.2551
35444W        W42044  15.943   0.915  17.408 -0.0013 -0.0508  0.1237
35445W        W42045   4.237   2.362  22.615 -0.1297  0.0128 -0.1968
35446W        W42046  18.392   6.586  19.527  0.0160  0.0257 -0.1088
35447W        W42047  26.827   7.580  19.880 -0.1091 -0.0748 -0.3741
35448W        W42048   1.324   4.905  18.670  0.3020  0.2187  0.1638
35449W        W42049  12.827   6.528   4.818 -0.0838  0.2895 -0.1701
35450W        W42050  15.250   7.499   1.832  0.1254  0.2045 -0.2402
35451W        W42051  17.180   3.764  18.996 -0.2038  0.1360 -0.0537
35452W        W42052  28.183   3.134  18.077 -0.0894  0.1873  0.3715
35453W        W42053   7.220   0.696   0.801 -0.1940  0.0200 -0.0705
35454W        W42054  21.689   1.232  15.544 -0.2753 -0.2664 -0.0790
35455W        W42055   0.070   5.629   5.727 -0.1943  0.0711  0.1444
35456W        W42056  11.479   2.737   2.770  0.0762 -0.0974 -0.1387
35457W        W42057  15.217   6.686  22.718 -0.0082 -0.0778  0.0845
35458W        W42058   5.034   0.635  17.599 -0.0874  0.3183  0.1646
35459W        W42059  17.575   6.104  24.477 -0.0745 -0.0271 -0.0625
35460W        W42060   8.682   7.824  21.385 -0.2200 -0.4092 -0.2076
35461W        W42061  29.234   1.165  20.130 -0.0345 -0.1961 -0.1089
35462W        W42062   6.156   1.430  22.653 -0.3155  0.2705 -0.0391
35463W        W42063  30.349   3.321  17.977  0.1088  0.0241  0.0706
35464W        W42064  15.967   7.539   6.459  0.1751 -0.0108  0.0520
35465W        W42065  16.618   7.498   7.396  0.1266 -0.3060 -0.2076
35466W        W42066  27.628   4.625   1.456  0.0976 -0.2052 -0.2429
35467W        W42067  17.123   0.612  10.285 -0.1121  0.0381 -0.0357
35468W        W42068   5.066   4.563  15.248  0.1474  0.1939  0.0417
35469W        W42069  23.394   1.494  19.009  0.1828  0.0141 -0.0697
35470W        W42070   9.814   2.011   2.975  0.1855 -0.1957  0.1261
35471W        W42071   5.569   6.965  23.410 -0.0667  0.2918 -0.0682
35472W        W42072  13.946   5.650  23.940 -0.1872 -0.2348  0.0033
35473W        W42073   0.735   4.264  23.473 -0.0099  0.2290  0.0035
35474W        W42074  23.857   0.588   7.445  0.0281  0.0465 -0.2349
35475W        W42075  30.140   3.834  16.496 -0.0726  0.1515 -0.2421
35476W        W42076  20.848   4.296  24.570  0.1950 -0.1067 -0.0497
35477W        W42077  26.530   6.992   9.134  0.0542 -0.1731  0.0883
35478W        W42078   5.764   6.013  10.634  0.1598 -0.3029  0.0261
35479W        W42079  30.511   0.596   8.971 -0.2611  0.3018 -0.1546
35480W        W42080   8.026   2.535   3.893  0.0553  0.0054 -0.0239
35481W        W42081  19.113   4.055   0.158 -0.1154 -0.1109  0.0527
35482W        W42082  30.795   7.406  19.835  0.0818 -0.3389 -0.2027
35483W        W42083  15.880   6.937  24.011 -0.3326 -0.0180  0.1560
35484W        W42084  22.507   6.769   7.226 -0.2132 -0.1170  0.0120
35485W        W42085   2.559   1.414   2.945 -0.0272  0.1902  0.0452
35486W        W42086  17.021   3.466  15.041  0.0480  0.3787  0.0193
35487W        W42087  30.735   5.046  19.186 -0.1557  0.2041  0.1113
35488W        W42088  30.227   1.954  18.082  0.1744  0.0575  0.2401
35489W        W42089   5.635   4.722   7.286  0.1655 -0.1082  0.0156
35490W        W42090   7.111   2.841  23.874  0.2034 -0.4020 -0.1270
35491W        W42091   0.808   1.401  18.354  0.1726 -0.0552 -0.0283
35492W        W42092  24.728   6.588   2.333  0.1258  0.1189  0.0267
35493W        W42093  15.943   1.693   9.498  0.0089  0.0392 -0.0047
35494W        W42094  30.166   6.126  22.684  0.1234  0.0195  0.0273
35495W        W42095  28.165   0.263   8.844  0.1293  0.2752  0.0650
35496W        W42096  12.940   2.883   6.030 -0.1366 -0.1237 -0.1530
35497W        W42097  27.777   3.374  24.393  0.2798  0.2466 -0.1091
35498W        W42098   0.880   5.906  17.822  0.0470  0.2732 -0.1533
35499W        W42099   8.647   1.485   8.610  0.0283  0.2118 -0.1318
35500W        W42100   3.498   6.967   2.871  0.1890  0.3285 -0.3423
35501W        W42101   5.934   0.411   2.153 -0.0112  0.0437 -0.0290
35502W        W42102  23.576   1.623   7.586  0.0613  0.0793 -0.0621
35503W        W42103  19.273   0.810  19.742  0.0948  0.0279 -0.2801
35504W        W42104  28.903   0.481   3.806  0.1685  0.1382 -0.0978
35505W        W42105   7.491   7.327  25.003  0.1396  0.0363 -0.1595
35506W        W42106  21.753   6.104   9.638  0.3148 -0.1436  0.1038
35507W        W42107   5.531   6.892  19.286 -0.1591  0.4065  0.0192
35508W        W42108   0.095   2.419  21.411 -0.0753 -0.1673  0.1495
35509W        W42109  12.253   4.326  15.215 -0.4694  0.2402 -0.0308
35510W        W42110  16.469   0.716  25.900  0.0456  0.2596  0.0941
35511W        W42111  13.212   5.156   7.596 -0.0573 -0.1905  0.2723
35512W        W42112   3.814   3.925  20.947  0.0447 -0.0654 -0.1951
35513W        W42113   7.951   7.750   1.935 -0.2422 -0.1376 -0.1098
35514W        W42114   1.305   4.246   0.249 -0.1024 -0.0761 -0.0664
35515W        W42115  27.505   3.631  16.187 -0.0302  0.0434  0.1652
35516W        W42116  24.909   7.517  24.163  0.1219 -0.2382 -0.2793
35517W        W42117  17.083   1.027   9.968 -0.1701 -0.1604 -0.0526
35518W        W42118   9.676   0.505   0.283  0.1196 -0.0264  0.0819
35519W        W42119  30.306   7.373  21.608  0.2132  0.0984  0.3860
35520W        W42120  26.782   5.308  20.137 -0.0186 -0.0864  0.1560
35521W        W42121  18.748   6.705   2.097  0.0888 -0.1799 -0.2240
35522W        W42122  17.018   2.327   2.491  0.0744  0.0281  0.0918
35523W        W42123  28.050   6.959   7.079 -0.2764 -0.1591  0.3354
35524W        W42124  25.656   2.751  22.532 -0.1269 -0.1774  0.1157
35525W        W42125  22.986   3.917  24.300  0.1731  0.1183 -0.0894
35526W        W42126  19.813   5.329  22.060 -0.1008 -0.4951 -0.1012
35527W        W42127   5.187   7.196  20.960  0.2174  0.0447 -0.0920
35528W        W42128   6.452   3.577  17.009  0.0319  0.1752  0.0260
35529W        W42129  23.122   6.389  18.705 -0.1000  0.1579 -0.1524
35530W        W42130  27.545   5.988  23.998  0.1554 -0.3078  0.1398
35531W        W42131  28.381   0.732   2.883 -0.1621  0.0615  0.1642
35532W        W42132  16.583   2.151   9.643  0.0678  0.2127  0.2286
35533W        W42133  29.313   7.243   8.058  0.1369  0.3692  0.1813
35534W        W42134  26.254   0.419   8.662 -0.0065 -0.1123  0.0066
35535W        W42135   6.862   0.607  24.157 -0.1984 -0.0295  0.0948
35536W        W42136   4.116   3.292  18.725 -0.0066  0.2069  0.1685
35537W        W42137  10.503   5.615   6.767 -0.0896  0.3764 -0.0394
35538W        W42138  11.440   5.694   3.470 -0.2392 -0.0015  0.1498
35539W        W42139  12.198   7.067   1.797 -0.0883  0.3366  0.3781
35540W        W42140  19.716   5.443  19.801 -0.1594  0.2096 -0.0097
35541W        W42141  16.823   3.039  21.103 -0.2824  0.1604 -0.0354
35542W        W42142   6.464   7.578   4.611  0.2682  0.1534  0.0021
35543W        W42143  24.458   2.723  14.924 -0.0478  0.2570  0.1054
35544W        W42144  15.530   0.468   4.053  0.0572  0.1634 -0.0264
35545W        W42145  25.506   3.647  15.319  0.0801  0.0825 -0.2422
35546W        W42146  19.108   5.586   8.437  0.2996  0.0580 -0.0033
35547W        W42147  28.916   6.835  25.622  0.0879  0.0336 -0.0051
35548W        W42148  17.790   3.597   1.384  0.2305 -0.1347  0.1389
35549W        W42149   1.368   4.595  16.840  0.0040  0.0458  0.3587
35550W        W42150   4.723   3.611  17.462  0.0835 -0.1490 -0.0836
35551W        W42151  27.381   6.310   8.717  0.2458  0.2745 -0.3673
35552W        W42152   7.203   4.597   1.691 -0.1000 -0.1505 -0.2180
35553W        W42153   5.102   7.234   6.573  0.0341 -0.1590  0.0840
35554W        W42154  22.087   2.256   3.733 -0.0257  0.0895  0.2591
35555W        W42155   3.117   5.286  23.184  0.0009  0.0882  0.0589
35556W        W42156   7.588   7.669   2.646  0.1832 -0.2111  0.1609
35557W        W42157  10.618   2.740  10.759  0.1802  0.0964 -0.0476
35558W        W42158  23.186   4.416   9.028 -0.0234 -0.2057  0.0041
35559W        W42159   5.442   7.419   7.035 -0.3519  0.1359  0.0717
35560W        W42160   7.732   6.422  18.812 -0.3039  0.1917 -0.0428
35561W        W42161  26.305   2.502  22.564  0.0452 -0.0952  0.1478
35562W        W42162   3.640   0.259   5.486  0.1037 -0.0700 -0.1372
35563W        W42163   5.426   1.533   5.749  0.2254 -0.1315 -0.0632
35564W        W42164   7.288   4.984   5.687 -0.2372 -0.0156  0.2165
35565W        W42165  19.356   2.377   8.467  0.1089 -0.3169 -0.2172
35566W        W42166  25.645   3.710  20.261 -0.1002 -0.1677  0.0143
35567W        W42167  20.666   3.786   2.256  0.2534 -0.0700  0.0784
35568W        W42168  25.407   5.731  22.805 -0.1978  0.0265  0.0473
35569W        W42169  12.046   3.829   8.162  0.0869  0.1669  0.0616
35570W        W42170  19.019   5.427   6.054 -0.0651  0.0078 -0.2126
35571W        W42171  10.886   3.050  18.984  0.3519  0.1355  0.2656
35572W        W42172  14.296   7.249  23.271 -0.2524  0.1139 -0.1759
35573W        W42173   2.944   2.829  16.870  0.1673 -0.0763 -0.0627
35574W        W42174  28.315   7.198   4.246  0.3532  0.2663  0.2208
35575W        W42175   0.093   5.319  20.142  0.0690  0.0790  0.2738
35576W        W42176   3.805   6.526  18.707  0.0522  0.0802  0.1339
35577W        W42177   8.595   1.924   6.495  0.2279 -0.1896 -0.1922
35578W        W42178   7.540   4.760   2.294  0.0479  0.1356 -0.0274
35579W        W42179  11.309   1.292   9.785  0.0554 -0.3848 -0.3024
35580W        W42180  22.819   5.863   4.880  0.3988 -0.3790  0.0493
35581W        W42181  16.520   1.733  23.689 -0.1833  0.0818  0.1025
35582W        W42182  15.669   7.538  17.833 -0.0333  0.2015 -0.0457
35583W        W42183  11.848   6.916   2.090 -0.2923  0.1039  0.0921
35584W        W42184  22.727   1.975  21.572 -0.1978 -0.2774  0.2009
35585W        W42185  26.020   0.163  15.898 -0.1744  0.1479  0.1735
35586W        W42186  21.769   5.038  20.546  0.0797 -0.1302  0.3185
35587W        W42187  26.101   4.944  23.548 -0.1626 -0.0058 -0.0534
35588W        W42188  28.118   2.248   4.248  0.1824 -0.1061 -0.3081
35589W        W42189  13.440   1.904   6.849 -0.2212  0.0463 -0.0384
35590W        W42190  17.747   3.349  25.123  0.0816 -0.2166  0.2441
35591W        W42191   8.001   1.333  21.125  0.1424  0.0724  0.4742
35592W        W42192  15.148   2.303   0.445  0.0798 -0.0146 -0.0690
35593W        W42193   3.361   5.677   5.889 -0.2192  0.0306 -0.0360
35594W        W42194  20.758   7.555   2.096 -0.0036  0.1829 -0.1837
35595W        W42195  19.204   7.783  22.613  0.0299 -0.0080 -0.0560
35596W        W42196  16.034   3.201   4.446  0.2306 -0.0738 -0.1166
35597W        W42197  20.462   7.198  17.256 -0.5364 -0.2844 -0.2040
35598W        W42198  13.945   5.958  20.775 -0.0872  0.0597  0.0799
35599W        W42199   5.879   0.949  23.455 -0.0749  0.2127  0.1436
35600W        W42200   4.617   1.559   2.862  0.0499  0.2371  0.1179
35601W        W42201   7.033   3.843  10.569 -0.1720  0.1079 -0.4039
35602W        W42202  15.634   1.743  17.027  0.0005  0.0580  0.2441
35603W        W42203  27.037   4.295   7.245  0.1903  0.1682  0.1883
35604W        W42204  24.617   5.952   8.176 -0.2730 -0.1224  0.1568
35605W        W42205   9.189   7.599  18.392  0.0542 -0.0759 -0.0299
35606W        W42206   9.587   3.375  25.636 -0.0602  0.0056 -0.1726
35607W        W42207   4.850   0.768  16.336  0.2360  0.3952  0.0100
35608W        W42208  14.559   3.996   1.591 -0.1689 -0.0462 -0.1557
35609W        W42209  30.133   3.297  11.552 -0.0487 -0.2476 -0.1254
35610W        W42210  16.651   7.460   8.809  0.3780 -0.2130  0.1270
35611W        W42211  10.477   5.204  22.566  0.1268  0.0495  0.0979
35612W        W42212   3.693   1.699  10.221  0.0368 -0.1668  0.3206
35613W        W42213  22.294   5.088   8.939  0.2665 -0.1871  0.1102
35614W        W42214  23.651   1.316   0.680 -0.0657  0.3422 -0.0008
35615W        W42215  14.275   1.701   2.803 -0.1643 -0.3199 -0.0754
35616W        W42216  30.968   5.345  25.963  0.0057 -0.1910  0.0254
35617W        W42217  29.582   4.866   1.245  0.1280  0.1615 -0.4078
35618W        W42218   9.928   3.725   5.772  0.1468  0.0182  0.0398
35619W        W42219  25.244   5.044   3.688  0.1011  0.0035 -0.0251
35620W        W42220  17.925   6.121  18.384  0.2797 -0.1348 -0.3631
35621W        W42221  13.714   5.466  24.629 -0.3362  0.4406  0.1888
35622ION     NA42222  20.610   1.155  21.373 -0.0543 -0.1909 -0.2152
35623ION     NA42223  27.261   6.860  16.886 -0.2552  0.2355 -0.2085
35624ION     NA42224   8.194   0.885  10.331  0.1632 -0.0555 -0.2537
35625ION     NA42225  10.593   3.977   6.680 -0.4578  0.0865  0.2559
35626ION     NA42226   6.366   3.393  23.721  0.1388 -0.1280 -0.0117
35627ION     NA42227  10.145   7.708  21.381  0.1161  0.1381 -0.2149
35628ION     NA42228  17.602   4.327  22.217 -0.1819  0.2412  0.0665
35629ION     NA42229  20.655   7.445  16.136  0.0772  0.0165  0.0732
35630ION     NA42230  22.447   5.123  22.994  0.2625 -0.3116  0.1883
35631ION     NA42231  14.295   7.358   5.739 -0.1703 -0.2369 -0.0283
35632ION     NA42232  25.282   3.716  15.712  0.4517  0.3927  0.3684
35633ION     NA42233  14.440   2.472  10.546  0.5653 -0.0614 -0.3023
35634ION     NA42234  29.477   3.865  23.019 -0.0049 -0.3926  0.1755
35635ION     NA42235  17.912   6.211  14.882  0.1262 -0.3863 -0.1878
35636ION     NA42236  10.483   2.501   9.102 -0.3471  0.0051 -0.2099
35637ION     NA42237  24.334   5.995  17.521  0.1353  0.3042  0.0543
35638ION     NA42238  13.027   1.229  20.051 -0.0251  0.1011  0.0911
35639ION     NA42239  28.235   6.476  16.267  0.0201 -0.1476  0.2408
35640ION     NA42240   5.470   0.414  10.113  0.1724  0.0218  0.0796
35641ION     NA42241  21.004   2.541  22.915 -0.2490  0.0697  0.2664
35642ION     NA42242  19.269   4.104  15.139  0.1903 -0.0933 -0.1994
35643ION     NA42243  19.989   1.015  23.697 -0.0465  0.0311  0.2916
35644ION     NA42244  13.970   6.684   3.482 -0.0961  0.3687 -0.2341
35645ION     NA42245  26.431   4.197   3.672 -0.6844 -0.2585 -0.0511
35646ION     NA42246   4.800   2.532   7.513  0.2381  0.1553 -0.1788
35647ION     NA42247   0.455   2.639  21.486  0.0075 -0.0787 -0.0751
35648ION     NA42248  27.667   2.800  22.623  0.1330 -0.2742 -0.1545
35649ION     NA42249  24.797   5.805   2.123 -0.3784  0.0964  0.0893
35650ION     NA42250  24.482   1.624  21.289  0.4186  0.1690 -0.1238
35651ION     NA42251   7.592   3.172  24.662 -0.1715  0.3609 -0.1720
35652ION     NA42252  24.088   4.726   7.733  0.1738 -0.2231 -0.1409
35653ION     NA42253   8.589   6.718   8.066 -0.3692  0.1638 -0.0466
35654ION     NA42254  21.496   7.694   5.739 -0.3018 -0.0104  0.2503
35655ION     NA42255   0.304   2.153  22.482 -0.1262  0.0979  0.0851
35656ION     NA42256  22.022   5.584   7.089  0.1294  0.0009  0.1054
35657ION     NA42257  14.230   3.979  15.168  0.0385  0.1709  0.6457
35658ION     NA42258  20.308   6.393  20.789 -0.0700 -0.2608 -0.3719
35659ION     NA42259  26.882   5.318  18.846  0.4932  0.2420  0.0306
35660ION     NA42260   7.709   1.143  15.682  0.0547 -0.0406  0.2158
35661ION     NA42261  28.998   2.379  23.336  0.0373  0.0054 -0.2235
35662ION     NA42262  21.126   1.844  25.426 -0.3621  0.0589  0.3768
35663ION     NA42263  25.283   5.872  10.810 -0.0161  0.3010  0.1183
35664ION     NA42264  15.214   7.562  15.887  0.7734 -0.4127 -0.2555
35665ION     NA42265  14.459   1.033  22.705 -0.3092 -0.8703 -0.6204
35666ION     NA42266  28.364   5.094  19.130 -0.4942  0.1960  0.0383
35667ION     NA42267  24.745   7.510   7.390 -0.0029 -0.3197  0.4045
35668ION     NA42268   1.363   6.378  11.481 -0.1199 -0.2454  0.0648
35669ION     NA42269  25.331   6.801   3.081  0.3709 -0.5031 -0.1584
35670ION     NA42270  28.301   6.798   1.600  0.3825 -0.1758  0.2884
35671ION     NA42271  22.794   0.759  15.320  0.3715  0.3816  0.4411
35672ION     NA42272  29.487   5.675   0.755  0.0643 -0.4721  0.0589
35673ION     NA42273   5.309   7.279  18.167  0.0227  0.4031  0.1643
35674ION     NA42274   9.355   6.401   6.618 -0.3655  0.0745 -0.1899
35675ION     NA42275  13.391   5.682  22.142  0.0999 -0.4510 -0.0854
35676ION     NA42276  22.079   0.260   5.477 -0.2508  0.1194 -0.2991
35677ION     NA42277   8.998   7.381   8.380 -0.0932  0.2686  0.1254
35678ION     NA42278   0.275   0.278  18.169  0.0735 -0.4865  0.0738
35679ION     NA42279   5.505   4.269  10.950  0.3004 -0.0567  0.2417
35680ION     NA42280  16.665   0.259   2.899 -0.1449 -0.3431  0.2315
35681ION     NA42281   6.865   3.019   4.436  0.2438 -0.0143 -0.2581
35682ION     NA42282  17.388   0.863  24.576 -0.3089 -0.6550 -0.1969
35683ION     NA42283  30.231   3.703   5.795 -0.3339 -0.3604  0.2138
35684ION     NA42284  14.757   5.662  17.305 -0.2106 -0.1173 -0.2928
35685ION     NA42285  12.979   4.703   9.090  0.2234 -0.3364  0.1100
35686ION     NA42286  29.920   7.115  23.517 -0.1156 -0.5004  0.0193
35687ION     NA42287  25.024   1.599  10.961  0.1257 -0.0598  0.2284
35688ION     NA42288  16.628   4.243   4.493  0.4790  0.1599 -0.0823
35689ION     NA42289   2.084   7.138  16.055 -0.3841  0.0935  0.1059
35690ION     NA42290  31.132   4.735   9.409  0.0764 -0.0382 -0.3023
35691ION     NA42291  14.565   3.177   5.413 -0.1272  0.2219 -0.2944
35692ION     NA42292  13.775   4.954   7.046 -0.4655  0.0926 -0.0038
35693ION     NA42293   8.489   3.453  25.063  0.4086  0.1265 -0.3738
35694ION     NA42294  21.659   4.100   2.838 -0.2409  0.1252 -0.3083
35695ION     NA42295  25.467   2.231   6.772 -0.0996 -0.4108 -0.0557
35696ION     NA42296  26.415   3.121  24.633  0.0999 -0.1423 -0.0036
35697ION     NA42297  25.392   1.654   9.518  0.1176 -0.3773 -0.4237
35698ION     NA42298   7.574   0.998  18.435  0.3422  0.2145 -0.1308
35699ION     NA42299  27.378   4.156   5.422 -0.1147 -0.0218  0.2816
35700ION     NA42300   5.553   4.731   2.011 -0.3063  0.1066 -0.4013
35701ION     NA42301  16.512   5.446   7.021  0.2354  0.0083  0.4808
35702ION     NA42302  12.099   6.534  20.852 -0.4405 -0.0641 -0.4542
35703ION     NA42303   4.774   3.967   9.932  0.5064 -0.0653 -0.4908
35704ION     NA42304  19.685   3.917   3.694  0.0478 -0.0733  0.1849
35705ION     NA42305  10.315   2.693  10.466 -0.0378 -0.3769  0.0537
35706ION     NA42306  28.125   7.364  18.254 -0.2789  0.2938 -0.0576
35707ION     NA42307   3.550   1.697   1.727 -0.1317  0.3910 -0.4320
35708ION     NA42308   2.406   4.966  17.235 -0.0521 -0.1507 -0.3466
35709ION     NA42309  20.487   6.246   4.822  0.0868 -0.0485 -0.5992
35710ION     NA42310  26.997   1.307   1.820 -0.0345  0.2713  0.2762
35711ION     NA42311   6.291   4.011  23.541  0.1392  0.2021 -0.5397
35712ION     NA42312  29.438   1.933  25.880 -0.4154  0.0140  0.2834
35713ION     NA42313  21.193   5.749   3.830  0.2703 -0.5627  0.1086
35714ION     NA42314   3.335   4.558   2.574 -0.2965  0.3932  0.3955
35715ION     NA42315  30.921   7.248  24.747 -0.0336  0.5495 -0.2385
35716ION     NA42316  13.283   5.489   6.941  0.3332  0.0134  0.3273
35717ION     NA42317   9.286   7.802   8.895 -0.1281 -0.3084 -0.0612
35718ION     NA42318  18.565   1.733   0.502  0.2432 -0.0061  0.0248
35719ION     NA42319  30.206   2.853  23.834  0.0010 -0.2171 -0.1870
35720ION     NA42320  22.470   3.286   5.175  0.4466  0.1493 -0.2576
35721ION     NA42321  15.730   4.054  18.397  0.3748 -0.2276 -0.5965
35722ION     NA42322  28.067   5.104  17.567  0.0692 -0.3077  0.1382
35723ION     NA42323  19.412   1.954   0.380 -0.0526 -0.2687  0.1937
35724ION     NA42324   3.867   0.169  22.035 -0.1066 -0.1012  0.2210
35725ION     NA42325  17.944   1.617  24.389  0.1452 -0.2300  0.1937
35726ION     NA42326  18.981   6.963  16.838  0.2723  0.0251  0.1697
35727ION     NA42327   1.206   4.482  10.395 -0.0796 -0.1288 -0.4740
35728ION     NA42328   5.240   6.072  10.028  0.0896  0.5590  0.0252
35729ION     NA42329  27.490   3.104   6.887 -0.3537 -0.0892  0.2451
35730ION     NA42330  30.655   3.784   1.882 -0.4569  0.2849 -0.2886
35731ION     NA42331  14.999   2.095  20.682  0.1741 -0.0443 -0.3516
35732ION     NA42332  21.110   4.099   7.975 -0.0607 -0.1196  0.7093
35733ION     NA42333  29.928   0.410  22.099 -0.0269  0.0335  0.4282
35734ION     NA42334  17.161   5.609   1.971 -0.1245 -0.1200  0.5608
35735ION     NA42335  24.432   0.832   8.709  0.1801 -0.1975  0.0334
35736ION     NA42336  18.835   0.572  17.725 -0.1741  0.1281  0.2138
35737ION     NA42337  22.534   6.991   5.351  0.0152 -0.4619 -0.3212
35738ION     NA42338  21.454   4.852  23.024 -0.2526  0.3142 -0.4089
35739ION     NA42339  15.222   0.015   9.237 -0.1412 -0.1284 -0.0072
35740ION     NA42340  31.212   3.629  15.869  0.0426 -0.2751  0.0307
35741ION     NA42341  30.664   1.058  22.764 -0.0215 -0.3846 -0.4927
35742ION     NA42342  18.842   6.062  26.182 -0.4462  0.4517  0.0625
35743ION     NA42343   6.786   2.659   7.556  0.1376  0.0540 -0.2724
35744ION     NA42344  30.243   4.207   5.069 -0.2447  0.0838 -0.3468
35745ION     NA42345  24.546   7.119  25.620 -0.3676 -0.1064 -0.2834
35746ION     NA42346   3.793   3.247   3.353 -0.1992  0.1536 -0.1039
35747ION     NA42347   8.481   2.740  17.260  0.0950 -0.2395 -0.1931
35748ION     NA42348  10.749   2.056  10.573  0.0319  0.0877 -0.0808
35749ION     NA42349   9.111   3.063   8.759  0.0443  0.1355 -0.3262
35750ION     NA42350  31.288   3.098  20.755  0.0860  0.0408  0.1632
35751ION     NA42351  31.032   2.178  15.386  0.1414  0.0611 -0.0742
35752ION     NA42352  23.854   6.844   2.032 -0.2513 -0.0663  0.2004
35753ION     NA42353  25.447   0.176   6.591  0.0883 -0.0605  0.0578
35754ION     NA42354  15.038   3.571  25.889  0.0316  0.2020 -0.1455
35755ION     NA42355   5.905   7.795  10.762 -0.3274  0.0833 -0.0684
35756ION     NA42356   5.956   5.924   3.028  0.1671  0.0724 -0.0361
35757ION     NA42357   9.928   4.240  15.277  0.4407  0.0227  0.3904
35758ION     NA42358  23.643   3.162  20.014  0.1414 -0.2514 -0.0643
35759ION     NA42359  22.769   2.714   4.005 -0.3493  0.2896  0.5809
35760ION     NA42360  21.711   1.107   8.042  0.1385  0.0582  0.1045
35761ION     NA42361   0.294   6.462  19.611  0.2412 -0.0014  0.3086
35762ION     NA42362  16.486   1.806  24.141  0.2628 -0.5557  0.0301
35763ION     NA42363  28.602   6.776  21.358  0.2482 -0.1090 -0.4055
35764ION     NA42364  10.619   3.463  18.214 -0.2262 -0.0387  0.0431
35765ION     NA42365  24.921   4.098   8.701  0.2534  0.1024  0.0223
35766ION     NA42366  22.834   5.823  22.963 -0.3406  0.2274 -0.1711
35767ION     NA42367  25.834   0.140  21.533 -0.1113 -0.0419 -0.2455
35768ION     NA42368  17.303   4.090   6.790 -0.1719  0.3699  0.2478
35769ION     NA42369   7.811   3.419   4.771  0.2174  0.0271 -0.0962
35770ION     NA42370   8.096   6.596  10.786 -0.0935 -0.4807 -0.5689
35771ION     NA42371  13.419   3.088  23.836 -0.0682 -0.0581 -0.1231
35772ION     NA42372   8.634   1.468  18.586 -0.0071  0.0379 -0.0439
35773ION     NA42373  29.203   5.672  17.428  0.1161 -0.3300 -0.1727
35774ION     NA42374   0.982   6.682   1.509 -0.0780  0.2937  0.2222
35775ION     NA42375  19.475   7.698   7.418 -0.0359 -0.2250  0.1780
35776ION     NA42376  28.999   3.296   1.249  0.3162  0.7499 -0.1107
35777ION     NA42377  26.990   1.134  19.421 -0.0006 -0.2480 -0.1371
35778ION     NA42378   6.294   5.311   2.215 -0.2563  0.0005  0.5622
35779ION     NA42379  20.693   6.090  19.573  0.0996  0.0476  0.5568
35780ION     NA42380   2.768   0.589  19.735  0.1302 -0.4129  0.4924
35781ION     NA42381   6.404   0.896  22.160 -0.3329 -0.3389 -0.0189
35782ION     NA42382  28.489   5.446   8.290 -0.3709  0.2944  0.1867
35783ION     NA42383  27.191   5.787  16.829  0.3918 -0.2977 -0.3284
35784ION     NA42384   4.991   5.398   1.436 -0.1941  0.3087  0.0975
35785ION     NA42385  23.651   3.005   3.819 -0.5588 -0.1893 -0.0756
35786ION     NA42386  14.850   6.536  22.305  0.4144  0.2427 -0.4666
35787ION     NA42387   8.040   5.637  16.864  0.1494 -0.0676  0.2670
35788ION     NA42388  26.537   7.302  10.054 -0.6276  0.2055  0.2900
35789ION     NA42389  29.762   6.704  10.225  0.3266  0.0943 -0.0238
35790ION     NA42390  23.145   6.749   2.470  0.2686  0.0467  0.1143
35791ION     NA42391  22.366   6.758   0.228 -0.0490 -0.3434  0.3479
35792ION     NA42392   1.027   2.305  22.068  0.5544 -0.0623  0.2747
35793ION     NA42393  11.115   2.435  22.390  0.2218  0.0658 -0.3173
35794ION     NA42394  15.480   1.297  23.010  0.0673 -0.3605  0.0750
35795ION     NA42395   6.019   0.458   8.274 -0.0346  0.1576  0.3294
35796ION     NA42396  28.916   7.596   1.125 -0.0967  0.4894 -0.0110
35797ION     NA42397   3.713   6.385  22.390  0.4165  0.3114  0.0042
35798ION     NA42398   6.634   0.344  19.784  0.1236  0.2878 -0.1211
35799ION     NA42399  21.379   2.368  18.493  0.0346  0.1146 -0.0055
35800ION     NA42400   5.327   4.135  21.594 -0.1359  0.3861  0.1411
35801ION     NA42401   2.269   1.195  10.100  0.0557  0.3126  0.1399
35802ION     NA42402  26.918   1.135  21.022 -0.4697 -0.3324  0.0644
35803ION     NA42403  14.340   0.302   1.786 -0.3325  0.0835 -0.2604
35804ION     NA42404  20.275   0.091  20.332  0.4615  0.3225  0.0520
35805ION     NA42405  24.127   3.843   6.722  0.1622 -0.0733 -0.1494
35806ION     NA42406  23.403   5.296   5.694 -0.1211 -0.0110  0.0292
35807ION     NA42407  29.665   2.705  25.517  0.3747  0.0028  0.0579
35808ION     NA42408  30.940   4.523  19.919 -0.1924  0.1839 -0.0031
35809ION     NA42409  18.526   6.867   0.366  0.0974  0.0050  0.3535
35810ION     NA42410   8.513   1.192  17.419  0.4256  0.2396  0.0943
35811ION     NA42411   5.298   3.222   6.809  0.3798  0.1320 -0.1711
35812ION     NA42412   4.025   0.069   6.949 -0.1355  0.2137  0.3289
35813ION     NA42413  29.299   2.966   4.527 -0.1383 -0.1124  0.3506
35814ION     NA42414  24.088   1.606   3.472 -0.0800 -0.5553  0.1961
35815ION     NA42415  12.136   2.056  22.121 -0.0308  0.3747  0.1054
35816ION     NA42416   4.930   3.531  21.544 -0.3699 -0.0334 -0.3675
35817ION     CL42417  21.694   7.297  18.412 -0.5102 -0.1523  0.0217
35818ION     CL42418   6.790   2.415   7.126 -0.1593 -0.0175 -0.1548
35819ION     CL42419   3.779   1.706  18.104  0.0949 -0.0829 -0.5346
35820ION     CL42420   7.264   0.244  24.839  0.6247 -0.2220 -0.1705
35821ION     CL42421  30.545   2.554  19.782  0.3757 -0.1244 -0.1859
35822ION     CL42422   5.141   3.468   6.106  0.0997  0.5129 -0.0545
35823ION     CL42423   6.758   1.397   2.412 -0.0726  0.0044  0.0571
35824ION     CL42424  14.938   1.364   8.462  0.0847 -0.1472 -0.0260
35825ION     CL42425  20.346   3.813   5.275  0.3043  0.0278  0.3255
35826ION     CL42426  20.175   6.240  21.269 -0.3248  0.1065 -0.0402
35827ION     CL42427  17.600   4.089   0.063  0.1061 -0.0663 -0.0965
35828ION     CL42428  23.921   1.349  22.653  0.3481 -0.3525 -0.3523
35829ION     CL42429  26.006   3.540  20.060  0.2214  0.1007 -0.2546
35830ION     CL42430   7.037   4.238  10.441  0.0004  0.2348 -0.0456
35831ION     CL42431  20.707   6.395   5.164  0.2629 -0.2174  0.1339
35832ION     CL42432   0.613   4.479   9.333 -0.0335 -0.0695  0.1706
35833ION     CL42433   0.937   5.997   9.496  0.0437  0.1559 -0.2822
35834ION     CL42434  23.580   6.533   2.977  0.0126 -0.3187 -0.4105
35835ION     CL42435  29.791   5.851   0.571  0.6003 -0.0101  0.5087
35836ION     CL42436  13.382   5.028   1.197 -0.0218 -0.3940 -0.3549
35837ION     CL42437  13.716   5.840   3.191 -0.1125  0.4257  0.3604
35838ION     CL42438  26.646   4.656   8.856  0.2892  0.3768 -0.1128
35839ION     CL42439  18.923   3.363  18.891 -0.0270 -0.1281 -0.1504
35840ION     CL42440  14.532   6.011   7.061 -0.1481  0.3474 -0.1767
35841ION     CL42441  26.331   2.464   8.646 -0.0203 -0.3287 -0.0134
35842ION     CL42442  19.476   0.966  17.247  0.1376 -0.0861  0.0941
35843ION     CL42443  17.381   2.037  21.719  0.4504 -0.2543 -0.1339
35844ION     CL42444  25.729   0.181  25.633  0.5106 -0.0647 -0.3999
35845ION     CL42445  10.649   6.727   3.732 -0.0257 -0.5428 -0.0292
35846ION     CL42446  22.175   2.174   4.162 -0.0051 -0.2174 -0.0161
35847ION     CL42447  19.956   2.350  16.689  0.3109 -0.3489 -0.1430
35848ION     CL42448  31.235   1.911  23.946  0.5021 -0.0214  0.1487
35849ION     CL42449  19.365   3.351  24.979 -0.3634  0.1396 -0.2338
35850ION     CL42450  20.323   5.509  17.451  0.0390  0.2297  0.2862
35851ION     CL42451  20.331   4.525  25.795 -0.0893  0.0148 -0.0465
35852ION     CL42452  21.816   3.792  15.990  0.2215 -0.2250  0.4100
35853ION     CL42453   0.008   3.241  21.158  0.0306  0.0485  0.1049
35854ION     CL42454  23.952   3.047  26.110 -0.0179  0.0087  0.4850
35855ION     CL42455  18.128   0.851  17.484  0.1590  0.4441 -0.1777
35856ION     CL42456   4.049   7.745   5.183  0.0235 -0.2081 -0.0494
35857ION     CL42457   4.576   2.949  23.279 -0.1486 -0.5419 -0.3517
35858ION     CL42458  18.547   7.329  16.192 -0.2902 -0.1627 -0.1607
35859ION     CL42459  23.237   0.612  20.135  0.1569  0.1459  0.1532
35860ION     CL42460   1.288   2.223  18.593 -0.2396  0.0763  0.0842
35861ION     CL42461  11.430   1.961  16.687 -0.0200  0.2895 -0.1547
35862ION     CL42462  17.386   1.705  19.462 -0.0121 -0.6746 -0.1041
35863ION     CL42463  15.401   4.724  25.926 -0.1423 -0.1998 -0.0839
35864ION     CL42464   0.845   2.966  24.729 -0.2851 -0.3180  0.0205
35865ION     CL42465  17.626   0.826  24.337  0.1900 -0.1325  0.0914
35866ION     CL42466  13.310   6.119  16.112  0.2404 -0.0966 -0.2563
35867ION     CL42467   3.490   4.717  17.465  0.2565  0.1347 -0.0330
35868ION     CL42468   3.527   4.663   1.409 -0.0259  0.6449  0.2458
35869ION     CL42469  17.778   3.285   9.568 -0.3498 -0.2619 -0.0305
35870ION     CL42470  17.514   2.739   4.999 -0.0770  0.0730  0.1194
35871ION     CL42471  15.152   1.207  18.551  0.2243 -0.0106  0.1494
35872ION     CL42472  31.042   5.120  24.246  0.1116  0.2128  0.0682
35873ION     CL42473   9.247   2.906   8.008 -0.2276 -0.0689  0.2382
35874ION     CL42474   6.945   0.627  18.354 -0.3340 -0.2154  0.2171
35875ION     CL42475  28.272   1.109  22.351 -0.5698 -0.0747 -0.5408
35876ION     CL42476  20.597   4.220  17.663 -0.6560 -0.1120  0.2597
35877ION     CL42477   1.865   6.268   7.470 -0.3292  0.1254  0.1829
35878ION     CL42478  22.496   5.934  22.947 -0.0816 -0.0848  0.2869
35879ION     CL42479  22.043   1.129   8.286  0.1131  0.3832 -0.2820
35880ION     CL42480  19.121   6.806   8.882 -0.4031  0.3594  0.2711
35881ION     CL42481  16.762   1.615  24.062  0.0230 -0.0393  0.2953
35882ION     CL42482  30.995   6.077   2.289  0.0426  0.0845  0.2075
35883ION     CL42483  10.268   3.402  23.523  0.1378 -0.0630 -0.4593
35884ION     CL42484   6.157   4.563  23.155 -0.2712  0.1336  0.1525
35885ION     CL42485   0.224   0.433   0.816 -0.1800 -0.1873  0.0525
35886ION     CL42486  21.437   0.571  22.537  0.1346  0.1567 -0.1994
35887ION     CL42487  19.310   2.125   2.103 -0.0110 -0.3072  0.1204
35888ION     CL42488  16.660   7.708  19.105 -0.3931 -0.0742 -0.1331
35889ION     CL42489  12.461   3.412  17.334 -0.2104  0.2706  0.1480
35890ION     CL42490  26.043   4.575   6.865 -0.2176  0.0567  0.4132
35891ION     CL42491   5.466   1.842   2.613  0.1473  0.0973 -0.2068
35892ION     CL42492  20.885   4.725  16.735 -0.1096  0.6698  0.1755
35893ION     CL42493  18.526   3.414   9.750 -0.6081 -0.0819 -0.3750
35894ION     CL42494  10.672   2.999   1.128  0.0860 -0.5828 -0.4352
35895ION     CL42495  30.672   5.576  10.930 -0.4671  0.3012 -0.1796
35896ION     CL42496  29.975   5.050   4.547 -0.0759 -0.2395  0.1050
35897ION     CL42497  24.939   3.232  18.090  0.0717 -0.1911 -0.3116
35898ION     CL42498  15.503   4.392  19.499 -0.5684  0.5073 -0.0485
35899ION     CL42499  17.522   2.829  10.030  0.1493 -0.0176 -0.2536
35900ION     CL42500  13.733   6.979  15.678  0.1245 -0.3064 -0.2624
35901ION     CL42501  30.924   0.977   4.843 -0.0044  0.0081 -0.0552
35902ION     CL42502  20.155   4.413   3.650 -0.2383 -0.1757  0.1894
35903ION     CL42503  14.700   1.614  21.350  0.1321  0.2685 -0.0533
35904ION     CL42504  22.624   4.865  22.905  0.0244 -0.2629 -0.3224
35905ION     CL42505   6.193   1.565  17.317 -0.0504 -0.7350 -0.3476
35906ION     CL42506  22.802   4.276   7.563 -0.0529 -0.2004  0.0613
35907ION     CL42507   8.950   0.337   1.120  0.1406  0.1047  0.3642
35908ION     CL42508  17.830   5.792   2.108 -0.2167  0.3086  0.0452
35909ION     CL42509  27.483   0.556  19.431  0.0972 -0.4510 -0.2641
35910ION     CL42510  22.563   6.772   3.380 -0.4909 -0.0713 -0.6670
35911ION     CL42511   2.211   0.599  19.547 -0.8705  0.0180 -0.4173
35912ION     CL42512  13.472   5.653   6.599 -0.0434  0.3493  0.0585
35913ION     CL42513  17.994   3.126   1.206  0.1505  0.4922  0.0834
35914ION     CL42514  13.471   7.041  25.151 -0.2651  0.4512  0.2737
35915ION     CL42515  25.485   4.481  17.651 -0.3531 -0.1727 -0.2864
35916ION     CL42516  20.044   2.451   8.894 -0.0492  0.2925 -0.1480
35917ION     CL42517  16.403   6.779  16.239  0.1645  0.2565 -0.1396
35918ION     CL42518  29.256   6.393  18.929  0.1947  0.2953  0.1139
35919ION     CL42519  18.032   1.603  25.410  0.2957 -0.1543 -0.5385
35920ION     CL42520  10.745   0.522  25.973 -0.4271  0.2597 -0.2940
35921ION     CL42521  16.157   1.905   8.690 -0.1375  0.3253 -0.1228
35922ION     CL42522  13.018   0.880  19.942  0.0579  0.1975 -0.1175
35923ION     CL42523  22.014   4.405  19.159 -0.5242 -0.0346 -0.2519
35924ION     CL42524  16.050   5.121   6.945  0.2271 -0.0316 -0.2672
35925ION     CL42525  17.560   0.296   5.975  0.4011  0.1286 -0.3110
35926ION     CL42526  23.189   6.847   1.824  0.1461 -0.1193 -0.1197
35927ION     CL42527   7.619   3.539   5.537  0.0954 -0.1014  0.3359
35928ION     CL42528  25.949   3.473  18.628 -0.1812  0.1615  0.7005
35929ION     CL42529  14.556   5.328   4.629  0.1673 -0.0701  0.5352
35930ION     CL42530  24.609   2.109   4.817  0.1029  0.1617  0.2981
35931ION     CL42531   6.762   0.943  22.926 -0.0773  0.1550 -0.1352
35932ION     CL42532  11.040   6.552   0.446  0.2627 -0.0010  0.1309
35933ION     CL42533  24.080   3.855   6.354  0.1579  0.2217  0.4609
35934ION     CL42534  17.010   6.977  25.868 -0.0180 -0.0953  0.1576
35935ION     CL42535   0.503   3.344  19.239 -0.0186 -0.6990  0.1647
35936ION     CL42536  15.924   1.088  19.110 -0.2076  0.1492 -0.2496
35937ION     CL42537  22.382   5.797  18.969 -0.4952  0.1550  0.3310
35938ION     CL42538  29.571   0.412  23.320  0.0336 -0.2343 -0.1018
35939ION     CL42539  28.698   6.940   6.166  0.0261  0.1570 -0.3147
35940ION     CL42540  21.319   0.241  20.513 -0.2825  0.5146 -0.4293
35941ION     CL42541  12.643   4.037  22.901 -0.5017  0.1040  0.1055
35942ION     CL42542  23.659   6.674  22.875  0.2390 -0.3942  0.4452
35943ION     CL42543  16.579   5.616   6.700 -0.4029  0.1230 -0.0849
35944ION     CL42544  15.463   3.449  25.983 -0.0849  0.0219 -0.1199
35945ION     CL42545  18.946   2.136  19.846 -0.7006  0.5098  0.1898
35946ION     CL42546  18.903   0.770  18.373 -0.0185 -0.1147  0.2753
35947ION     CL42547  18.903   4.059  25.166 -0.1577  0.0868 -0.2220
35948ION     CL42548   6.425   3.499   7.563  0.0947 -0.0784 -0.6801
35949ION     CL42549  20.641   7.720  22.014 -0.1801 -0.3892  0.2823
35950ION     CL42550   1.124   4.497  16.504  0.3093  0.1629 -0.1115
35951ION     CL42551  26.692   4.532   4.119  0.2803 -0.3325 -0.7575
35952ION     CL42552  25.688   0.988   0.034 -0.2239  0.3170  0.2746
35953ION     CL42553  24.266   6.615   0.131  0.2125  0.2804 -0.0943
35954ION     CL42554  29.406   2.563   4.144 -0.3193  0.1927  0.2005
35955ION     CL42555   9.684   3.439  16.929 -0.0804 -0.1238 -0.1123
35956ION     CL42556   8.937   4.545   2.495 -0.1257  0.2052  0.2660
35957ION     CL42557   1.515   1.133  23.640  0.3131 -0.3474  0.0001
35958ION     CL42558  20.927   1.606  25.627  0.1377 -0.1851 -0.2371
35959ION     CL42559   9.510   6.597   6.925  0.0677  0.2199  0.2628
35960ION     CL42560  20.470   7.015  21.223 -0.3833  0.2684 -0.1865
35961ION     CL42561  17.287   1.334   0.149  0.2156  0.0606 -0.0241
35962DOPC   NC342562  11.125   6.455  14.354  0.1728 -0.2077  0.0139
35962DOPC   PO442563  11.443   6.639  14.521  0.1365  0.0061 -0.3187
35962DOPC   GL142564  11.604   6.856  14.236  0.0456 -0.2520  0.2979
35962DOPC   GL242565  11.298   6.832  14.111 -0.0834  0.2208 -0.2497
35962DOPC   C1A42566  11.686   6.991  13.861 -0.2375 -0.1674 -0.0104
35962DOPC   D2A42567  11.426   7.123  13.507  0.0143  0.0130 -0.0074
35962DOPC   C3A42568  11.522   7.334  13.046  0.1885  0.1068  0.2524
35962DOPC   C4A42569  11.591   7.574  12.643 -0.0397  0.1805  0.2222
35962DOPC   C1B42570  11.349   6.622  13.667  0.2187 -0.0413  0.2172
35962DOPC   D2B42571  11.199   6.677  13.197 -0.0376  0.0060  0.0407
35962DOPC   C3B42572  11.194   6.712  12.717  0.0513  0.2527  0.1021
35962DOPC   C4B42573  11.051   6.923  12.296 -0.1547 -0.2795  0.3502
35963DOPC   NC342574   4.731   4.121  15.372 -0.0602  0.2487 -0.1115
35963DOPC   PO442575   4.369   4.211  15.330 -0.0208  0.2181 -0.0609
35963DOPC   GL142576   4.195   4.203  15.001 -0.0859  0.1296  0.1851
35963DOPC   GL242577   4.465   4.057  14.944 -0.3073 -0.0251  0.0049
35963DOPC   C1A42578   4.032   4.263  14.601  0.0087 -0.1533 -0.0346
35963DOPC   D2A42579   3.882   4.187  14.174 -0.3603 -0.3048  0.0624
35963DOPC   C3A42580   3.580   4.182  13.819  0.4383 -0.0323  0.1527
35963DOPC   C4A42581   3.598   4.302  13.356  0.0635 -0.0126 -0.5282
35963DOPC   C1B42582   4.567   4.213  14.481 -0.1659  0.2198 -0.2469
35963DOPC   D2B42583   4.796   4.273  14.032  0.0022  0.1563  0.1742
35963DOPC   C3B42584   4.827   4.186  13.567 -0.3015 -0.2520 -0.0736
35963DOPC   C4B42585   4.900   4.231  13.086  0.1067 -0.2535 -0.0331
35964DOPC   NC342586  12.781   1.175  15.117 -0.1046  0.1096  0.0266
35964DOPC   PO442587  12.857   1.446  14.844  0.1874  0.0025  0.2232
35964DOPC   GL142588  12.842   1.481  14.420  0.2926 -0.0848  0.1613
35964DOPC   GL242589  13.172   1.641  14.579  0.0893  0.4160  0.0297
35964DOPC   C1A42590  12.980   1.640  14.039 -0.3413 -0.0374 -0.4306
35964DOPC   D2A42591  13.126   1.448  13.665 -0.1387  0.0341 -0.1031
35964DOPC   C3A42592  13.446   1.463  13.431  0.0036  0.2194  0.1392
35964DOPC   C4A42593  13.733   1.452  13.024  0.1343  0.0578  0.1102
35964DOPC   C1B42594  13.333   1.414  14.308 -0.3748 -0.0207  0.0048
35964DOPC   D2B42595  13.593   1.201  13.908 -0.0005  0.1631  0.4535
35964DOPC   C3B42596  13.792   1.101  13.506  0.0967  0.0558  0.0650
35964DOPC   C4B42597  13.961   0.865  13.151 -0.0991 -0.1678 -0.0131
35965DOPC   NC342598   4.153   5.263  15.462 -0.0103 -0.0869 -0.2451
35965DOPC   PO442599   3.830   5.078  15.509 -0.0642  0.2546  0.0365
35965DOPC   GL142600   3.770   5.037  15.134  0.2695  0.0705 -0.0783
35965DOPC   GL242601   3.469   5.183  15.052 -0.1121 -0.1438 -0.0642
35965DOPC   C1A42602   3.954   4.992  14.677  0.3750 -0.2684 -0.1650
35965DOPC   D2A42603   4.123   4.786  14.266 -0.0995  0.0383  0.0383
35965DOPC   C3A42604   4.320   4.471  14.066  0.1776 -0.0473 -0.0214
35965DOPC   C4A42605   4.089   4.262  13.689 -0.0492 -0.0956  0.1577
35965DOPC   C1B42606   3.445   5.340  14.609  0.0393 -0.0095 -0.3280
35965DOPC   D2B42607   3.457   5.546  14.117  0.1775  0.0190  0.0855
35965DOPC   C3B42608   3.612   5.949  13.974 -0.2331 -0.1633  0.1937
35965DOPC   C4B42609   3.808   6.321  13.720  0.3238  0.0609  0.1900
35966DOPC   NC342610  30.946   4.920  15.536  0.2625  0.0501  0.1590
35966DOPC   PO442611  31.094   5.279  15.601 -0.3061 -0.2346 -0.0529
35966DOPC   GL142612  30.755   5.427  15.344 -0.2405  0.3564  0.2085
35966DOPC   GL242613  30.848   5.171  15.111 -0.5271 -0.1451  0.0130
35966DOPC   C1A42614  30.768   5.775  15.035  0.1715  0.2132 -0.1783
35966DOPC   D2A42615  31.008   5.848  14.617  0.0227 -0.1701 -0.1054
35966DOPC   C3A42616  31.169   5.978  14.179  0.2592 -0.0425  0.0568
35966DOPC   C4A42617  31.376   6.299  13.845  0.1784 -0.2833  0.0703
35966DOPC   C1B42618  31.008   5.120  14.653  0.2289  0.3262  0.0306
35966DOPC   D2B42619  31.270   5.053  14.184  0.0446 -0.1349  0.0606
35966DOPC   C3B42620  31.368   5.252  13.724  0.1349 -0.0488 -0.0101
35966DOPC   C4B42621  31.582   5.498  13.339 -0.0648 -0.2637  0.1731
35967DOPC   NC342622  21.596   0.244  14.584  0.0138 -0.2729  0.0228
35967DOPC   PO442623  21.412  -0.100  14.607  0.0894 -0.0914  0.2384
35967DOPC   GL142624  21.317  -0.247  14.278  0.4102 -0.3150 -0.2171
35967DOPC   GL242625  21.497  -0.418  14.164  0.2698  0.2809  0.1702
35967DOPC   C1A42626  21.346  -0.066  13.948  0.3562 -0.1022  0.1956
35967DOPC   D2A42627  21.696   0.240  13.724  0.1958  0.0154  0.0973
35967DOPC   C3A42628  21.523   0.269  13.310  0.0099  0.0047  0.2272
35967DOPC   C4A42629  21.331   0.173  12.780 -0.1842  0.0325 -0.2189
35967DOPC   C1B42630  21.787  -0.279  13.835 -0.1038 -0.0828 -0.0296
35967DOPC   D2B42631  21.504  -0.262  13.381  0.2277 -0.1738  0.0723
35967DOPC   C3B42632  21.794  -0.488  13.160  0.2120  0.2583 -0.4752
35967DOPC   C4B42633  21.941  -0.497  12.751 -0.3667  0.0948  0.1575
35968DOPC   NC342634  29.316   6.183  15.449  0.2504 -0.4262  0.0834
35968DOPC   PO442635  29.493   6.217  15.084 -0.0719  0.1728  0.1711
35968DOPC   GL142636  29.221   6.253  14.772  0.2407  0.2949 -0.1756
35968DOPC   GL242637  29.279   5.887  14.766  0.2085  0.3412  0.1084
35968DOPC   C1A42638  29.438   6.400  14.403 -0.3288  0.0608  0.0833
35968DOPC   D2A42639  29.543   6.631  13.893  0.2865 -0.2194  0.1483
35968DOPC   C3A42640  29.546   6.381  13.465  0.1743  0.1338  0.0729
35968DOPC   C4A42641  29.683   6.171  13.057 -0.1667 -0.1457 -0.1298
35968DOPC   C1B42642  29.136   5.763  14.325  0.2764  0.1534 -0.0716
35968DOPC   D2B42643  29.142   5.777  13.843 -0.2456  0.0302  0.1685
35968DOPC   C3B42644  29.140   6.128  13.512  0.3161 -0.1039 -0.0694
35968DOPC   C4B42645  29.177   6.302  13.084  0.2969 -0.0416 -0.0669
35969DOPC   NC342646  27.955   5.480  15.276 -0.1817  0.1618  0.1670
35969DOPC   PO442647  28.273   5.305  15.101  0.1567  0.1032  0.1705
35969DOPC   GL142648  28.402   5.554  14.839 -0.1250 -0.1102  0.0400
35969DOPC   GL242649  28.083   5.639  14.782 -0.1077  0.2032 -0.0132
35969DOPC   C1A42650  28.496   5.768  14.487  0.3644 -0.0986 -0.0411
35969DOPC   D2A42651  28.716   5.554  14.081  0.1133 -0.1415  0.0901
35969DOPC   C3A42652  29.133   5.352  14.061 -0.0381  0.2193 -0.1051
35969DOPC   C4A42653  29.495   5.021  14.011  0.2648 -0.0286  0.0439
35969DOPC   C1B42654  28.005   5.794  14.397  0.0067 -0.2315 -0.1773
35969DOPC   D2B42655  28.260   5.778  14.002 -0.0328 -0.0036  0.0588
35969DOPC   C3B42656  28.365   5.732  13.523 -0.2138 -0.1452  0.0037
35969DOPC   C4B42657  28.334   5.716  13.035  0.4086 -0.1412 -0.0870
35970DOPC   NC342658  21.970   1.791  15.097  0.0965 -0.2377  0.3015
35970DOPC   PO442659  21.602   1.917  15.023  0.1605  0.0814  0.0638
35970DOPC   GL142660  21.379   1.944  14.619 -0.1097  0.0280  0.0468
35970DOPC   GL242661  21.308   2.184  14.701  0.0185  0.0350  0.0080
35970DOPC   C1A42662  21.555   2.076  14.198 -0.0804 -0.1560 -0.0780
35970DOPC   D2A42663  21.495   2.366  13.763 -0.0674  0.0209  0.2580
35970DOPC   C3A42664  21.551   2.182  13.346 -0.0756  0.2079  0.2012
35970DOPC   C4A42665  21.801   1.946  13.063 -0.0494  0.0240 -0.0777
35970DOPC   C1B42666  21.174   2.400  14.385  0.1907  0.0244  0.1065
35970DOPC   D2B42667  21.026   2.644  14.000 -0.2012 -0.1721 -0.0223
35970DOPC   C3B42668  21.184   2.771  13.557 -0.2661 -0.2048 -0.0327
35970DOPC   C4B42669  21.553   2.644  13.300  0.1661  0.2736  0.0154
35971DOPC   NC342670   0.523   2.631  15.433  0.1107 -0.0910  0.0356
35971DOPC   PO442671   0.853   2.443  15.515 -0.0236  0.1711  0.0005
35971DOPC   GL142672   0.994   2.477  15.062 -0.0504  0.5483 -0.0976
35971DOPC   GL242673   0.699   2.607  15.010 -0.0656  0.0315 -0.0371
35971DOPC   C1A42674   0.969   2.188  14.783  0.1810 -0.1340  0.1657
35971DOPC   D2A42675   0.792   1.833  14.527 -0.3833  0.1524 -0.1441
35971DOPC   C3A42676   0.717   1.704  14.090  0.1684  0.0373  0.2545
35971DOPC   C4A42677   0.709   1.408  13.706 -0.0228  0.2289  0.0798
35971DOPC   C1B42678   0.553   2.748  14.627  0.0877 -0.0792  0.3030
35971DOPC   D2B42679   0.573   2.841  14.143 -0.0651 -0.1422 -0.1291
35971DOPC   C3B42680   0.982   2.920  13.875  0.0819 -0.0032 -0.1456
35971DOPC   C4B42681   1.225   3.265  13.568  0.2449  0.0346 -0.1301
35972DOPC   NC342682  25.688   4.443  15.337 -0.1071  0.0470 -0.3767
35972DOPC   PO442683  25.559   4.159  15.088 -0.1466 -0.0572  0.2472
35972DOPC   GL142684  25.645   4.192  14.688 -0.1175 -0.0280  0.3170
35972DOPC   GL242685  25.768   3.950  14.559  0.0954 -0.2090 -0.1455
35972DOPC   C1A42686  25.683   4.496  14.332 -0.0472  0.0018  0.3588
35972DOPC   D2A42687  25.528   4.803  13.969 -0.1488  0.1954 -0.3078
35972DOPC   C3A42688  25.142   4.688  13.668 -0.0864  0.0476  0.3211
35972DOPC   C4A42689  24.868   4.596  13.298  0.2054 -0.0092 -0.0145
35972DOPC   C1B42690  25.761   3.808  14.093 -0.1394 -0.3036 -0.3973
35972DOPC   D2B42691  25.942   3.683  13.618 -0.6079  0.0290 -0.1417
35972DOPC   C3B42692  25.648   3.736  13.277  0.2178  0.1435 -0.0338
35972DOPC   C4B42693  25.356   3.568  12.936  0.0319  0.1994 -0.1027
35973DOPC   NC342694  20.200   6.830  14.285 -0.0348 -0.0999  0.1026
35973DOPC   PO442695  20.163   7.090  14.571  0.0951  0.2548  0.0985
35973DOPC   GL142696  19.844   7.210  14.266  0.2351  0.0348 -0.0437
35973DOPC   GL242697  19.994   7.472  14.341  0.2087  0.0312  0.3664
35973DOPC   C1A42698  19.619   7.255  13.947 -0.0556  0.0514  0.0325
35973DOPC   D2A42699  19.377   7.471  13.564  0.1686 -0.1483  0.0246
35973DOPC   C3A42700  18.887   7.399  13.409 -0.0955  0.0922 -0.2891
35973DOPC   C4A42701  18.525   7.328  13.219  0.2978 -0.0263 -0.0926
35973DOPC   C1B42702  19.875   7.720  13.998  0.0149 -0.1549 -0.0440
35973DOPC   D2B42703  19.679   7.951  13.556  0.0706 -0.0600  0.2428
35973DOPC   C3B42704  19.997   8.133  13.269  0.0303 -0.1953  0.1138
35973DOPC   C4B42705  20.441   8.214  13.040  0.1371 -0.1454  0.0355
35974DOPC   NC342706   1.464   4.995  15.586  0.0835 -0.3828 -0.1633
35974DOPC   PO442707   1.604   5.329  15.794 -0.4139  0.5157 -0.2136
35974DOPC   GL142708   1.583   5.592  15.492 -0.2704  0.2789  0.2361
35974DOPC   GL242709   1.695   5.815  15.596  0.1146 -0.0402  0.0146
35974DOPC   C1A42710   1.658   5.560  15.038 -0.1448 -0.1723 -0.0924
35974DOPC   D2A42711   1.557   5.347  14.562 -0.1054 -0.0145 -0.2443
35974DOPC   C3A42712   1.183   5.354  14.280  0.1338 -0.1758  0.0490
35974DOPC   C4A42713   0.844   5.584  13.947  0.1000  0.2730 -0.2295
35974DOPC   C1B42714   1.872   5.973  15.208 -0.1163  0.2636 -0.1968
35974DOPC   D2B42715   1.753   5.931  14.668  0.0347 -0.1480  0.0604
35974DOPC   C3B42716   1.711   5.729  14.214  0.1689  0.2822 -0.1405
35974DOPC   C4B42717   1.939   5.560  13.938 -0.0874  0.1241 -0.1246
35975DOPC   NC342718   2.042   4.548  15.676 -0.1581 -0.1783  0.1992
35975DOPC   PO442719   2.013   4.927  15.735  0.1527 -0.0425 -0.1061
35975DOPC   GL142720   2.076   5.120  15.364 -0.0230  0.0579 -0.1686
35975DOPC   GL242721   1.804   5.191  15.331 -0.1663  0.0283 -0.1498
35975DOPC   C1A42722   2.057   5.092  14.902 -0.1223 -0.0388 -0.3561
35975DOPC   D2A42723   2.129   4.716  14.464 -0.0110  0.0961  0.0166
35975DOPC   C3A42724   2.338   4.598  14.052 -0.0079  0.1631 -0.0521
35975DOPC   C4A42725   2.523   4.582  13.526 -0.0995  0.3835 -0.3914
35975DOPC   C1B42726   1.587   5.021  15.010  0.1024  0.2490  0.0150
35975DOPC   D2B42727   1.219   4.975  14.668 -0.1974 -0.0513  0.1873
35975DOPC   C3B42728   0.821   5.198  14.535  0.1527  0.0262  0.0041
35975DOPC   C4B42729   0.640   5.663  14.387 -0.0990  0.2386  0.2142
35976DOPC   NC342730  18.623   1.538  14.892 -0.1428  0.1051 -0.1865
35976DOPC   PO442731  18.571   1.833  14.658 -0.1548  0.1357 -0.0019
35976DOPC   GL142732  18.477   1.673  14.245 -0.0702  0.0373  0.2740
35976DOPC   GL242733  18.347   1.448  14.505  0.4381 -0.2751 -0.0700
35976DOPC   C1A42734  18.530   1.368  13.834 -0.0326  0.1716  0.1309
35976DOPC   D2A42735  18.509   1.106  13.475 -0.0033  0.2897 -0.2408
35976DOPC   C3A42736  18.347   0.894  13.106 -0.3289 -0.0749  0.3148
35976DOPC   C4A42737  18.238   0.647  12.753 -0.2191  0.1878  0.1674
35976DOPC   C1B42738  18.305   1.124  14.219 -0.1947  0.2748 -0.0327
35976DOPC   D2B42739  18.124   0.967  13.761 -0.0295 -0.0897  0.0928
35976DOPC   C3B42740  18.130   0.664  13.446 -0.1328 -0.0314  0.2363
35976DOPC   C4B42741  18.030   0.279  13.172 -0.3606 -0.2300 -0.0206
35977DOPC   NC342742  13.967   0.715  14.952 -0.0019 -0.1554 -0.0112
35977DOPC   PO442743  14.248   0.955  14.797  0.1608  0.0831 -0.0051
35977DOPC   GL142744  14.377   0.909  14.412 -0.1193 -0.1908 -0.4086
35977DOPC   GL242745  14.079   0.851  14.346 -0.0461 -0.2336 -0.0052
35977DOPC   C1A42746  14.575   1.034  14.104  0.0949 -0.1395 -0.0031
35977DOPC   D2A42747  14.666   1.248  13.697  0.0294  0.0010 -0.0069
35977DOPC   C3A42748  14.711   1.453  13.284 -0.0650  0.2204 -0.1368
35977DOPC   C4A42749  14.796   1.722  12.859 -0.1546 -0.0538 -0.1384
35977DOPC   C1B42750  14.245   0.623  14.064  0.0621  0.1749 -0.0112
35977DOPC   D2B42751  14.341   0.379  13.634  0.2508  0.1548  0.0567
35977DOPC   C3B42752  14.272   0.495  13.200 -0.1749 -0.0506  0.0165
35977DOPC   C4B42753  14.350   0.757  12.774  0.3022  0.1609  0.2508
35978DOPC   NC342754  31.043   7.603  15.662  0.1722  0.1960  0.1233
35978DOPC   PO442755  31.383   7.753  15.781 -0.0678 -0.0638  0.0571
35978DOPC   GL142756  31.534   7.936  15.422 -0.0213  0.3552  0.1958
35978DOPC   GL242757  31.816   7.952  15.434 -0.1392 -0.6030  0.0406
35978DOPC   C1A42758  31.437   7.990  14.981 -0.1517  0.0183 -0.2834
35978DOPC   D2A42759  31.288   8.162  14.544 -0.0882 -0.1239 -0.1546
35978DOPC   C3A42760  31.365   8.126  14.096  0.0585  0.1053  0.0527
35978DOPC   C4A42761  31.507   7.783  13.761  0.2283 -0.2230  0.0507
35978DOPC   C1B42762  31.907   7.844  15.004 -0.0842 -0.3176  0.1377
35978DOPC   D2B42763  31.847   7.681  14.536 -0.1912  0.1876 -0.3145
35978DOPC   C3B42764  31.530   7.548  14.269 -0.0860 -0.1619 -0.2073
35978DOPC   C4B42765  31.412   7.276  13.838  0.2447 -0.0211 -0.1354
35979DOPC   NC342766  25.640   6.051  14.560 -0.4321  0.1346 -0.1630
35979DOPC   PO442767  25.664   5.723  14.788 -0.1221  0.2732  0.0670
35979DOPC   GL142768  25.782   5.398  14.519  0.1755  0.1305  0.0520
35979DOPC   GL242769  25.488   5.372  14.492  0.3831 -0.2422  0.3820
35979DOPC   C1A42770  26.121   5.248  14.239  0.0267 -0.4377 -0.1959
35979DOPC   D2A42771  26.396   5.071  13.875 -0.2483 -0.0036  0.0664
35979DOPC   C3A42772  26.461   4.764  13.542  0.0384 -0.1646  0.0007
35979DOPC   C4A42773  26.391   4.503  13.184 -0.0845 -0.2077  0.1946
35979DOPC   C1B42774  25.174   5.379  14.089  0.0149 -0.1074 -0.2389
35979DOPC   D2B42775  24.977   5.269  13.678  0.2080  0.1632 -0.2324
35979DOPC   C3B42776  24.889   5.392  13.295 -0.0362 -0.0792 -0.4961
35979DOPC   C4B42777  24.701   5.703  12.979  0.0575  0.0278 -0.2528
35980DOPC   NC342778  26.205   1.344  14.792  0.0924  0.1590 -0.0589
35980DOPC   PO442779  25.949   1.208  15.060  0.1614 -0.3091 -0.1166
35980DOPC   GL142780  25.777   0.987  14.737 -0.0251 -0.3130  0.1926
35980DOPC   GL242781  25.765   1.193  14.526 -0.0115  0.1341  0.2241
35980DOPC   C1A42782  25.962   0.703  14.407 -0.1263  0.3696 -0.1580
35980DOPC   D2A42783  26.134   0.349  14.101 -0.0720  0.3209 -0.1118
35980DOPC   C3A42784  26.326   0.070  13.796 -0.0485 -0.0779  0.2032
35980DOPC   C4A42785  26.555  -0.204  13.494  0.0311 -0.0156 -0.0665
35980DOPC   C1B42786  25.938   1.116  14.113 -0.0998  0.0516 -0.1029
35980DOPC   D2B42787  26.174   1.196  13.690 -0.1478  0.0625  0.0130
35980DOPC   C3B42788  26.078   1.494  13.342  0.0362  0.1031 -0.0527
35980DOPC   C4B42789  26.079   1.844  12.976  0.3583  0.0149 -0.0077
35981DOPC   NC342790  12.680   2.093  15.036  0.3062 -0.0883 -0.1018
35981DOPC   PO442791  12.464   1.741  15.082  0.1588  0.2071 -0.3152
35981DOPC   GL142792  12.491   1.709  14.737 -0.2625 -0.2080  0.2981
35981DOPC   GL242793  12.294   1.550  14.564 -0.0431 -0.1670  0.2537
35981DOPC   C1A42794  12.728   1.977  14.448  0.2440 -0.0226  0.0101
35981DOPC   D2A42795  12.687   2.025  13.923 -0.2921  0.1804 -0.0644
35981DOPC   C3A42796  12.818   1.884  13.537  0.3146 -0.0056 -0.2329
35981DOPC   C4A42797  13.056   1.630  13.182 -0.0396 -0.0131 -0.0130
35981DOPC   C1B42798  12.479   1.607  14.152 -0.1395 -0.0577  0.1430
35981DOPC   D2B42799  12.568   1.408  13.706  0.2359  0.0543 -0.0390
35981DOPC   C3B42800  12.740   1.304  13.351  0.1582 -0.1234  0.5252
35981DOPC   C4B42801  12.825   1.299  12.887 -0.1014  0.2820  0.2213
35982DOPC   NC342802   7.526   5.502  15.390  0.1005  0.1663 -0.1444
35982DOPC   PO442803   7.212   5.682  15.187 -0.2141 -0.1490  0.3431
35982DOPC   GL142804   7.368   5.770  14.804 -0.4173  0.0757  0.1835
35982DOPC   GL242805   7.417   5.485  14.823 -0.1803 -0.1521  0.0032
35982DOPC   C1A42806   7.167   5.875  14.449  0.0198 -0.0332 -0.1456
35982DOPC   D2A42807   7.109   6.070  14.031 -0.1747  0.0012  0.0137
35982DOPC   C3A42808   7.083   5.940  13.570 -0.2555  0.2945 -0.0224
35982DOPC   C4A42809   7.255   5.845  13.175 -0.1216 -0.0699  0.0751
35982DOPC   C1B42810   7.245   5.237  14.534 -0.0423 -0.0059  0.1011
35982DOPC   D2B42811   7.166   5.534  14.145 -0.0077  0.0326 -0.2503
35982DOPC   C3B42812   6.727   5.752  14.139  0.1845  0.0285 -0.0758
35982DOPC   C4B42813   6.239   5.938  14.190  0.4191 -0.1785  0.1163
35983DOPC   NC342814  23.034   4.608  15.163  0.1298  0.0423  0.1647
35983DOPC   PO442815  22.687   4.557  15.147  0.0170  0.0080  0.0811
35983DOPC   GL142816  22.647   4.475  14.810  0.1457  0.1985 -0.3759
35983DOPC   GL242817  22.908   4.658  14.709  0.1657  0.0516 -0.0350
35983DOPC   C1A42818  22.729   4.237  14.383 -0.2758  0.1493 -0.0159
35983DOPC   D2A42819  22.949   3.997  13.991  0.0020  0.2441 -0.0371
35983DOPC   C3A42820  22.736   3.703  13.735  0.0095  0.0001  0.3171
35983DOPC   C4A42821  22.725   3.274  13.425 -0.0081  0.1747 -0.2188
35983DOPC   C1B42822  22.758   4.718  14.317  0.3820 -0.2642 -0.0515
35983DOPC   D2B42823  22.824   4.792  13.841  0.0444  0.6401  0.0953
35983DOPC   C3B42824  23.255   4.956  13.699 -0.2332  0.0725 -0.0733
35983DOPC   C4B42825  23.541   5.293  13.602  0.1561  0.0449 -0.1199
35984DOPC   NC342826  18.198   5.067  14.783 -0.0791 -0.0226 -0.1179
35984DOPC   PO442827  18.212   4.712  14.590 -0.0542  0.2840  0.0080
35984DOPC   GL142828  18.014   4.972  14.236 -0.0415  0.0691 -0.1508
35984DOPC   GL242829  18.153   4.733  14.109  0.0401  0.0129 -0.1933
35984DOPC   C1A42830  17.988   5.294  13.946 -0.4775  0.2760 -0.3388
35984DOPC   D2A42831  17.924   5.623  13.626  0.3439  0.0891  0.0639
35984DOPC   C3A42832  17.792   6.120  13.656  0.0152 -0.0336  0.0709
35984DOPC   C4A42833  17.367   6.432  13.705 -0.3762 -0.1870 -0.0725
35984DOPC   C1B42834  18.187   4.798  13.673 -0.4463  0.0621  0.0703
35984DOPC   D2B42835  18.215   5.003  13.198 -0.0254 -0.3207  0.1154
35984DOPC   C3B42836  18.527   5.196  12.976  0.1865 -0.0077 -0.0393
35984DOPC   C4B42837  18.701   5.457  12.595  0.0968 -0.0066 -0.1399
35985DOPC   NC342838  10.616   4.126  15.327 -0.1088  0.0297 -0.1126
35985DOPC   PO442839  10.275   4.021  15.156  0.2816  0.0030 -0.4659
35985DOPC   GL142840  10.241   3.845  14.714 -0.1024 -0.1268  0.0835
35985DOPC   GL242841  10.235   4.109  14.625 -0.3733  0.2486  0.0596
35985DOPC   C1A42842  10.426   3.461  14.592 -0.2104 -0.1542  0.1787
35985DOPC   D2A42843  10.452   2.960  14.565 -0.2011 -0.4322 -0.0341
35985DOPC   C3A42844  10.471   2.817  14.104 -0.0642 -0.0110  0.0864
35985DOPC   C4A42845  10.555   2.689  13.701 -0.2159 -0.0603  0.1972
35985DOPC   C1B42846  10.259   4.087  14.190 -0.0239 -0.0777 -0.1167
35985DOPC   D2B42847  10.240   4.326  13.794  0.0302 -0.1311  0.4128
35985DOPC   C3B42848  10.018   4.414  13.344  0.1584 -0.2703  0.2026
35985DOPC   C4B42849   9.780   4.693  13.015 -0.2209 -0.0475  0.3274
35986DOPC   NC342850  29.018   4.374  15.229  0.2431  0.1368 -0.2509
35986DOPC   PO442851  29.338   4.385  14.958  0.1151 -0.0857  0.1336
35986DOPC   GL142852  29.478   4.428  14.497  0.0456  0.3214 -0.5050
35986DOPC   GL242853  29.210   4.409  14.472 -0.0176 -0.4310  0.1120
35986DOPC   C1A42854  29.693   4.566  14.152 -0.0425  0.1669 -0.1574
35986DOPC   D2A42855  30.041   4.709  13.784  0.0541 -0.1684 -0.1242
35986DOPC   C3A42856  29.910   5.126  13.634 -0.1819  0.1579  0.1912
35986DOPC   C4A42857  29.791   5.477  13.381 -0.0582  0.0681 -0.2041
35986DOPC   C1B42858  29.170   4.605  14.114 -0.0792 -0.0378  0.0116
35986DOPC   D2B42859  28.982   4.882  13.793 -0.0733 -0.0146 -0.0839
35986DOPC   C3B42860  28.918   5.293  13.641 -0.0490  0.1416  0.2435
35986DOPC   C4B42861  29.052   5.668  13.369  0.2115  0.2601  0.0924
35987DOPC   NC342862   7.274   0.669  15.078 -0.1935  0.2985  0.1148
35987DOPC   PO442863   7.322   0.324  14.907  0.0067 -0.0678 -0.1726
35987DOPC   GL142864   7.163   0.109  14.697 -0.0457 -0.1749  0.0219
35987DOPC   GL242865   6.916   0.211  14.726  0.1558  0.1691  0.1496
35987DOPC   C1A42866   7.270  -0.170  14.468 -0.0065  0.0983  0.0713
35987DOPC   D2A42867   7.287  -0.623  14.118  0.0685 -0.1018  0.1058
35987DOPC   C3A42868   7.005  -0.926  13.862  0.2911  0.1319  0.3271
35987DOPC   C4A42869   6.799  -1.271  13.619  0.0132 -0.0142 -0.1339
35987DOPC   C1B42870   6.792   0.334  14.310  0.0186  0.1920  0.1401
35987DOPC   D2B42871   6.716   0.449  13.857 -0.2014  0.0783  0.0542
35987DOPC   C3B42872   6.365   0.478  13.515  0.0000  0.0060 -0.0263
35987DOPC   C4B42873   5.929   0.380  13.358  0.0161 -0.1395 -0.1214
35988DOPC   NC342874   3.899   0.959  15.340  0.3093 -0.0104  0.0987
35988DOPC   PO442875   3.538   0.838  15.445 -0.1535 -0.2584 -0.1628
35988DOPC   GL142876   3.304   0.834  15.146 -0.3146 -0.0477  0.4461
35988DOPC   GL242877   3.125   0.646  15.208 -0.1493 -0.2415  0.1203
35988DOPC   C1A42878   3.263   0.660  14.714  0.1452  0.1816  0.2543
35988DOPC   D2A42879   3.181   0.419  14.253 -0.2783 -0.1710 -0.2712
35988DOPC   C3A42880   3.078   0.720  13.901  0.0128  0.2927  0.2018
35988DOPC   C4A42881   3.013   0.983  13.461 -0.1808 -0.1609 -0.1436
35988DOPC   C1B42882   3.036   0.284  14.920  0.2066  0.0786 -0.1390
35988DOPC   D2B42883   2.948  -0.067  14.566  0.1408  0.0984 -0.0231
35988DOPC   C3B42884   2.880   0.045  14.150 -0.0755  0.0685  0.1648
35988DOPC   C4B42885   2.755   0.304  13.679 -0.2610  0.0439  0.1770
35989DOPC   NC342886  28.877   5.723  15.564  0.1168  0.2619 -0.2289
35989DOPC   PO442887  28.694   5.586  15.219 -0.0368 -0.2626 -0.1855
35989DOPC   GL142888  28.811   5.714  14.905 -0.0013 -0.1054  0.1733
35989DOPC   GL242889  28.641   5.974  14.841 -0.2957 -0.1670  0.2952
35989DOPC   C1A42890  28.824   5.455  14.571 -0.0655 -0.0207  0.1423
35989DOPC   D2A42891  28.728   5.074  14.247  0.1087 -0.3866  0.2009
35989DOPC   C3A42892  28.443   5.039  13.868  0.1026 -0.0064 -0.0194
35989DOPC   C4A42893  28.283   5.192  13.438  0.1675 -0.1381  0.0721
35989DOPC   C1B42894  28.900   6.191  14.510 -0.0928  0.1619  0.0124
35989DOPC   D2B42895  29.084   6.282  14.056 -0.3846 -0.2664 -0.1077
35989DOPC   C3B42896  29.535   6.144  13.880 -0.1729  0.2112 -0.3711
35989DOPC   C4B42897  29.556   5.894  13.460 -0.0452  0.0508 -0.1287
35990DOPC   NC342898  17.748   4.548  14.373 -0.1812  0.3814  0.2978
35990DOPC   PO442899  17.438   4.269  14.451  0.2052 -0.3227 -0.1186
35990DOPC   GL142900  17.142   4.332  14.120  0.1684 -0.0823 -0.3365
35990DOPC   GL242901  17.393   4.259  13.930  0.5863 -0.3273 -0.3853
35990DOPC   C1A42902  16.865   4.308  13.770  0.1954  0.4287  0.0198
35990DOPC   D2A42903  17.004   4.311  13.279  0.1090 -0.3574  0.0678
35990DOPC   C3A42904  16.982   4.051  12.887  0.2352  0.2037  0.1629
35990DOPC   C4A42905  16.938   3.796  12.467  0.3938 -0.1203 -0.0725
35990DOPC   C1B42906  17.445   4.180  13.444 -0.0569  0.1120 -0.2167
35990DOPC   D2B42907  17.502   4.228  12.959 -0.0063  0.2191 -0.0790
35990DOPC   C3B42908  17.927   4.074  12.965 -0.0014  0.2091  0.1504
35990DOPC   C4B42909  18.346   4.084  12.964 -0.2971  0.0663 -0.1024
35991DOPC   NC342910  27.803   3.251  15.475 -0.0678  0.3152 -0.2568
35991DOPC   PO442911  28.140   3.329  15.318  0.0629  0.1050  0.3622
35991DOPC   GL142912  28.417   3.134  14.951 -0.1589  0.0414 -0.0576
35991DOPC   GL242913  28.184   2.906  14.861 -0.0936 -0.4517  0.2756
35991DOPC   C1A42914  28.657   3.240  14.627  0.1203  0.2073 -0.1340
35991DOPC   D2A42915  28.753   3.513  14.254  0.2156  0.1914 -0.5104
35991DOPC   C3A42916  28.704   3.448  13.724 -0.1692  0.1522  0.1005
35991DOPC   C4A42917  28.709   3.265  13.236 -0.2160  0.0111  0.3317
35991DOPC   C1B42918  28.196   2.788  14.429  0.1237 -0.4147  0.2994
35991DOPC   D2B42919  28.320   2.564  14.025  0.0181  0.0974 -0.0094
35991DOPC   C3B42920  28.081   2.531  13.648 -0.1859 -0.2052  0.0647
35991DOPC   C4B42921  27.805   2.570  13.279  0.3548 -0.0506  0.2336
35992DOPC   NC342922  31.085   4.323  15.356 -0.0909  0.0664 -0.3640
35992DOPC   PO442923  30.714   4.464  15.457  0.1145 -0.1567  0.0588
35992DOPC   GL142924  30.775   4.538  15.075 -0.0754 -0.0219 -0.2082
35992DOPC   GL242925  31.045   4.696  15.098 -0.2844 -0.3593  0.0236
35992DOPC   C1A42926  30.975   4.277  14.785 -0.0869  0.0219 -0.1490
35992DOPC   D2A42927  31.316   4.070  14.456  0.0818 -0.0119  0.2191
35992DOPC   C3A42928  31.434   4.091  14.065  0.1974  0.2124  0.0589
35992DOPC   C4A42929  31.317   4.297  13.609  0.1767 -0.1148 -0.1076
35992DOPC   C1B42930  31.280   4.680  14.796 -0.0088  0.2666 -0.1368
35992DOPC   D2B42931  31.406   4.587  14.343  0.0316  0.2446 -0.0717
35992DOPC   C3B42932  31.672   4.522  13.997  0.0555  0.3380 -0.0718
35992DOPC   C4B42933  31.831   4.401  13.520  0.0574  0.0383 -0.3309
35993DOPC   NC342934   5.524   3.946  15.837  0.1773  0.0702  0.1302
35993DOPC   PO442935   5.731   3.771  15.511  0.1136  0.0516  0.1927
35993DOPC   GL142936   5.772   3.722  15.058  0.0852  0.1519  0.1422
35993DOPC   GL242937   5.418   3.703  15.069  0.2894 -0.2431 -0.1292
35993DOPC   C1A42938   5.783   3.909  14.626 -0.1343 -0.0913  0.2938
35993DOPC   D2A42939   5.698   4.005  14.156  0.1361 -0.3223  0.0638
35993DOPC   C3A42940   5.593   4.326  13.847 -0.3652  0.2038  0.0447
35993DOPC   C4A42941   5.888   4.606  13.578 -0.1480 -0.1908  0.3923
35993DOPC   C1B42942   5.319   3.725  14.647 -0.1232  0.1862 -0.1150
35993DOPC   D2B42943   5.069   3.911  14.277 -0.0781  0.0146 -0.0366
35993DOPC   C3B42944   5.047   3.796  13.764  0.0952 -0.3273 -0.0685
35993DOPC   C4B42945   5.155   3.889  13.316 -0.0750  0.0950  0.1073
35994DOPC   NC342946  16.563   4.068  14.615  0.1239 -0.4655  0.2528
35994DOPC   PO442947  16.482   4.452  14.678 -0.0746  0.0502 -0.0579
35994DOPC   GL142948  16.482   4.824  14.440 -0.3161  0.3474  0.1998
35994DOPC   GL242949  16.225   4.826  14.442  0.1663 -0.0774  0.0156
35994DOPC   C1A42950  16.665   4.836  14.014  0.3626  0.0302 -0.0222
35994DOPC   D2A42951  16.824   4.812  13.515  0.0126  0.1369 -0.0161
35994DOPC   C3A42952  16.893   4.774  13.119 -0.0524 -0.1636  0.1458
35994DOPC   C4A42953  17.120   4.538  12.769 -0.1314 -0.0132  0.3664
35994DOPC   C1B42954  16.177   4.882  14.036 -0.0517  0.0788 -0.3040
35994DOPC   D2B42955  16.424   5.075  13.627 -0.1069 -0.1536  0.3005
35994DOPC   C3B42956  16.166   5.287  13.297 -0.0409 -0.1197 -0.0379
35994DOPC   C4B42957  16.110   5.033  12.871 -0.0271 -0.2089 -0.0597
35995DOPC   NC342958  15.375   5.130  14.884  0.3280  0.3415  0.0407
35995DOPC   PO442959  15.288   5.525  15.008  0.1553  0.1737 -0.0177
35995DOPC   GL142960  15.166   5.599  14.588  0.2559 -0.0904  0.1707
35995DOPC   GL242961  15.086   5.284  14.533 -0.1395  0.1315 -0.1535
35995DOPC   C1A42962  15.157   5.546  14.118 -0.0199 -0.1841  0.2797
35995DOPC   D2A42963  15.037   5.500  13.621 -0.1786  0.0420 -0.1467
35995DOPC   C3A42964  14.930   5.747  13.233  0.2466  0.0813  0.1110
35995DOPC   C4A42965  14.808   6.020  12.898 -0.1311 -0.2976  0.0151
35995DOPC   C1B42966  15.464   5.201  14.277 -0.0702 -0.1161  0.1141
35995DOPC   D2B42967  15.617   4.859  13.932  0.0854  0.1810  0.2121
35995DOPC   C3B42968  15.339   4.848  13.549 -0.1022  0.1323  0.4114
35995DOPC   C4B42969  15.290   4.954  13.032  0.1153  0.2432 -0.1330
35996DOPC   NC342970  21.578   5.959  14.559 -0.0129 -0.0447  0.1659
35996DOPC   PO442971  21.707   6.238  14.810 -0.2671 -0.0229 -0.0050
35996DOPC   GL142972  21.882   6.480  14.568 -0.0153 -0.0564  0.1236
35996DOPC   GL242973  21.703   6.684  14.530  0.2405  0.1523 -0.0479
35996DOPC   C1A42974  21.989   6.445  14.163 -0.1724  0.3177  0.0337
35996DOPC   D2A42975  22.141   6.615  13.677  0.0524 -0.0464  0.2561
35996DOPC   C3A42976  22.520   6.502  13.489 -0.0234  0.2702 -0.1618
35996DOPC   C4A42977  22.927   6.470  13.191 -0.0945  0.3582 -0.0543
35996DOPC   C1B42978  21.466   6.464  14.195  0.1369  0.0189 -0.2009
35996DOPC   D2B42979  21.096   6.359  13.846 -0.1187 -0.0787  0.3217
35996DOPC   C3B42980  20.950   6.351  13.401 -0.0852  0.0963  0.2947
35996DOPC   C4B42981  20.732   6.308  12.963  0.1366  0.3055 -0.1504
35997DOPC   NC342982  13.826   4.745  15.409 -0.0293  0.1259  0.0033
35997DOPC   PO442983  13.992   4.878  15.087  0.2088 -0.2651  0.3463
35997DOPC   GL142984  13.856   5.081  14.734 -0.1123 -0.2244 -0.0312
35997DOPC   GL242985  13.787   4.941  14.496 -0.1743  0.1132  0.2692
35997DOPC   C1A42986  14.226   5.375  14.702  0.1478 -0.1992  0.0241
35997DOPC   D2A42987  14.653   5.483  14.342  0.3074  0.0139 -0.0346
35997DOPC   C3A42988  14.740   5.222  13.989 -0.1798 -0.0677 -0.0872
35997DOPC   C4A42989  14.876   5.040  13.543 -0.1042 -0.1327  0.2470
35997DOPC   C1B42990  13.555   4.893  14.143 -0.0712 -0.2126 -0.0346
35997DOPC   D2B42991  13.291   4.672  13.740 -0.3504 -0.0983 -0.1577
35997DOPC   C3B42992  12.981   4.880  13.486 -0.1647  0.1350  0.0388
35997DOPC   C4B42993  12.542   4.889  13.274 -0.0232 -0.2987 -0.1349
35998DOPC   NC342994   9.563   1.675  14.935  0.1742  0.3994  0.0407
35998DOPC   PO442995   9.710   1.318  14.974 -0.0701  0.1905  0.1054
35998DOPC   GL142996   9.689   1.290  14.621  0.0436  0.2187 -0.1586
35998DOPC   GL242997   9.397   1.264  14.657 -0.0927  0.0295 -0.2628
35998DOPC   C1A42998   9.828   1.458  14.195  0.0596  0.1317  0.1558
35998DOPC   D2A42999  10.183   1.558  13.827  0.1798  0.1719  0.3419
35998DOPC   C3A43000  10.122   1.517  13.368  0.3306  0.0902 -0.2844
35998DOPC   C4A43001  10.024   1.388  12.884 -0.0244 -0.0311  0.2073
35998DOPC   C1B43002   9.343   1.454  14.357  0.3820 -0.1915  0.1829
35998DOPC   D2B43003   9.151   1.540  13.850  0.0776 -0.1847 -0.0564
35998DOPC   C3B43004   9.260   1.239  13.533  0.0797 -0.3710  0.3729
35998DOPC   C4B43005   9.264   1.005  13.154  0.2899 -0.2724 -0.2721
35999DOPC   NC343006  26.370   3.227  15.265  0.1287 -0.0575 -0.1285
35999DOPC   PO443007  26.653   3.312  14.987 -0.0062 -0.0940  0.2645
35999DOPC   GL143008  26.717   3.289  14.651  0.0887  0.0854  0.0831
35999DOPC   GL243009  26.764   3.566  14.561 -0.2588  0.1756 -0.0386
35999DOPC   C1A43010  26.618   3.250  14.187  0.1529 -0.0992  0.0339
35999DOPC   D2A43011  26.531   2.971  13.878  0.1330 -0.0226 -0.3354
35999DOPC   C3A43012  26.607   2.583  13.633 -0.3292  0.4738 -0.2121
35999DOPC   C4A43013  26.329   2.164  13.592  0.0903 -0.1625 -0.0934
35999DOPC   C1B43014  26.824   3.695  14.115  0.1987 -0.1694 -0.1856
35999DOPC   D2B43015  26.828   3.992  13.705 -0.0537 -0.1799  0.1336
35999DOPC   C3B43016  26.865   4.331  13.365 -0.0483 -0.2030  0.1399
35999DOPC   C4B43017  26.850   4.873  13.321 -0.1716  0.1432 -0.0138
36000DOPC   NC343018   0.592   5.225  15.988  0.0687  0.1208 -0.0422
36000DOPC   PO443019   0.728   5.160  15.615  0.1023  0.1254  0.1242
36000DOPC   GL143020   0.513   5.098  15.267 -0.3071  0.1989 -0.1092
36000DOPC   GL243021   0.597   4.826  15.246  0.5689 -0.2196  0.0243
36000DOPC   C1A43022   0.453   5.384  14.882 -0.1473  0.0411  0.1104
36000DOPC   D2A43023   0.065   5.476  14.607 -0.0224  0.1862 -0.0111
36000DOPC   C3A43024  -0.273   5.474  14.297  0.1291  0.3378  0.1249
36000DOPC   C4A43025  -0.556   5.548  13.966 -0.0389 -0.2953 -0.0234
36000DOPC   C1B43026   0.748   4.642  14.827  0.2726  0.0054 -0.0666
36000DOPC   D2B43027   0.719   4.611  14.315 -0.3360  0.0654 -0.0780
36000DOPC   C3B43028   0.884   4.312  14.034 -0.1791 -0.0614  0.2620
36000DOPC   C4B43029   0.950   4.057  13.634  0.3090  0.2050 -0.3561
36001DOPC   NC343030  20.925   1.235  15.039 -0.0574  0.1749 -0.1234
36001DOPC   PO443031  21.277   1.095  14.954 -0.2627  0.0235 -0.1023
36001DOPC   GL143032  21.465   1.085  14.555  0.3244 -0.3064 -0.2895
36001DOPC   GL243033  21.229   1.333  14.497  0.3692  0.2501 -0.1657
36001DOPC   C1A43034  21.290   0.915  14.172 -0.0245  0.0412 -0.2962
36001DOPC   D2A43035  21.361   0.525  13.929 -0.1750  0.0095 -0.2870
36001DOPC   C3A43036  21.071   0.260  13.629  0.0630 -0.0906  0.0700
36001DOPC   C4A43037  20.597   0.229  13.467  0.0027 -0.1009 -0.5304
36001DOPC   C1B43038  21.311   1.431  14.060  0.0588  0.2005  0.2215
36001DOPC   D2B43039  21.557   1.739  13.727 -0.2373 -0.1039 -0.3026
36001DOPC   C3B43040  21.306   1.742  13.281  0.0085  0.0445 -0.0175
36001DOPC   C4B43041  20.966   1.628  12.912  0.1782  0.1113 -0.0070
36002DOPC   NC343042  13.573   6.090  15.377 -0.1406  0.2065  0.0759
36002DOPC   PO443043  13.202   6.034  15.291  0.1287  0.2800 -0.0002
36002DOPC   GL143044  13.063   6.005  14.846 -0.2270  0.1814 -0.0416
36002DOPC   GL243045  12.923   5.784  14.870 -0.1977  0.2374  0.1181
36002DOPC   C1A43046  13.193   6.229  14.403  0.1778 -0.1563 -0.0191
36002DOPC   D2A43047  13.068   6.281  13.936  0.3294 -0.2150  0.0331
36002DOPC   C3A43048  13.281   6.583  13.636 -0.0205 -0.1649 -0.1021
36002DOPC   C4A43049  13.285   6.798  13.201  0.2821  0.2688  0.1232
36002DOPC   C1B43050  13.007   5.686  14.413 -0.1481 -0.2852  0.2373
36002DOPC   D2B43051  12.876   5.752  13.898 -0.1043 -0.0562  0.0402
36002DOPC   C3B43052  12.583   5.771  13.541 -0.3482 -0.0219 -0.1619
36002DOPC   C4B43053  12.298   5.849  13.188 -0.1939  0.1166 -0.0886
36003DOPC   NC343054   5.041   0.429  15.607 -0.0018 -0.1229  0.1141
36003DOPC   PO443055   5.242   0.320  15.281  0.0665 -0.1819 -0.0269
36003DOPC   GL143056   5.048  -0.055  15.033 -0.0262  0.3831  0.1312
36003DOPC   GL243057   4.808   0.100  15.073  0.4504 -0.1166  0.1823
36003DOPC   C1A43058   5.123  -0.177  14.661 -0.2264 -0.1041 -0.0993
36003DOPC   D2A43059   5.314  -0.575  14.535  0.1764 -0.0595  0.0032
36003DOPC   C3A43060   5.353  -0.640  14.108  0.1742  0.1156 -0.2856
36003DOPC   C4A43061   5.577  -0.643  13.649 -0.0289 -0.1806 -0.2160
36003DOPC   C1B43062   4.808   0.181  14.618 -0.1331  0.3259 -0.1063
36003DOPC   D2B43063   4.541   0.199  14.124 -0.3421  0.2919  0.0025
36003DOPC   C3B43064   4.175  -0.023  13.839 -0.0889  0.0672  0.1620
36003DOPC   C4B43065   4.067  -0.556  13.990  0.1484  0.1340  0.1871
36004DOPC   NC343066  23.623   4.746  14.942  0.1359 -0.0762 -0.1326
36004DOPC   PO443067  23.318   4.979  14.858  0.0727  0.1852 -0.0132
36004DOPC   GL143068  23.138   5.108  14.502  0.0901 -0.0236 -0.4047
36004DOPC   GL243069  22.930   5.085  14.490 -0.5302  0.1258  0.0609
36004DOPC   C1A43070  23.271   5.518  14.354  0.0811  0.1750  0.0732
36004DOPC   D2A43071  23.182   5.963  14.562  0.2629  0.2205 -0.0963
36004DOPC   C3A43072  23.032   6.292  14.256  0.2420 -0.3151 -0.1896
36004DOPC   C4A43073  22.711   6.555  13.968 -0.0250  0.0702 -0.2336
36004DOPC   C1B43074  23.035   5.183  14.052  0.2006  0.5895 -0.4706
36004DOPC   D2B43075  23.140   5.572  13.826 -0.1113 -0.1114  0.2760
36004DOPC   C3B43076  23.336   6.013  13.977  0.3974 -0.1664  0.3644
36004DOPC   C4B43077  23.546   6.430  14.208 -0.0068 -0.0268  0.0721
36005DOPC   NC343078   4.405   7.663  15.698  0.1891 -0.2889 -0.0152
36005DOPC   PO443079   4.642   7.725  15.436  0.1775  0.1268 -0.1008
36005DOPC   GL143080   4.737   7.471  15.180 -0.1971  0.0436 -0.1342
36005DOPC   GL243081   4.983   7.382  15.202  0.1624 -0.1150 -0.1778
36005DOPC   C1A43082   4.596   7.348  14.812  0.1322 -0.0318 -0.3236
36005DOPC   D2A43083   4.355   7.137  14.453  0.2231  0.1298  0.0070
36005DOPC   C3A43084   4.388   6.881  14.014  0.0360  0.0941 -0.1088
36005DOPC   C4A43085   4.207   6.563  13.616 -0.1167  0.1528  0.1733
36005DOPC   C1B43086   5.035   7.048  14.877 -0.0334  0.1752 -0.0949
36005DOPC   D2B43087   4.871   6.945  14.385  0.0357  0.0338 -0.2561
36005DOPC   C3B43088   4.830   7.141  14.016  0.1141  0.0805 -0.3441
36005DOPC   C4B43089   4.511   7.240  13.721  0.1088 -0.2578  0.1321
36006DOPC   NC343090  10.674   3.868  14.793  0.0918 -0.1458  0.0289
36006DOPC   PO443091  10.552   4.311  14.881 -0.0419 -0.1620  0.1584
36006DOPC   GL143092  10.531   4.349  14.515  0.0229  0.0766  0.2121
36006DOPC   GL243093  10.737   4.126  14.422 -0.1773 -0.2136  0.2035
36006DOPC   C1A43094  10.335   4.585  14.189  0.1733  0.0781 -0.0814
36006DOPC   D2A43095  10.239   4.810  13.754  0.3790 -0.0209  0.3483
36006DOPC   C3A43096  10.127   4.886  13.310  0.0419  0.0466 -0.1177
36006DOPC   C4A43097  10.100   5.069  12.844 -0.0870  0.0974  0.0999
36006DOPC   C1B43098  10.629   3.773  14.272 -0.0381 -0.1297  0.1547
36006DOPC   D2B43099  10.568   3.262  14.142 -0.0009  0.1228 -0.0592
36006DOPC   C3B43100  10.472   3.183  13.677 -0.1320 -0.0198 -0.1312
36006DOPC   C4B43101  10.541   2.923  13.284 -0.0993 -0.0497  0.0073
36007DOPC   NC343102  22.895   3.288  15.134  0.1033  0.1082 -0.1928
36007DOPC   PO443103  23.050   3.626  15.226 -0.3822  0.0289  0.3108
36007DOPC   GL143104  23.394   3.806  15.031 -0.0135  0.0780  0.1846
36007DOPC   GL243105  23.336   3.964  15.223  0.0402 -0.2897 -0.0303
36007DOPC   C1A43106  23.713   3.793  14.699 -0.1625 -0.4240 -0.1315
36007DOPC   D2A43107  24.009   3.908  14.314  0.1320  0.0315  0.1770
36007DOPC   C3A43108  24.094   3.755  13.877  0.1988  0.1825  0.2753
36007DOPC   C4A43109  23.953   3.735  13.420  0.0950  0.0125  0.2216
36007DOPC   C1B43110  23.429   4.292  14.849  0.1403 -0.0580 -0.2346
36007DOPC   D2B43111  23.428   4.658  14.487  0.3969  0.3305  0.4592
36007DOPC   C3B43112  23.214   4.545  14.055  0.3189 -0.2196  0.3497
36007DOPC   C4B43113  23.119   4.294  13.604 -0.0874  0.0411 -0.3783
36008DOPC   NC343114  12.828   6.572  15.543 -0.1342 -0.0477 -0.0354
36008DOPC   PO443115  12.932   6.716  15.162 -0.1802 -0.1139  0.4339
36008DOPC   GL143116  13.003   6.561  14.858 -0.0670  0.3769  0.2475
36008DOPC   GL243117  12.841   6.353  14.725 -0.0039 -0.0144 -0.1314
36008DOPC   C1A43118  13.155   6.820  14.489 -0.0627 -0.1051  0.0444
36008DOPC   D2A43119  13.299   6.943  14.015  0.1093 -0.1520  0.0128
36008DOPC   C3A43120  13.568   6.991  13.611 -0.1198  0.0165 -0.2930
36008DOPC   C4A43121  13.943   7.202  13.317  0.2528 -0.2755  0.2319
36008DOPC   C1B43122  12.734   6.281  14.252 -0.2206  0.2165 -0.0992
36008DOPC   D2B43123  12.504   6.133  13.810 -0.2509 -0.0677  0.1523
36008DOPC   C3B43124  12.147   5.942  13.705  0.0360 -0.0623  0.2354
36008DOPC   C4B43125  11.794   5.942  13.339 -0.5253  0.0951  0.0369
36009DOPC   NC343126   6.289   7.761  15.744 -0.0013  0.0020 -0.1819
36009DOPC   PO443127   6.314   7.358  15.607 -0.0984  0.0988 -0.2145
36009DOPC   GL143128   6.113   7.426  15.154 -0.4178  0.0007 -0.0347
36009DOPC   GL243129   6.083   7.620  15.262  0.2497 -0.1730  0.3172
36009DOPC   C1A43130   5.882   7.340  14.769  0.0310 -0.2624  0.1940
36009DOPC   D2A43131   5.764   7.310  14.243 -0.0814 -0.1247  0.0851
36009DOPC   C3A43132   5.939   7.491  13.827  0.0476 -0.0417 -0.3018
36009DOPC   C4A43133   6.299   7.629  13.589 -0.1168  0.3165  0.3784
36009DOPC   C1B43134   5.964   7.870  14.989 -0.0016  0.0527 -0.1137
36009DOPC   D2B43135   5.879   8.198  14.646  0.0625  0.2043  0.1914
36009DOPC   C3B43136   5.712   8.110  14.186 -0.1671  0.3449  0.2303
36009DOPC   C4B43137   5.544   8.106  13.745  0.3752 -0.1209 -0.2888
36010DOPC   NC343138  28.035   3.693  15.029  0.0926 -0.0430 -0.4870
36010DOPC   PO443139  27.676   3.601  15.127 -0.2257  0.0659 -0.1079
36010DOPC   GL143140  27.531   3.465  14.806 -0.2437 -0.2118  0.0393
36010DOPC   GL243141  27.718   3.603  14.615 -0.0695 -0.1800 -0.0376
36010DOPC   C1A43142  27.395   3.044  14.730  0.1664 -0.3791  0.1619
36010DOPC   D2A43143  26.950   2.921  14.529 -0.0127  0.0866  0.2695
36010DOPC   C3A43144  26.801   2.635  14.181  0.1278  0.1039  0.2386
36010DOPC   C4A43145  27.053   2.458  13.826 -0.2613 -0.2233 -0.0309
36010DOPC   C1B43146  27.775   3.445  14.202 -0.0721  0.0567 -0.2701
36010DOPC   D2B43147  27.612   3.195  13.809 -0.0568  0.2111 -0.0476
36010DOPC   C3B43148  27.423   2.905  13.499 -0.0215 -0.0634 -0.2341
36010DOPC   C4B43149  27.240   2.522  13.279 -0.0829  0.5888 -0.0540
36011DOPC   NC343150   9.758   6.672  14.937 -0.0316 -0.3335  0.3031
36011DOPC   PO443151   9.997   6.441  14.683 -0.1150 -0.1961  0.0221
36011DOPC   GL143152   9.838   6.750  14.397  0.1812  0.1568 -0.2584
36011DOPC   GL243153  10.009   6.794  14.308 -0.0618 -0.0788  0.0723
36011DOPC   C1A43154   9.434   6.804  14.131  0.3027  0.0868 -0.3648
36011DOPC   D2A43155   9.052   7.085  13.955 -0.2996 -0.0961 -0.2063
36011DOPC   C3A43156   8.680   7.262  13.700 -0.0384 -0.1644 -0.0008
36011DOPC   C4A43157   8.382   7.405  13.330 -0.0034 -0.1881  0.1970
36011DOPC   C1B43158  10.337   6.733  14.031 -0.1328 -0.2551 -0.0164
36011DOPC   D2B43159  10.535   6.669  13.545 -0.1870  0.0328  0.0927
36011DOPC   C3B43160  10.695   6.754  13.098  0.1444  0.0288 -0.0961
36011DOPC   C4B43161  10.689   6.807  12.582  0.2331  0.1280 -0.2895
36012DOPC   NC343162  25.019   0.364  15.019  0.0856  0.0487  0.0235
36012DOPC   PO443163  25.338   0.595  14.883 -0.2697 -0.1956 -0.0286
36012DOPC   GL143164  25.362   0.449  14.477 -0.1004 -0.2424 -0.0888
36012DOPC   GL243165  25.089   0.306  14.553 -0.4278 -0.2908  0.1578
36012DOPC   C1A43166  25.670   0.497  14.082  0.1056 -0.0870 -0.1323
36012DOPC   D2A43167  25.782   0.776  13.749 -0.0451 -0.0735 -0.2745
36012DOPC   C3A43168  25.695   1.221  13.700 -0.1085  0.0665  0.1491
36012DOPC   C4A43169  25.963   1.593  13.873  0.0808  0.0133  0.0457
36012DOPC   C1B43170  25.038   0.344  14.062  0.1435  0.0974  0.0758
36012DOPC   D2B43171  24.837   0.247  13.618  0.0310 -0.1180  0.0040
36012DOPC   C3B43172  24.757   0.030  13.279  0.2552 -0.2022 -0.0218
36012DOPC   C4B43173  24.750   0.063  12.763  0.2005  0.1955  0.1885
36013DOPC   NC343174   3.263   3.123  15.532 -0.0483  0.0789 -0.0890
36013DOPC   PO443175   3.643   3.161  15.460 -0.2136  0.3559  0.1059
36013DOPC   GL143176   3.959   2.915  15.223  0.1106 -0.0257 -0.1032
36013DOPC   GL243177   3.641   2.950  15.094 -0.3310  0.0396  0.0246
36013DOPC   C1A43178   4.345   3.172  15.085 -0.0014 -0.0418  0.1787
36013DOPC   D2A43179   4.585   3.263  14.693  0.0585 -0.0860 -0.0985
36013DOPC   C3A43180   4.706   3.016  14.327 -0.4032  0.0818 -0.2779
36013DOPC   C4A43181   4.689   2.749  13.947  0.0236 -0.1937 -0.2461
36013DOPC   C1B43182   3.818   3.025  14.704  0.1872  0.0525 -0.2293
36013DOPC   D2B43183   3.859   3.189  14.254 -0.0377 -0.2260  0.2245
36013DOPC   C3B43184   3.871   2.944  13.882 -0.0229  0.2523  0.1995
36013DOPC   C4B43185   3.992   2.814  13.420  0.1080 -0.1396  0.2299
36014DOPC   NC343186  11.130   6.453  14.873 -0.1879 -0.0077 -0.0613
36014DOPC   PO443187  11.310   6.168  14.719  0.0104  0.0117  0.0812
36014DOPC   GL143188  11.157   5.879  14.501 -0.1199 -0.1449 -0.2608
36014DOPC   GL243189  10.903   6.025  14.454 -0.0699 -0.0450 -0.2975
36014DOPC   C1A43190  11.262   5.600  14.176  0.1199 -0.4153  0.0303
36014DOPC   D2A43191  11.236   5.538  13.753 -0.1321 -0.1383  0.0452
36014DOPC   C3A43192  11.095   5.694  13.318 -0.2618  0.2034 -0.1135
36014DOPC   C4A43193  11.278   5.884  12.897 -0.0610  0.2810 -0.0588
36014DOPC   C1B43194  10.669   5.841  14.199 -0.1490 -0.0224  0.2379
36014DOPC   D2B43195  10.327   5.558  13.905 -0.3127  0.3269  0.0633
36014DOPC   C3B43196  10.386   5.276  13.479 -0.1469  0.0086 -0.3383
36014DOPC   C4B43197  10.615   5.131  13.082  0.1687  0.1974 -0.0366
36015DOPC   NC343198   3.514   3.611  15.461  0.0650  0.0108 -0.0477
36015DOPC   PO443199   3.404   3.990  15.329 -0.0328  0.1126  0.1800
36015DOPC   GL143200   3.141   4.114  15.044 -0.1628 -0.0550 -0.0331
36015DOPC   GL243201   3.258   3.902  14.870 -0.3448 -0.1287  0.4154
36015DOPC   C1A43202   2.756   4.207  14.814  0.0333 -0.1136  0.1652
36015DOPC   D2A43203   2.297   4.186  14.600 -0.3268 -0.2012 -0.3280
36015DOPC   C3A43204   2.284   4.057  14.125 -0.2038  0.2237  0.2342
36015DOPC   C4A43205   2.308   3.926  13.602 -0.2308  0.1331 -0.2564
36015DOPC   C1B43206   3.058   3.879  14.525 -0.4119 -0.0254  0.2093
36015DOPC   D2B43207   2.724   4.216  14.292  0.1938 -0.0250  0.3904
36015DOPC   C3B43208   2.671   4.219  13.857  0.1429 -0.1555  0.3147
36015DOPC   C4B43209   2.729   4.113  13.380  0.0065 -0.2158  0.0503
36016DOPC   NC343210  19.546   0.909  14.669  0.3178 -0.3325  0.1470
36016DOPC   PO443211  19.192   1.112  14.616 -0.2396 -0.3250 -0.0679
36016DOPC   GL143212  19.281   1.413  14.376 -0.1268 -0.2099 -0.1244
36016DOPC   GL243213  19.635   1.323  14.398  0.1912  0.0951 -0.0024
36016DOPC   C1A43214  19.418   1.697  14.089  0.0846  0.0104  0.1833
36016DOPC   D2A43215  19.622   1.659  13.654  0.1359 -0.2936  0.0198
36016DOPC   C3A43216  19.405   1.674  13.250  0.0725 -0.1819  0.1290
36016DOPC   C4A43217  19.121   1.580  12.830 -0.0270 -0.2358  0.0853
36016DOPC   C1B43218  19.812   1.370  14.039  0.1471 -0.2873  0.4659
36016DOPC   D2B43219  20.047   1.443  13.602 -0.2273 -0.1662  0.1659
36016DOPC   C3B43220  20.031   1.453  13.140 -0.0039 -0.0131  0.0769
36016DOPC   C4B43221  19.971   1.544  12.669 -0.1721  0.0230  0.1622
36017DOPC   NC343222  11.828   0.017  14.924 -0.0335 -0.3715  0.0941
36017DOPC   PO443223  11.496  -0.039  15.179 -0.0213 -0.1451  0.1411
36017DOPC   GL143224  11.223  -0.133  14.827 -0.1088  0.1021 -0.3764
36017DOPC   GL243225  11.082   0.106  14.856 -0.2799 -0.0043 -0.1451
36017DOPC   C1A43226  11.290  -0.181  14.386 -0.1255 -0.2798  0.1394
36017DOPC   D2A43227  11.410  -0.393  13.955 -0.2510  0.2148 -0.0519
36017DOPC   C3A43228  11.136  -0.305  13.585  0.0651  0.1661  0.0354
36017DOPC   C4A43229  11.002  -0.179  13.127 -0.0448  0.3272 -0.0991
36017DOPC   C1B43230  11.137   0.282  14.422  0.0926  0.0672  0.1802
36017DOPC   D2B43231  11.328   0.116  14.010 -0.0354  0.0259 -0.1722
36017DOPC   C3B43232  11.090   0.177  13.632  0.2435  0.0310  0.0853
36017DOPC   C4B43233  10.813   0.286  13.188 -0.0997  0.0045 -0.0887
36018DOPC   NC343234  13.201   4.285  15.058 -0.1994 -0.1514 -0.1524
36018DOPC   PO443235  13.550   4.452  15.162  0.2221  0.0855 -0.0277
36018DOPC   GL143236  13.715   4.644  14.823  0.1716  0.2337  0.1312
36018DOPC   GL243237  13.842   4.408  14.748  0.0223  0.1237  0.1357
36018DOPC   C1A43238  13.376   4.556  14.491 -0.0092  0.0537 -0.1204
36018DOPC   D2A43239  13.237   4.284  14.065  0.2354  0.0421 -0.0673
36018DOPC   C3A43240  12.974   4.013  13.723 -0.3024 -0.0608  0.0562
36018DOPC   C4A43241  12.730   3.637  13.599 -0.1729  0.2063  0.1111
36018DOPC   C1B43242  13.882   4.460  14.365 -0.2633 -0.2793 -0.2255
36018DOPC   D2B43243  13.868   4.594  13.887 -0.0948  0.0622 -0.2496
36018DOPC   C3B43244  14.159   4.666  13.534 -0.0115 -0.2704  0.0747
36018DOPC   C4B43245  14.384   4.863  13.192 -0.0700 -0.2029 -0.0636
36019DOPC   NC343246   3.882   4.187  15.535 -0.0946 -0.0956  0.0339
36019DOPC   PO443247   3.933   3.864  15.332 -0.1341 -0.0878  0.2932
36019DOPC   GL143248   3.765   4.029  15.009 -0.1517 -0.1208  0.0474
36019DOPC   GL243249   3.992   3.860  14.860  0.1548  0.3518  0.0936
36019DOPC   C1A43250   3.616   4.091  14.618  0.1066 -0.0087 -0.1079
36019DOPC   D2A43251   3.433   3.887  14.213  0.0204  0.0825 -0.1949
36019DOPC   C3A43252   3.102   3.975  13.853  0.1013 -0.0878  0.0389
36019DOPC   C4A43253   2.766   3.658  13.679 -0.1974 -0.0069 -0.0154
36019DOPC   C1B43254   4.222   3.851  14.458  0.1047  0.1188  0.0242
36019DOPC   D2B43255   4.431   3.877  13.955 -0.1197  0.0284  0.1291
36019DOPC   C3B43256   4.180   3.705  13.653  0.0655  0.2764 -0.0880
36019DOPC   C4B43257   3.855   3.725  13.317 -0.0437  0.2959 -0.0461
36020DOPC   NC343258  25.678   6.804  15.078 -0.2211 -0.1454  0.0670
36020DOPC   PO443259  25.571   6.876  14.715 -0.0492  0.0486 -0.2906
36020DOPC   GL143260  25.570   6.714  14.364 -0.2444  0.2374  0.1508
36020DOPC   GL243261  25.621   6.423  14.334 -0.1055  0.1379  0.0385
36020DOPC   C1A43262  25.261   6.648  13.996  0.2142 -0.0635  0.0728
36020DOPC   D2A43263  24.946   6.622  13.617  0.1301  0.1898 -0.3727
36020DOPC   C3A43264  24.975   6.501  13.142 -0.0947 -0.3465  0.0574
36020DOPC   C4A43265  24.798   6.579  12.645  0.2115  0.0272 -0.2012
36020DOPC   C1B43266  25.819   6.583  13.929  0.3891 -0.0758 -0.1944
36020DOPC   D2B43267  26.055   6.453  13.495 -0.2067 -0.1628  0.0338
36020DOPC   C3B43268  25.973   6.482  13.090 -0.1145 -0.5027  0.0426
36020DOPC   C4B43269  25.823   6.344  12.599  0.2003 -0.0563 -0.3499
36021DOPC   NC343270  23.348   0.319  14.651 -0.0464 -0.1777 -0.0525
36021DOPC   PO443271  22.955   0.269  14.662  0.0175 -0.2393  0.2686
36021DOPC   GL143272  22.785  -0.032  14.413  0.0459 -0.1319 -0.4510
36021DOPC   GL243273  23.101  -0.095  14.350  0.0921 -0.2953 -0.4132
36021DOPC   C1A43274  22.654  -0.128  13.975  0.1188 -0.0472  0.0490
36021DOPC   D2A43275  22.549  -0.199  13.533  0.2772 -0.1938  0.2214
36021DOPC   C3A43276  22.699  -0.058  13.143  0.0547  0.2136  0.0908
36021DOPC   C4A43277  22.753  -0.291  12.681 -0.1269 -0.0460  0.2044
36021DOPC   C1B43278  23.172  -0.142  13.949 -0.1428 -0.1221  0.1910
36021DOPC   D2B43279  23.035  -0.325  13.427 -0.2507 -0.0603 -0.2425
36021DOPC   C3B43280  22.716  -0.537  13.146  0.0121  0.1013 -0.2518
36021DOPC   C4B43281  22.369  -0.675  12.832  0.3117 -0.2847 -0.0842
36022DOPC   NC343282  28.864   3.851  15.145  0.2524 -0.0423  0.3018
36022DOPC   PO443283  28.536   3.597  15.172  0.3237  0.0629 -0.4297
36022DOPC   GL143284  28.428   3.596  14.804 -0.0684 -0.2441 -0.2667
36022DOPC   GL243285  28.481   3.896  14.679  0.3668  0.0927 -0.1438
36022DOPC   C1A43286  28.215   3.457  14.506  0.5574  0.1494  0.0745
36022DOPC   D2A43287  28.372   3.155  14.135  0.2311  0.0868 -0.0009
36022DOPC   C3A43288  28.717   2.850  14.190 -0.1421 -0.1405  0.1450
36022DOPC   C4A43289  29.194   2.650  14.084  0.0189 -0.1383 -0.1894
36022DOPC   C1B43290  28.393   4.005  14.246  0.1338  0.1150 -0.4208
36022DOPC   D2B43291  28.317   4.005  13.738 -0.0287  0.0988 -0.2987
36022DOPC   C3B43292  28.443   4.228  13.415  0.1960 -0.0245  0.0928
36022DOPC   C4B43293  28.852   4.408  13.017  0.0014 -0.1683 -0.0465
36023DOPC   NC343294  12.763   0.592  15.181  0.0011 -0.1412 -0.1506
36023DOPC   PO443295  12.462   0.787  15.023  0.2516  0.0321  0.0497
36023DOPC   GL143296  12.266   0.935  14.703  0.1683 -0.4585  0.1759
36023DOPC   GL243297  12.491   1.159  14.630 -0.1011 -0.0007  0.2392
36023DOPC   C1A43298  12.012   0.769  14.337  0.0229 -0.0062  0.2201
36023DOPC   D2A43299  11.833   0.856  13.817 -0.0593  0.1742 -0.3965
36023DOPC   C3A43300  11.662   0.395  13.790 -0.0114  0.0841  0.1439
36023DOPC   C4A43301  11.544  -0.049  13.557  0.0058 -0.2177  0.1904
36023DOPC   C1B43302  12.200   1.236  14.276  0.1329 -0.3240  0.1384
36023DOPC   D2B43303  12.040   1.352  13.806  0.1335 -0.0249  0.1093
36023DOPC   C3B43304  12.068   1.177  13.354  0.1334 -0.0931  0.1267
36023DOPC   C4B43305  11.808   1.200  12.925 -0.0103 -0.2937  0.4572
36024DOPC   NC343306  28.849   1.863  15.423 -0.1695 -0.6933  0.2158
36024DOPC   PO443307  28.733   1.506  15.278  0.0980  0.0917 -0.0473
36024DOPC   GL143308  28.750   1.553  14.872  0.4223  0.1209  0.1619
36024DOPC   GL243309  28.606   1.315  14.776 -0.0786  0.3770  0.7123
36024DOPC   C1A43310  28.859   1.774  14.409 -0.0035 -0.1119 -0.0518
36024DOPC   D2A43311  28.826   1.860  13.895 -0.2084  0.0627  0.3197
36024DOPC   C3A43312  28.905   1.434  13.880 -0.0500  0.0977 -0.2006
36024DOPC   C4A43313  29.138   1.007  13.795  0.3388 -0.2230 -0.2108
36024DOPC   C1B43314  28.690   1.284  14.324  0.2974 -0.0377 -0.0314
36024DOPC   D2B43315  28.466   1.043  13.913  0.3167 -0.0123  0.1396
36024DOPC   C3B43316  28.570   0.671  13.720 -0.2660 -0.1854 -0.0439
36024DOPC   C4B43317  28.872   0.367  13.363 -0.0632 -0.1655 -0.0600
36025DOPC   NC343318  20.718   3.564  15.043 -0.0549  0.0719  0.2800
36025DOPC   PO443319  20.970   3.831  14.858  0.1866 -0.2200 -0.3537
36025DOPC   GL143320  20.960   3.823  14.463  0.1083  0.1235 -0.1250
36025DOPC   GL243321  20.881   4.110  14.450 -0.0297 -0.3358  0.3078
36025DOPC   C1A43322  20.717   3.571  14.121  0.0509 -0.0959  0.2302
36025DOPC   D2A43323  20.386   3.498  13.682 -0.0762  0.0836  0.0385
36025DOPC   C3A43324  20.312   3.316  13.341 -0.0653  0.0231 -0.0424
36025DOPC   C4A43325  20.367   3.177  12.858  0.1161  0.0673 -0.1657
36025DOPC   C1B43326  20.804   4.157  14.050  0.0272  0.1253  0.1306
36025DOPC   D2B43327  20.786   4.506  13.628 -0.0825  0.1375 -0.1721
36025DOPC   C3B43328  20.887   4.657  13.147 -0.1610 -0.1230  0.0115
36025DOPC   C4B43329  20.770   4.877  12.754 -0.0677  0.2149  0.0479
36026DOPC   NC343330   7.178   1.368  15.020 -0.1475 -0.1726  0.1073
36026DOPC   PO443331   7.284   1.087  14.800  0.0597 -0.1467 -0.0859
36026DOPC   GL143332   7.275   1.139  14.388  0.1465  0.1202 -0.1370
36026DOPC   GL243333   7.205   0.831  14.343 -0.2628 -0.0501 -0.1966
36026DOPC   C1A43334   7.224   1.397  14.030 -0.5464 -0.0540 -0.1375
36026DOPC   D2A43335   7.566   1.516  13.684 -0.0670 -0.0634 -0.1707
36026DOPC   C3A43336   7.812   1.368  13.325  0.1742  0.1191 -0.2040
36026DOPC   C4A43337   8.165   1.264  12.948 -0.0187  0.0044 -0.1579
36026DOPC   C1B43338   7.213   0.625  13.946 -0.1344 -0.1349  0.0606
36026DOPC   D2B43339   7.313   0.223  13.633  0.3144 -0.0860  0.0932
36026DOPC   C3B43340   7.593  -0.174  13.563 -0.1058 -0.4030  0.0923
36026DOPC   C4B43341   7.874  -0.570  13.478  0.0948 -0.0370 -0.1247
36027DOPC   NC343342  12.854   2.869  15.538  0.0458 -0.0401  0.0401
36027DOPC   PO443343  13.006   2.850  15.172 -0.0467  0.2192  0.2793
36027DOPC   GL143344  12.915   2.970  14.807 -0.0433 -0.1152  0.4070
36027DOPC   GL243345  13.162   2.863  14.637  0.1072  0.0888 -0.3571
36027DOPC   C1A43346  12.626   2.970  14.451 -0.1769 -0.1152 -0.0297
36027DOPC   D2A43347  12.630   2.797  13.974 -0.0927 -0.2062 -0.2612
36027DOPC   C3A43348  12.609   2.965  13.599  0.1429  0.0674  0.1720
36027DOPC   C4A43349  12.889   3.261  13.341 -0.2672  0.0461  0.1750
36027DOPC   C1B43350  13.178   2.889  14.236 -0.1249  0.0351  0.6025
36027DOPC   D2B43351  13.081   2.801  13.717 -0.0824 -0.0350  0.1396
36027DOPC   C3B43352  13.156   2.404  13.530  0.2214 -0.0442 -0.1806
36027DOPC   C4B43353  13.208   2.133  13.086 -0.3694  0.0671 -0.1684
36028DOPC   NC343354  24.690   4.766  15.301 -0.0196 -0.2899 -0.2796
36028DOPC   PO443355  24.927   5.065  15.214 -0.1302  0.2196 -0.1404
36028DOPC   GL143356  24.876   5.182  14.801  0.0188 -0.1671 -0.3336
36028DOPC   GL243357  24.653   5.084  14.825 -0.0681  0.1992  0.3170
36028DOPC   C1A43358  24.988   5.060  14.524 -0.1849  0.1426 -0.0840
36028DOPC   D2A43359  24.834   4.972  14.061  0.2167 -0.0932  0.0238
36028DOPC   C3A43360  24.627   4.608  13.824  0.1778  0.0853  0.1175
36028DOPC   C4A43361  24.627   4.174  13.538 -0.0624 -0.1556  0.0547
36028DOPC   C1B43362  24.478   4.944  14.431  0.0088  0.1714 -0.0661
36028DOPC   D2B43363  24.318   5.074  13.990 -0.0275  0.0524  0.0622
36028DOPC   C3B43364  24.505   5.095  13.528  0.1590  0.0065  0.2089
36028DOPC   C4B43365  24.642   5.005  13.042 -0.2366 -0.1415  0.1695
36029DOPC   NC343366  29.638   6.557  15.484  0.0441  0.1119 -0.1498
36029DOPC   PO443367  29.800   6.161  15.572 -0.1012 -0.1593  0.0195
36029DOPC   GL143368  29.987   6.160  15.188 -0.0801  0.0676  0.3121
36029DOPC   GL243369  29.913   6.415  15.079  0.5067  0.2102 -0.0673
36029DOPC   C1A43370  30.367   6.299  14.938 -0.3281 -0.0270 -0.1840
36029DOPC   D2A43371  30.721   6.285  14.544 -0.1500  0.0383 -0.2475
36029DOPC   C3A43372  30.619   6.114  14.129 -0.0591 -0.1311  0.2138
36029DOPC   C4A43373  30.563   5.891  13.670  0.0417 -0.0263  0.0887
36029DOPC   C1B43374  29.984   6.475  14.661 -0.0409 -0.1457  0.0102
36029DOPC   D2B43375  30.196   6.443  14.173  0.0036 -0.0989  0.2192
36029DOPC   C3B43376  29.989   6.397  13.728  0.0001  0.5162  0.3665
36029DOPC   C4B43377  30.020   6.508  13.268  0.0729  0.4004  0.1889
36030DOPC   NC343378  18.313   7.737  14.534  0.2373 -0.0886 -0.0757
36030DOPC   PO443379  18.074   7.476  14.450  0.1565  0.0005 -0.0118
36030DOPC   GL143380  18.008   7.477  14.040  0.0642  0.3468 -0.3250
36030DOPC   GL243381  17.913   7.717  14.078  0.1227 -0.0818  0.0194
36030DOPC   C1A43382  18.106   7.542  13.624 -0.1686 -0.0965  0.3024
36030DOPC   D2A43383  18.078   7.595  13.128 -0.1147 -0.1156  0.0065
36030DOPC   C3A43384  18.020   7.882  12.728 -0.2195 -0.0486 -0.2137
36030DOPC   C4A43385  17.779   8.293  12.769  0.1629 -0.2186  0.1362
36030DOPC   C1B43386  17.806   7.915  13.659  0.1029  0.3454 -0.2361
36030DOPC   D2B43387  17.527   8.085  13.361 -0.1372 -0.1812  0.3715
36030DOPC   C3B43388  17.657   8.500  13.314 -0.0481  0.0377 -0.0075
36030DOPC   C4B43389  17.882   8.902  13.331 -0.3414 -0.1402  0.2345
36031DOPC   NC343390   5.872   2.899  15.383  0.0606  0.0897  0.0406
36031DOPC   PO443391   6.108   2.743  15.108 -0.0740  0.0371  0.1487
36031DOPC   GL143392   6.150   2.617  14.658 -0.0502 -0.4917 -0.0232
36031DOPC   GL243393   6.363   2.764  14.692 -0.2016  0.1352 -0.1777
36031DOPC   C1A43394   6.158   2.208  14.490 -0.0150  0.0516 -0.0423
36031DOPC   D2A43395   6.026   2.001  14.037  0.3455 -0.1412 -0.1693
36031DOPC   C3A43396   5.959   1.750  13.688 -0.1060  0.3288  0.0409
36031DOPC   C4A43397   6.047   1.509  13.315 -0.0941 -0.2300  0.0561
36031DOPC   C1B43398   6.478   2.905  14.243 -0.3725  0.0545 -0.1262
36031DOPC   D2B43399   6.562   2.968  13.731 -0.3644  0.2370  0.3119
36031DOPC   C3B43400   6.629   3.175  13.369 -0.0432 -0.2497  0.3480
36031DOPC   C4B43401   6.782   3.088  12.903 -0.0486 -0.0289  0.2176
36032DOPC   NC343402  16.847   2.019  14.775 -0.1096 -0.2028 -0.2576
36032DOPC   PO443403  16.691   1.759  15.020  0.3260 -0.0843  0.0846
36032DOPC   GL143404  16.472   1.629  14.690 -0.0894 -0.1748  0.0531
36032DOPC   GL243405  16.487   1.804  14.535 -0.1976 -0.2839  0.3008
36032DOPC   C1A43406  16.091   1.461  14.587 -0.1804 -0.0989 -0.0046
36032DOPC   D2A43407  15.628   1.286  14.594 -0.0279  0.2247  0.0954
36032DOPC   C3A43408  15.355   1.493  14.319 -0.1441  0.0105  0.0109
36032DOPC   C4A43409  15.297   1.690  13.933  0.4431  0.1242 -0.1006
36032DOPC   C1B43410  16.822   1.707  14.270  0.0539  0.1565  0.0747
36032DOPC   D2B43411  17.135   1.703  13.898  0.1342  0.0365  0.1586
36032DOPC   C3B43412  16.979   1.723  13.464  0.1122  0.1476  0.0748
36032DOPC   C4B43413  16.723   1.896  13.061 -0.3593  0.1431  0.1941
36033DOPC   NC343414   5.149   2.713  15.361 -0.1817  0.2954 -0.1748
36033DOPC   PO443415   5.397   2.996  15.445 -0.0147 -0.0832  0.3128
36033DOPC   GL143416   5.424   3.054  15.080 -0.4047  0.1929  0.0669
36033DOPC   GL243417   5.301   2.913  14.914 -0.0256 -0.0848 -0.0502
36033DOPC   C1A43418   5.589   3.315  14.772 -0.0602 -0.2782 -0.1029
36033DOPC   D2A43419   5.641   3.358  14.335 -0.0752  0.1221  0.0571
36033DOPC   C3A43420   6.001   3.022  14.382  0.1155 -0.0584  0.3359
36033DOPC   C4A43421   6.398   3.262  14.610 -0.0410 -0.3227  0.2010
36033DOPC   C1B43422   5.278   2.955  14.434 -0.1752  0.0474  0.0352
36033DOPC   D2B43423   5.181   3.013  13.945 -0.2903  0.0738  0.1947
36033DOPC   C3B43424   4.900   3.351  13.713 -0.2157 -0.1333 -0.0048
36033DOPC   C4B43425   4.586   3.419  13.304  0.2435 -0.0208  0.0190
36034DOPC   NC343426   9.173   6.021  14.621 -0.0647 -0.0050 -0.1541
36034DOPC   PO443427   9.472   6.292  14.757  0.0421  0.0961  0.0799
36034DOPC   GL143428   9.551   6.418  14.363 -0.6277 -0.1848 -0.1695
36034DOPC   GL243429   9.848   6.292  14.280  0.1374 -0.2698 -0.2092
36034DOPC   C1A43430   9.243   6.389  14.120  0.2246  0.2746  0.0033
36034DOPC   D2A43431   9.148   6.399  13.658 -0.1829 -0.0236 -0.1253
36034DOPC   C3A43432   9.221   6.651  13.209  0.1726  0.1854  0.1342
36034DOPC   C4A43433   9.242   7.078  12.972  0.0527 -0.1155  0.0400
36034DOPC   C1B43434   9.861   6.522  13.934 -0.2716  0.1134  0.0448
36034DOPC   D2B43435  10.021   6.715  13.515  0.3589 -0.0532  0.1792
36034DOPC   C3B43436  10.147   6.894  13.155 -0.0493  0.0534 -0.0952
36034DOPC   C4B43437  10.170   7.099  12.719 -0.1484 -0.2623  0.1110
36035DOPC   NC343438  28.237   7.466  15.337  0.0347 -0.1493 -0.0733
36035DOPC   PO443439  28.606   7.550  15.413 -0.2117 -0.1836  0.0080
36035DOPC   GL143440  28.651   7.550  15.066  0.2605 -0.0236  0.1215
36035DOPC   GL243441  28.566   7.335  14.982 -0.0758 -0.2391  0.0278
36035DOPC   C1A43442  28.850   7.906  14.899  0.3698 -0.1649  0.2879
36035DOPC   D2A43443  29.047   8.294  14.579 -0.1663  0.0103  0.2157
36035DOPC   C3A43444  29.204   8.725  14.493 -0.0212  0.1597 -0.2542
36035DOPC   C4A43445  29.606   8.761  14.207  0.1234 -0.2551 -0.4578
36035DOPC   C1B43446  28.809   7.206  14.640 -0.2144 -0.1401  0.0507
36035DOPC   D2B43447  28.850   7.136  14.176 -0.2987 -0.1739  0.0477
36035DOPC   C3B43448  28.555   7.062  13.817 -0.0733  0.0197  0.0083
36035DOPC   C4B43449  28.394   6.743  13.484 -0.1503 -0.1439  0.0723
36036DOPC   NC343450  23.148   1.311  15.240  0.3962  0.0053  0.1723
36036DOPC   PO443451  22.965   1.014  15.055 -0.1303 -0.0651 -0.0849
36036DOPC   GL143452  22.943   0.859  14.674 -0.4446  0.1314  0.1233
36036DOPC   GL243453  23.111   1.136  14.663 -0.1652  0.0451 -0.0986
36036DOPC   C1A43454  22.648   0.782  14.352 -0.1944  0.2687 -0.0564
36036DOPC   D2A43455  22.478   0.502  13.979  0.0889  0.1948  0.1164
36036DOPC   C3A43456  22.565   0.361  13.552  0.1731  0.1538 -0.1943
36036DOPC   C4A43457  22.754   0.478  13.148 -0.1451 -0.2647  0.0224
36036DOPC   C1B43458  23.184   1.310  14.277 -0.0758  0.1895 -0.0902
36036DOPC   D2B43459  23.284   1.575  13.858 -0.0952 -0.1903  0.0403
36036DOPC   C3B43460  23.508   2.020  13.826  0.0060 -0.0909  0.0461
36036DOPC   C4B43461  23.225   2.513  13.910 -0.0209 -0.1548  0.2488
36037DOPS   CNO43462  23.767   7.141  15.291  0.2824 -0.0054 -0.1294
36037DOPS   PO443463  24.070   7.149  15.037  0.0102 -0.2772 -0.0093
36037DOPS   GL143464  24.254   7.496  14.785 -0.2772 -0.2376 -0.1886
36037DOPS   GL243465  24.335   7.178  14.716  0.5560 -0.1349  0.1042
36037DOPS   C1A43466  24.053   7.628  14.378 -0.0392 -0.2875 -0.2127
36037DOPS   D2A43467  23.898   7.863  13.955 -0.0208 -0.0832  0.1818
36037DOPS   C3A43468  23.545   8.030  13.649 -0.0631  0.1075 -0.3287
36037DOPS   C4A43469  23.182   8.030  13.356  0.0210 -0.0418 -0.0709
36037DOPS   C1B43470  24.406   7.035  14.270 -0.1187 -0.0808 -0.1965
36037DOPS   D2B43471  24.598   7.042  13.846 -0.0010  0.0185  0.2918
36037DOPS   C3B43472  24.317   7.006  13.486  0.1039  0.1170  0.0198
36037DOPS   C4B43473  23.898   7.042  13.422  0.2423  0.1995  0.1901
36038DOPS   CNO43474  20.351   1.650  15.186  0.0069 -0.0404 -0.2788
36038DOPS   PO443475  20.726   1.678  15.034  0.3852 -0.2830  0.0843
36038DOPS   GL143476  20.783   1.652  14.609 -0.1865 -0.2017 -0.2791
36038DOPS   GL243477  20.771   1.414  14.550 -0.0020  0.2482  0.0291
36038DOPS   C1A43478  21.037   1.872  14.304  0.2709  0.1035  0.0920
36038DOPS   D2A43479  21.148   2.014  13.838 -0.5815 -0.0560 -0.0087
36038DOPS   C3A43480  20.901   2.028  13.395 -0.0523 -0.0266  0.1989
36038DOPS   C4A43481  20.675   2.150  12.965 -0.0456 -0.1991 -0.0083
36038DOPS   C1B43482  20.829   1.473  14.100 -0.1712 -0.1647  0.0994
36038DOPS   D2B43483  20.908   1.597  13.616  0.0597  0.2207 -0.2847
36038DOPS   C3B43484  21.013   1.277  13.266  0.0277 -0.0604  0.2092
36038DOPS   C4B43485  21.220   1.025  12.803  0.0752 -0.1185 -0.0735
36039DOPS   CNO43486  27.588   7.797  15.521  0.0596  0.0265 -0.2066
36039DOPS   PO443487  27.913   7.871  15.365  0.1880 -0.2263  0.4327
36039DOPS   GL143488  28.004   8.155  15.075  0.0144 -0.0591  0.1070
36039DOPS   GL243489  27.784   8.231  14.965 -0.0038 -0.1973  0.0962
36039DOPS   C1A43490  28.353   8.255  14.774 -0.2525 -0.0738 -0.2185
36039DOPS   D2A43491  28.624   8.162  14.367  0.1414 -0.2156 -0.1578
36039DOPS   C3A43492  28.474   7.951  13.955  0.2250 -0.0929 -0.1732
36039DOPS   C4A43493  28.238   8.034  13.472  0.1083  0.3181 -0.0822
36039DOPS   C1B43494  27.569   7.979  14.568 -0.1834  0.3304 -0.1908
36039DOPS   D2B43495  27.606   7.894  14.050 -0.3078  0.3006  0.0838
36039DOPS   C3B43496  27.905   7.718  13.743 -0.1139  0.0375 -0.2693
36039DOPS   C4B43497  28.001   7.751  13.246  0.0476  0.0114 -0.1772
36040DOPS   CNO43498  30.950   2.652  15.523  0.1227  0.0345 -0.1132
36040DOPS   PO443499  31.072   3.004  15.490 -0.1639  0.2226  0.1144
36040DOPS   GL143500  31.244   2.908  15.202  0.2948 -0.0451 -0.0536
36040DOPS   GL243501  31.119   2.767  15.014 -0.0633  0.5170  0.1233
36040DOPS   C1A43502  31.670   2.983  15.057 -0.0648  0.1093 -0.2811
36040DOPS   D2A43503  31.711   3.200  14.644  0.0650 -0.0496 -0.1621
36040DOPS   C3A43504  31.431   3.141  14.227  0.2183 -0.0597 -0.4323
36040DOPS   C4A43505  31.071   3.153  13.934 -0.0743  0.3976  0.3305
36040DOPS   C1B43506  31.442   2.564  14.873 -0.0934  0.0279  0.1900
36040DOPS   D2B43507  31.775   2.222  14.733 -0.3534  0.0475 -0.0487
36040DOPS   C3B43508  32.030   2.306  14.304 -0.1062  0.0809 -0.1010
36040DOPS   C4B43509  32.308   2.061  13.966 -0.0788 -0.1625 -0.1461
36041DOPS   CNO43510  26.845   5.016  14.700 -0.6361 -0.0842 -0.0513
36041DOPS   PO443511  27.077   5.157  14.960 -0.0414  0.1689 -0.1056
36041DOPS   GL143512  27.402   5.159  14.638  0.4085  0.1498  0.0580
36041DOPS   GL243513  27.266   4.924  14.535  0.1402 -0.2243 -0.2296
36041DOPS   C1A43514  27.731   5.398  14.554 -0.0383  0.4773 -0.1294
36041DOPS   D2A43515  28.167   5.297  14.406  0.0869  0.0596 -0.2746
36041DOPS   C3A43516  28.055   5.322  13.927  0.0203  0.1749 -0.1243
36041DOPS   C4A43517  27.714   5.493  13.594  0.0272 -0.1371 -0.0332
36041DOPS   C1B43518  27.074   4.987  14.195 -0.2146  0.0095 -0.2991
36041DOPS   D2B43519  26.870   5.156  13.709 -0.0249  0.1608  0.1881
36041DOPS   C3B43520  26.805   5.366  13.248  0.2651 -0.1502 -0.1903
36041DOPS   C4B43521  26.632   5.395  12.823  0.0907  0.0914  0.0517
36042DOPS   CNO43522  29.416   7.057  15.604 -0.1200  0.0546  0.2237
36042DOPS   PO443523  29.764   7.125  15.587  0.2515  0.0236  0.0525
36042DOPS   GL143524  29.600   7.336  15.264 -0.0613  0.1653  0.5158
36042DOPS   GL243525  29.427   7.166  15.127 -0.1282  0.2571 -0.1110
36042DOPS   C1A43526  29.962   7.349  15.022 -0.0724 -0.2292  0.3910
36042DOPS   D2A43527  30.176   7.304  14.590 -0.0423  0.0506  0.3161
36042DOPS   C3A43528  30.656   7.259  14.449 -0.2393  0.0317 -0.0745
36042DOPS   C4A43529  30.981   7.185  14.066 -0.0324  0.2770 -0.1426
36042DOPS   C1B43530  29.410   7.356  14.741 -0.0611  0.0510  0.1133
36042DOPS   D2B43531  29.306   7.441  14.238  0.0549 -0.1548  0.1340
36042DOPS   C3B43532  29.098   7.373  13.815  0.1928  0.0122 -0.2396
36042DOPS   C4B43533  28.872   7.131  13.418 -0.2114 -0.0933  0.0543
36043DOPS   CNO43534   2.471   6.402  16.332 -0.0394 -0.0578  0.3009
36043DOPS   PO443535   2.424   6.229  16.042  0.0602 -0.4613  0.3035
36043DOPS   GL143536   2.469   6.316  15.665  0.0718  0.2707  0.1217
36043DOPS   GL243537   2.566   6.583  15.547 -0.1377  0.3403  0.1331
36043DOPS   C1A43538   2.398   6.078  15.316 -0.2856 -0.0326 -0.0471
36043DOPS   D2A43539   2.223   6.042  14.837  0.0690  0.2420 -0.1808
36043DOPS   C3A43540   2.128   6.062  14.371  0.3979 -0.0758 -0.0926
36043DOPS   C4A43541   2.057   6.113  13.921 -0.3794  0.4269  0.1569
36043DOPS   C1B43542   2.543   6.532  15.076 -0.1704  0.2396  0.2419
36043DOPS   D2B43543   2.630   6.488  14.611 -0.0992 -0.1014 -0.0187
36043DOPS   C3B43544   2.576   6.757  14.216 -0.1657  0.1335 -0.2055
36043DOPS   C4B43545   2.398   6.936  13.805  0.0588  0.0113  0.1829
36044DOPS   CNO43546  16.188   0.075  15.292 -0.2947  0.4829 -0.1754
36044DOPS   PO443547  16.485   0.045  15.066 -0.0816 -0.0043  0.4424
36044DOPS   GL143548  16.390   0.184  14.709  0.1512 -0.1802 -0.2267
36044DOPS   GL243549  16.097   0.251  14.721  0.2453  0.2379 -0.0868
36044DOPS   C1A43550  16.484   0.391  14.347 -0.0332 -0.1152  0.0128
36044DOPS   D2A43551  16.301   0.346  13.870 -0.5382  0.2892  0.2141
36044DOPS   C3A43552  16.057   0.106  13.579  0.1824  0.1464  0.0585
36044DOPS   C4A43553  15.741   0.150  13.205 -0.0493  0.2196 -0.3362
36044DOPS   C1B43554  16.001   0.367  14.345 -0.1285  0.1309 -0.1623
36044DOPS   D2B43555  15.806   0.434  13.993 -0.3676 -0.1525 -0.0821
36044DOPS   C3B43556  15.707   0.544  13.575 -0.0596  0.2603  0.0140
36044DOPS   C4B43557  15.818   0.836  13.243 -0.0332 -0.1080  0.0935
36045DOPS   CNO43558  17.609   6.576  14.891  0.0269 -0.0654 -0.2460
36045DOPS   PO443559  17.480   6.878  14.721  0.0883 -0.1561  0.2427
36045DOPS   GL143560  17.452   6.815  14.299 -0.1558  0.2976 -0.0119
36045DOPS   GL243561  17.549   6.563  14.341 -0.1207  0.0607 -0.0612
36045DOPS   C1A43562  17.174   6.842  13.973 -0.2578  0.1828  0.1184
36045DOPS   D2A43563  17.198   6.972  13.478 -0.2223 -0.1139  0.2537
36045DOPS   C3A43564  17.265   6.611  13.199 -0.0135  0.3040 -0.0538
36045DOPS   C4A43565  17.319   6.139  13.002 -0.0838 -0.0199 -0.0611
36045DOPS   C1B43566  17.868   6.521  13.975 -0.0266 -0.1958  0.1948
36045DOPS   D2B43567  18.180   6.579  13.575 -0.0787 -0.1313 -0.1128
36045DOPS   C3B43568  18.228   6.396  13.092 -0.0669  0.1151 -0.2312
36045DOPS   C4B43569  18.241   6.634  12.681 -0.2088  0.0508  0.0933
36046DOPS   CNO43570  30.882   3.455  15.591 -0.1258 -0.0903  0.0718
36046DOPS   PO443571  31.034   3.773  15.465  0.2797 -0.0199  0.1533
36046DOPS   GL143572  30.924   3.892  15.105  0.1021  0.0401  0.1802
36046DOPS   GL243573  30.668   4.106  15.137 -0.1286 -0.2495 -0.2511
36046DOPS   C1A43574  30.904   3.792  14.692  0.2313  0.2274 -0.3772
36046DOPS   D2A43575  30.898   3.895  14.232 -0.0328 -0.1106  0.0505
36046DOPS   C3A43576  30.593   3.989  13.868  0.3053  0.3048  0.0512
36046DOPS   C4A43577  30.487   4.208  13.475  0.2845  0.0949 -0.0685
36046DOPS   C1B43578  30.498   4.093  14.759  0.1308 -0.0983  0.0507
36046DOPS   D2B43579  30.445   4.206  14.323 -0.0430  0.0704  0.1583
36046DOPS   C3B43580  30.144   4.242  13.981 -0.1623 -0.3028 -0.1982
36046DOPS   C4B43581  30.001   4.154  13.521  0.0618 -0.1994  0.0905
36047DOPS   CNO43582  24.641   1.686  15.164  0.1434 -0.0109  0.1471
36047DOPS   PO443583  24.503   2.059  15.209  0.0258  0.1668  0.3428
36047DOPS   GL143584  24.285   2.235  14.824 -0.1586  0.1156 -0.0139
36047DOPS   GL243585  24.182   1.969  14.847  0.0410 -0.0799 -0.0732
36047DOPS   C1A43586  24.528   2.451  14.453 -0.0187  0.2613 -0.1702
36047DOPS   D2A43587  24.590   2.409  13.971  0.0490  0.2117 -0.3410
36047DOPS   C3A43588  24.837   2.711  13.733  0.0651  0.0442 -0.0657
36047DOPS   C4A43589  25.192   2.921  13.474  0.0073 -0.0664  0.0783
36047DOPS   C1B43590  24.200   1.768  14.548  0.0217  0.2275  0.0251
36047DOPS   D2B43591  24.211   1.717  14.067  0.0003  0.0422 -0.1220
36047DOPS   C3B43592  24.330   1.618  13.629  0.0336 -0.1797  0.2791
36047DOPS   C4B43593  23.996   1.881  13.342  0.0917 -0.0272 -0.0700
36048DOPS   CNO43594   5.241   3.086  15.930 -0.1511  0.2339  0.0285
36048DOPS   PO443595   4.979   3.085  15.694 -0.2124 -0.2380  0.0881
36048DOPS   GL143596   4.959   3.089  15.317  0.3054  0.0461  0.0619
36048DOPS   GL243597   5.087   3.344  15.259 -0.1332  0.2377 -0.2122
36048DOPS   C1A43598   4.854   2.856  14.907  0.1278  0.0860 -0.2198
36048DOPS   D2A43599   4.823   2.572  14.525  0.1555  0.2083  0.1761
36048DOPS   C3A43600   5.081   2.460  14.099  0.1171  0.0151  0.2954
36048DOPS   C4A43601   5.208   2.493  13.570  0.1103  0.1908 -0.0475
36048DOPS   C1B43602   5.069   3.331  14.803 -0.3549 -0.2204  0.1388
36048DOPS   D2B43603   5.134   3.417  14.301  0.0390  0.1890  0.1568
36048DOPS   C3B43604   5.360   3.487  13.891 -0.2903  0.4283 -0.0570
36048DOPS   C4B43605   5.483   3.340  13.492 -0.3461  0.2294 -0.0860
36049DOPS   CNO43606   8.296   1.280  15.185  0.0946  0.1627 -0.0212
36049DOPS   PO443607   8.562   1.537  15.038  0.1227 -0.1523 -0.1014
36049DOPS   GL143608   8.459   1.403  14.652 -0.3544 -0.1342 -0.0153
36049DOPS   GL243609   8.263   1.230  14.692  0.0032 -0.2304  0.0882
36049DOPS   C1A43610   8.534   1.569  14.297 -0.0969  0.1107 -0.2413
36049DOPS   D2A43611   8.617   1.704  13.901 -0.1882  0.1691  0.1442
36049DOPS   C3A43612   8.435   1.961  13.514 -0.0687  0.2032 -0.0188
36049DOPS   C4A43613   8.176   2.324  13.225  0.0393 -0.1348 -0.0796
36049DOPS   C1B43614   8.030   1.389  14.294 -0.1807 -0.1411 -0.2260
36049DOPS   D2B43615   8.013   1.401  13.813 -0.1519 -0.0172 -0.1311
36049DOPS   C3B43616   8.336   1.437  13.439  0.2346  0.1314 -0.0999
36049DOPS   C4B43617   8.579   1.628  13.082 -0.0800  0.1054 -0.2381
36050DOPS   CNO43618  13.525   5.082  15.130 -0.2719  0.2732 -0.0687
36050DOPS   PO443619  13.155   5.241  15.122  0.3590 -0.0406 -0.0555
36050DOPS   GL143620  13.101   5.393  14.772  0.1469  0.1843  0.1473
36050DOPS   GL243621  12.818   5.229  14.675 -0.1434 -0.1689 -0.3542
36050DOPS   C1A43622  13.346   5.271  14.491  0.4168  0.0993 -0.1341
36050DOPS   D2A43623  13.553   5.455  14.021  0.2164  0.1599 -0.1243
36050DOPS   C3A43624  13.437   5.491  13.600 -0.2864 -0.1630  0.0237
36050DOPS   C4A43625  13.227   5.535  13.170  0.0235 -0.1305 -0.2279
36050DOPS   C1B43626  12.874   5.225  14.296  0.0444  0.1774  0.0872
36050DOPS   D2B43627  13.118   5.252  13.888 -0.2004  0.0914 -0.3214
36050DOPS   C3B43628  12.883   5.336  13.487  0.3162  0.2329 -0.0300
36050DOPS   C4B43629  12.613   5.389  13.043 -0.2855 -0.2849 -0.1876
36051DOPS   CNO43630   3.670   1.703  15.730  0.2937  0.2308  0.1856
36051DOPS   PO443631   3.796   1.390  15.579  0.0342  0.1833 -0.2265
36051DOPS   GL143632   3.551   1.269  15.199  0.1630 -0.1791 -0.0717
36051DOPS   GL243633   3.796   1.413  15.035 -0.0625 -0.3933  0.0018
36051DOPS   C1A43634   3.206   1.244  14.997 -0.1812 -0.2691 -0.2593
36051DOPS   D2A43635   3.087   1.447  14.564 -0.0871  0.4776 -0.2042
36051DOPS   C3A43636   2.642   1.508  14.360  0.1135  0.1035 -0.4060
36051DOPS   C4A43637   2.216   1.762  14.164 -0.1678  0.1293  0.1800
36051DOPS   C1B43638   3.666   1.503  14.573 -0.1613  0.0817 -0.1166
36051DOPS   D2B43639   3.409   1.426  14.158 -0.2344 -0.1169  0.1428
36051DOPS   C3B43640   3.046   1.695  14.171 -0.0467  0.1010 -0.1895
36051DOPS   C4B43641   2.669   1.586  13.866  0.1651  0.0271 -0.2408
36052DOPS   CNO43642   8.063   2.119  15.604  0.1779 -0.0793  0.0828
36052DOPS   PO443643   8.045   2.345  15.240 -0.1882  0.0755 -0.1067
36052DOPS   GL143644   7.947   2.104  14.889 -0.0818 -0.1812  0.1076
36052DOPS   GL243645   7.821   2.351  14.741 -0.3290  0.0473 -0.0290
36052DOPS   C1A43646   8.073   2.002  14.495 -0.0912 -0.1829 -0.2762
36052DOPS   D2A43647   8.089   1.885  14.009 -0.2462  0.1954 -0.1131
36052DOPS   C3A43648   7.974   1.804  13.539  0.0174 -0.1582  0.2162
36052DOPS   C4A43649   8.094   1.807  13.016 -0.0477 -0.2291  0.1061
36052DOPS   C1B43650   7.706   2.269  14.307  0.2983  0.3954  0.1968
36052DOPS   D2B43651   7.651   2.552  13.974  0.1635 -0.2206 -0.0490
36052DOPS   C3B43652   7.513   2.739  13.540  0.2976  0.0924  0.1245
36052DOPS   C4B43653   7.616   3.136  13.282 -0.1948  0.0356  0.1964
36053DOPS   CNO43654  16.268   2.956  15.188  0.1089 -0.0289 -0.3619
36053DOPS   PO443655  16.411   3.124  14.902  0.1121 -0.0566 -0.1362
36053DOPS   GL143656  16.387   3.094  14.468  0.3445 -0.0165 -0.3624
36053DOPS   GL243657  16.094   2.898  14.491 -0.2305  0.3747  0.2334
36053DOPS   C1A43658  16.585   3.263  14.068  0.2839  0.2310  0.3861
36053DOPS   D2A43659  16.774   3.419  13.663  0.1130  0.1035 -0.0221
36053DOPS   C3A43660  16.711   3.089  13.355 -0.3577 -0.2240  0.0175
36053DOPS   C4A43661  16.649   2.744  13.057 -0.0152 -0.1103  0.4526
36053DOPS   C1B43662  16.039   2.718  14.057  0.0586  0.0159 -0.0951
36053DOPS   D2B43663  16.144   2.547  13.534 -0.0754 -0.1136  0.1498
36053DOPS   C3B43664  15.882   2.269  13.305  0.1456 -0.1360  0.3210
36053DOPS   C4B43665  15.692   2.159  12.852  0.2355 -0.0909  0.1792
36054DOPS   CNO43666  23.419   3.261  15.799 -0.0912  0.0867 -0.0136
36054DOPS   PO443667  23.352   3.149  15.441  0.0159 -0.1858 -0.2677
36054DOPS   GL143668  23.316   3.299  14.963 -0.1239  0.0795  0.0838
36054DOPS   GL243669  23.489   3.098  14.946 -0.2653 -0.1449  0.1551
36054DOPS   C1A43670  23.346   3.504  14.582  0.0216  0.3687  0.1152
36054DOPS   D2A43671  23.649   3.533  14.199  0.3366 -0.4508  0.2341
36054DOPS   C3A43672  23.705   3.410  13.708 -0.0714 -0.1627 -0.1656
36054DOPS   C4A43673  23.796   3.319  13.243  0.1704 -0.3245 -0.0377
36054DOPS   C1B43674  23.614   2.989  14.530 -0.0587  0.0996 -0.0258
36054DOPS   D2B43675  23.635   2.911  14.066  0.3797 -0.0898 -0.2869
36054DOPS   C3B43676  23.342   2.987  13.732  0.1789 -0.1067 -0.0075
36054DOPS   C4B43677  23.211   3.342  13.378 -0.0188  0.0826  0.1246
36055DOPS   CNO43678  29.506   2.075  15.289 -0.0211 -0.3110  0.3921
36055DOPS   PO443679  29.860   1.953  15.285 -0.1207 -0.3180 -0.0021
36055DOPS   GL143680  30.020   2.047  14.948 -0.2826 -0.3879 -0.1591
36055DOPS   GL243681  29.747   2.015  14.796 -0.1452 -0.5633 -0.4184
36055DOPS   C1A43682  30.360   2.012  14.666  0.0174  0.0159 -0.1248
36055DOPS   D2A43683  30.834   2.008  14.513 -0.1713  0.1453 -0.1480
36055DOPS   C3A43684  30.713   1.934  14.036 -0.1193  0.0369 -0.1281
36055DOPS   C4A43685  30.505   1.881  13.638  0.0201  0.1331 -0.4118
36055DOPS   C1B43686  29.874   2.051  14.412 -0.0830  0.1238 -0.0057
36055DOPS   D2B43687  30.132   2.122  13.991  0.0595  0.0126  0.2348
36055DOPS   C3B43688  29.968   1.746  13.778  0.1042 -0.3122  0.1542
36055DOPS   C4B43689  30.117   1.375  13.531 -0.0302 -0.3482 -0.1743
36056DOPS   CNO43690  30.057   5.745  15.565  0.1423  0.1967 -0.2374
36056DOPS   PO443691  30.254   5.413  15.525  0.2559  0.0853 -0.2242
36056DOPS   GL143692  30.063   5.415  15.181  0.2908 -0.2328  0.2962
36056DOPS   GL243693  30.093   5.112  15.218 -0.3038 -0.3077 -0.2247
36056DOPS   C1A43694  30.172   5.803  14.894 -0.0460 -0.2015  0.0796
36056DOPS   D2A43695  30.220   6.102  14.535  0.0913  0.0315  0.0139
36056DOPS   C3A43696  30.537   5.732  14.400 -0.1898 -0.1563  0.1100
36056DOPS   C4A43697  30.602   5.217  14.364 -0.1878  0.3991 -0.1830
36056DOPS   C1B43698  30.111   4.965  14.825  0.0812  0.1344 -0.0603
36056DOPS   D2B43699  30.523   4.779  14.694 -0.2106  0.0360 -0.2266
36056DOPS   C3B43700  30.808   4.607  14.368 -0.2764 -0.3723  0.0298
36056DOPS   C4B43701  30.907   4.396  13.966  0.0748 -0.0518  0.1086
36057DOPS   CNO43702  28.960   6.851  15.807 -0.0717 -0.0874 -0.0194
36057DOPS   PO443703  29.149   6.620  15.597 -0.1352 -0.1706  0.0788
36057DOPS   GL143704  29.144   6.541  15.195  0.1042 -0.0654  0.2626
36057DOPS   GL243705  29.373   6.656  15.148 -0.0807 -0.0924  0.1906
36057DOPS   C1A43706  28.939   6.593  14.840  0.2929 -0.0303  0.0615
36057DOPS   D2A43707  28.986   6.683  14.337 -0.2740  0.0381 -0.1900
36057DOPS   C3A43708  28.843   6.680  13.907  0.1268  0.0245  0.1480
36057DOPS   C4A43709  28.856   6.558  13.466 -0.0586 -0.0837 -0.0142
36057DOPS   C1B43710  29.363   6.866  14.798 -0.0519 -0.2333 -0.0042
36057DOPS   D2B43711  29.388   6.924  14.269 -0.2627  0.0242 -0.1806
36057DOPS   C3B43712  29.618   7.174  13.939 -0.0403 -0.0920 -0.1274
36057DOPS   C4B43713  29.853   7.380  13.510 -0.0670  0.2706  0.2036
36058DOPS   CNO43714  10.721   3.354  15.667 -0.0114 -0.1479 -0.0966
36058DOPS   PO443715  10.977   3.290  15.401  0.0439  0.0181 -0.1955
36058DOPS   GL143716  11.028   3.412  15.030  0.2145  0.1501  0.1476
36058DOPS   GL243717  11.161   3.676  15.014 -0.0150  0.1380  0.0411
36058DOPS   C1A43718  10.895   3.282  14.608 -0.0436 -0.0377 -0.0852
36058DOPS   D2A43719  10.963   2.977  14.234  0.0842  0.3574 -0.1617
36058DOPS   C3A43720  10.923   3.053  13.823  0.0235 -0.2896  0.0054
36058DOPS   C4A43721  10.986   3.267  13.387 -0.2006  0.3037  0.0165
36058DOPS   C1B43722  11.147   3.792  14.553 -0.0184 -0.0858 -0.0561
36058DOPS   D2B43723  10.991   4.002  14.094 -0.1317  0.1743  0.1096
36058DOPS   C3B43724  10.757   4.030  13.715 -0.2346  0.1273 -0.0806
36058DOPS   C4B43725  10.346   4.037  13.434 -0.1299  0.0979 -0.0307
36059DOPS   CNO43726  17.950   2.345  15.100  0.1051  0.2030  0.1540
36059DOPS   PO443727  17.761   2.384  14.765  0.1403 -0.1567  0.0153
36059DOPS   GL143728  17.881   2.519  14.415 -0.1556 -0.0035 -0.0104
36059DOPS   GL243729  18.062   2.656  14.528  0.2435 -0.0231  0.0052
36059DOPS   C1A43730  17.577   2.723  14.178 -0.1557  0.1638 -0.1552
36059DOPS   D2A43731  17.144   2.579  14.046 -0.0239  0.1959 -0.0752
36059DOPS   C3A43732  16.974   2.940  13.814 -0.2678 -0.2546 -0.0263
36059DOPS   C4A43733  17.164   2.877  13.353  0.0544  0.0926  0.2175
36059DOPS   C1B43734  17.958   2.965  14.242 -0.3067  0.1175 -0.2771
36059DOPS   D2B43735  17.574   3.241  14.182 -0.1423  0.1828 -0.0359
36059DOPS   C3B43736  17.458   2.973  13.803  0.3382 -0.0566 -0.1750
36059DOPS   C4B43737  17.436   2.520  13.616 -0.0816  0.3167 -0.0800
36060DOPS   CNO43738   4.170   6.038  15.476 -0.0892  0.1399  0.0151
36060DOPS   PO443739   4.469   5.802  15.508 -0.2258  0.3060 -0.0116
36060DOPS   GL143740   4.576   5.782  15.081 -0.0493  0.1140  0.1791
36060DOPS   GL243741   4.263   5.641  15.099  0.2059  0.2731 -0.3031
36060DOPS   C1A43742   4.777   5.902  14.620  0.0062  0.0665 -0.0750
36060DOPS   D2A43743   4.858   6.019  14.135 -0.0065  0.0110  0.0089
36060DOPS   C3A43744   5.173   6.247  13.970  0.0296  0.1445  0.4979
36060DOPS   C4A43745   5.217   6.697  13.999  0.0935 -0.0973  0.1433
36060DOPS   C1B43746   4.294   5.211  14.972  0.3103 -0.1042 -0.0462
36060DOPS   D2B43747   4.360   4.756  14.818  0.0781  0.1451 -0.1528
36060DOPS   C3B43748   4.619   4.800  14.438  0.3714  0.1190  0.0734
36060DOPS   C4B43749   4.755   4.831  13.983 -0.1721 -0.0030  0.2764
36061DOPS   CNO43750  24.260   3.638  15.395 -0.0344  0.0087  0.2658
36061DOPS   PO443751  24.538   3.363  15.334 -0.0945  0.0898  0.1165
36061DOPS   GL143752  24.424   3.340  14.865  0.1962 -0.2957 -0.2982
36061DOPS   GL243753  24.675   3.131  14.952 -0.0895  0.0006 -0.0117
36061DOPS   C1A43754  24.398   3.144  14.493 -0.1164 -0.0677  0.0557
36061DOPS   D2A43755  24.591   2.901  14.109  0.0117 -0.0495 -0.2242
36061DOPS   C3A43756  24.358   2.777  13.709 -0.0012 -0.0856 -0.0508
36061DOPS   C4A43757  23.873   2.901  13.516 -0.3648  0.1732 -0.1156
36061DOPS   C1B43758  24.829   2.918  14.592  0.0735  0.1662 -0.1494
36061DOPS   D2B43759  24.983   2.557  14.273 -0.0707 -0.0818  0.0332
36061DOPS   C3B43760  25.315   2.769  14.046  0.1028  0.3783 -0.1030
36061DOPS   C4B43761  25.659   2.822  13.749 -0.3279 -0.1894  0.1572
36062DOPC   NC343762   3.899   1.997  11.152 -0.1233  0.0714  0.0466
36062DOPC   PO443763   3.987   1.980  11.557 -0.0038  0.2844 -0.0371
36062DOPC   GL143764   3.736   2.055  11.910 -0.1049 -0.0133 -0.1605
36062DOPC   GL243765   3.997   1.863  11.986  0.0325  0.3003  0.1762
36062DOPC   C1A43766   3.831   2.241  12.253  0.0210  0.0819 -0.1327
36062DOPC   D2A43767   3.863   2.063  12.689 -0.0647 -0.0695 -0.0566
36062DOPC   C3A43768   4.157   2.075  13.005 -0.0560  0.2799 -0.0294
36062DOPC   C4A43769   4.329   2.267  13.387 -0.1633 -0.1151  0.2728
36062DOPC   C1B43770   3.790   1.736  12.291  0.1393 -0.1080  0.0422
36062DOPC   D2B43771   3.459   1.773  12.669 -0.1243 -0.0988 -0.2101
36062DOPC   C3B43772   3.187   2.035  13.009  0.1688  0.1208 -0.1450
36062DOPC   C4B43773   2.706   1.974  13.004 -0.3925 -0.3485  0.0173
36063DOPC   NC343774   2.400   6.579  11.682  0.1918  0.0795  0.2004
36063DOPC   PO443775   2.595   6.249  11.544 -0.0625 -0.3086 -0.2986
36063DOPC   GL143776   2.547   6.158  11.958  0.0772  0.2053 -0.3553
36063DOPC   GL243777   2.291   6.037  11.867  0.1053 -0.6151 -0.1104
36063DOPC   C1A43778   2.463   6.349  12.356 -0.2323  0.1052  0.2307
36063DOPC   D2A43779   2.245   6.532  12.786  0.3305 -0.0919  0.1242
36063DOPC   C3A43780   2.347   7.020  12.836 -0.1107 -0.0466  0.2117
36063DOPC   C4A43781   2.653   7.400  12.951  0.1687  0.1062 -0.0309
36063DOPC   C1B43782   2.264   5.916  12.294  0.0750  0.0229  0.0759
36063DOPC   D2B43783   2.208   5.432  12.445 -0.2372  0.0363  0.1003
36063DOPC   C3B43784   2.176   5.358  12.905 -0.2147  0.0439 -0.2405
36063DOPC   C4B43785   2.102   5.157  13.356 -0.1694 -0.0832  0.2647
36064DOPC   NC343786   5.444   1.617  11.600  0.0371 -0.1773 -0.0299
36064DOPC   PO443787   5.585   1.273  11.477  0.1084  0.2898  0.0511
36064DOPC   GL143788   5.681   1.027  11.768  0.3542  0.3162  0.0342
36064DOPC   GL243789   5.866   1.206  11.821 -0.1447  0.3038 -0.0358
36064DOPC   C1A43790   5.384   1.020  12.099  0.3650  0.0592 -0.0740
36064DOPC   D2A43791   5.449   0.834  12.573  0.2210  0.2736 -0.1611
36064DOPC   C3A43792   5.366   0.555  12.952 -0.0149 -0.0763 -0.2510
36064DOPC   C4A43793   5.375   0.218  13.284 -0.0113 -0.1187 -0.2152
36064DOPC   C1B43794   6.062   1.305  12.196 -0.1368 -0.2565 -0.1229
36064DOPC   D2B43795   5.695   1.306  12.567 -0.4531 -0.0550 -0.1207
36064DOPC   C3B43796   5.515   1.519  12.927 -0.2038 -0.4316 -0.0593
36064DOPC   C4B43797   5.693   1.844  13.276  0.2578  0.0405 -0.1981
36065DOPC   NC343798  31.095   5.133  11.703  0.1995 -0.0637  0.2353
36065DOPC   PO443799  31.386   5.379  11.649 -0.3185 -0.0290  0.2241
36065DOPC   GL143800  31.396   5.561  12.048 -0.1976 -0.0396 -0.0514
36065DOPC   GL243801  31.351   5.856  12.007  0.0187  0.1199  0.3740
36065DOPC   C1A43802  31.487   5.378  12.468  0.1476 -0.3535 -0.0016
36065DOPC   D2A43803  31.489   5.188  12.897  0.2002 -0.1194 -0.0473
36065DOPC   C3A43804  31.198   5.194  13.254 -0.1563 -0.0422 -0.2376
36065DOPC   C4A43805  30.812   5.284  13.538 -0.1893 -0.2431  0.2899
36065DOPC   C1B43806  31.169   5.764  12.375 -0.1858 -0.0051  0.0967
36065DOPC   D2B43807  30.952   5.681  12.821  0.1038 -0.0054  0.1921
36065DOPC   C3B43808  30.969   5.657  13.279  0.0047  0.1337  0.2290
36065DOPC   C4B43809  31.104   5.861  13.691  0.2129 -0.0993  0.1834
36066DOPC   NC343810  24.967   3.431  10.543  0.0075 -0.3784 -0.0123
36066DOPC   PO443811  25.028   3.221  10.867 -0.0028 -0.2735 -0.0658
36066DOPC   GL143812  24.875   3.306  11.257  0.0662 -0.2261  0.2594
36066DOPC   GL243813  24.974   3.573  11.293  0.3503  0.0627  0.3295
36066DOPC   C1A43814  25.064   3.160  11.617 -0.0288  0.0241 -0.1299
36066DOPC   D2A43815  25.141   3.168  12.100 -0.3300 -0.0697  0.0430
36066DOPC   C3A43816  25.202   2.931  12.503 -0.1697 -0.0810 -0.2445
36066DOPC   C4A43817  25.388   2.502  12.639 -0.0800 -0.1902 -0.1622
36066DOPC   C1B43818  25.081   3.752  11.659 -0.2161 -0.0486 -0.3769
36066DOPC   D2B43819  25.204   3.925  12.126 -0.1936 -0.2108  0.0118
36066DOPC   C3B43820  25.190   3.711  12.477 -0.0830  0.1403  0.2361
36066DOPC   C4B43821  24.806   3.629  12.771 -0.2342  0.2761  0.0773
36067DOPC   NC343822  19.653   0.187  10.173  0.1939  0.2648 -0.2852
36067DOPC   PO443823  19.366   0.390  10.351  0.2396  0.5596  0.0893
36067DOPC   GL143824  19.321   0.323  10.739 -0.1333 -0.5773  0.0045
36067DOPC   GL243825  19.150   0.135  10.772 -0.2407  0.1015 -0.3745
36067DOPC   C1A43826  19.459   0.645  11.022 -0.1642 -0.0848  0.1210
36067DOPC   D2A43827  19.309   0.816  11.473  0.0886 -0.0777 -0.2175
36067DOPC   C3A43828  18.958   0.743  11.845 -0.1126  0.1106  0.1334
36067DOPC   C4A43829  18.706   0.826  12.333  0.1216 -0.0193 -0.3423
36067DOPC   C1B43830  18.977   0.052  11.164 -0.2202  0.0931  0.2118
36067DOPC   D2B43831  18.968  -0.100  11.642  0.3080  0.0732 -0.1933
36067DOPC   C3B43832  19.137  -0.325  11.993  0.0116  0.2796  0.1782
36067DOPC   C4B43833  19.176  -0.538  12.424  0.2076  0.1154 -0.2734
36068DOPC   NC343834   8.528   4.492  10.929  0.2669  0.0208  0.0659
36068DOPC   PO443835   8.914   4.366  10.968  0.0035  0.1772 -0.0953
36068DOPC   GL143836   8.990   4.481  11.393 -0.1731 -0.1096 -0.0144
36068DOPC   GL243837   8.741   4.281  11.461 -0.2179  0.0643  0.3475
36068DOPC   C1A43838   8.960   4.591  11.805 -0.0699  0.0546  0.1925
36068DOPC   D2A43839   9.080   4.636  12.266 -0.1684 -0.1073  0.1164
36068DOPC   C3A43840   8.863   4.543  12.690 -0.2569 -0.3534  0.0147
36068DOPC   C4A43841   8.629   4.307  13.075 -0.1132  0.0497 -0.0828
36068DOPC   C1B43842   8.469   4.350  11.801  0.0570 -0.1541 -0.0432
36068DOPC   D2B43843   8.444   4.446  12.305  0.0868  0.1443 -0.1572
36068DOPC   C3B43844   8.164   4.452  12.615 -0.1917 -0.0814  0.3046
36068DOPC   C4B43845   7.910   4.775  12.860 -0.3079  0.0677 -0.1070
36069DOPC   NC343846  15.428   5.658  11.215  0.2058  0.0402  0.0861
36069DOPC   PO443847  15.375   6.056  11.226 -0.1632  0.4112  0.2330
36069DOPC   GL143848  15.333   6.110  11.615 -0.0423 -0.1718 -0.1031
36069DOPC   GL243849  15.568   6.107  11.663 -0.3784 -0.2362 -0.3720
36069DOPC   C1A43850  15.316   5.785  11.859  0.2317  0.0056  0.1765
36069DOPC   D2A43851  15.222   5.578  12.333  0.2049 -0.2064 -0.1864
36069DOPC   C3A43852  15.227   5.414  12.749 -0.0259 -0.0157  0.1259
36069DOPC   C4A43853  15.278   5.372  13.194  0.4156  0.1384  0.0096
36069DOPC   C1B43854  15.611   6.072  12.117  0.0763  0.0550  0.1693
36069DOPC   D2B43855  15.740   6.094  12.582  0.1852  0.0507 -0.1715
36069DOPC   C3B43856  16.084   6.182  12.922 -0.3228  0.2644 -0.1206
36069DOPC   C4B43857  16.341   6.277  13.262 -0.0378  0.3308 -0.1247
36070DOPC   NC343858   2.049   6.857  11.462 -0.1583 -0.1663  0.1713
36070DOPC   PO443859   1.738   6.820  11.646 -0.2171  0.2809 -0.0199
36070DOPC   GL143860   1.577   6.777  12.043 -0.0820  0.1366  0.0251
36070DOPC   GL243861   1.646   6.506  12.161 -0.3055 -0.2252 -0.1164
36070DOPC   C1A43862   1.481   7.054  12.373  0.1243 -0.0297  0.3307
36070DOPC   D2A43863   1.363   7.493  12.585  0.1918 -0.0734  0.1838
36070DOPC   C3A43864   1.353   7.778  12.977  0.1792  0.0087 -0.0613
36070DOPC   C4A43865   1.280   7.898  13.416 -0.1536 -0.0415 -0.2325
36070DOPC   C1B43866   1.485   6.172  12.429  0.1568  0.2624  0.1160
36070DOPC   D2B43867   1.760   5.804  12.584 -0.1416 -0.1770  0.0341
36070DOPC   C3B43868   1.753   5.662  13.082  0.0697  0.1615 -0.1153
36070DOPC   C4B43869   1.700   5.542  13.553 -0.3793 -0.3309  0.0885
36071DOPC   NC343870  17.053   1.865  11.016 -0.1365 -0.3194 -0.1997
36071DOPC   PO443871  17.197   1.509  10.902 -0.0454  0.0355  0.0235
36071DOPC   GL143872  17.246   1.276  11.294 -0.1531 -0.3491 -0.0565
36071DOPC   GL243873  17.247   1.601  11.372 -0.2850  0.0737  0.1266
36071DOPC   C1A43874  16.893   1.055  11.513 -0.0736 -0.0123 -0.2559
36071DOPC   D2A43875  16.535   0.832  11.827  0.0927 -0.2730 -0.2464
36071DOPC   C3A43876  16.451   0.925  12.244  0.5997  0.1685  0.1245
36071DOPC   C4A43877  16.424   1.139  12.698 -0.1408  0.1631  0.0848
36071DOPC   C1B43878  17.164   1.612  11.794  0.1424  0.0954  0.0417
36071DOPC   D2B43879  17.156   1.427  12.241  0.2244 -0.1102  0.0621
36071DOPC   C3B43880  17.503   1.328  12.570  0.2966 -0.3402 -0.2261
36071DOPC   C4B43881  17.879   1.019  12.575 -0.1987  0.0150 -0.0608
36072DOPC   NC343882   9.894   6.386  10.471 -0.0014 -0.1600  0.0234
36072DOPC   PO443883  10.119   6.731  10.440  0.2827 -0.0797 -0.0811
36072DOPC   GL143884  10.321   6.429  10.782  0.2520 -0.2033  0.0951
36072DOPC   GL243885  10.537   6.631  10.759  0.3328 -0.0603  0.0207
36072DOPC   C1A43886   9.977   6.546  11.065 -0.0096 -0.0075  0.2508
36072DOPC   D2A43887   9.783   6.523  11.543  0.0911 -0.0465 -0.2610
36072DOPC   C3A43888  10.004   6.387  11.972 -0.1356 -0.0301  0.0211
36072DOPC   C4A43889  10.085   6.237  12.438  0.0060  0.0288  0.0983
36072DOPC   C1B43890  10.444   6.768  11.151  0.0703  0.0875 -0.2717
36072DOPC   D2B43891  10.087   6.887  11.458 -0.0630 -0.3219  0.1043
36072DOPC   C3B43892   9.955   6.904  11.902 -0.1516  0.0457 -0.0441
36072DOPC   C4B43893   9.625   6.916  12.275 -0.2136 -0.2414  0.0270
36073DOPC   NC343894  11.990   7.056  10.678 -0.0434 -0.3116  0.1926
36073DOPC   PO443895  11.695   7.046  10.916 -0.0549 -0.1454 -0.2698
36073DOPC   GL143896  11.794   7.097  11.317  0.2808 -0.1043  0.3062
36073DOPC   GL243897  11.473   7.032  11.411 -0.1010 -0.0056 -0.1640
36073DOPC   C1A43898  12.098   7.022  11.511  0.2439 -0.0443 -0.2064
36073DOPC   D2A43899  12.489   6.947  11.762 -0.2730 -0.1443  0.1340
36073DOPC   C3A43900  12.367   7.020  12.196 -0.0229 -0.1758 -0.1216
36073DOPC   C4A43901  12.306   7.106  12.657 -0.0473  0.1520 -0.1995
36073DOPC   C1B43902  11.450   7.023  11.824  0.2641  0.2759 -0.0843
36073DOPC   D2B43903  11.421   7.225  12.299  0.2177 -0.0788  0.2008
36073DOPC   C3B43904  11.086   7.554  12.421  0.0762  0.0184 -0.2808
36073DOPC   C4B43905  10.715   7.813  12.684 -0.0265 -0.0830 -0.1007
36074DOPC   NC343906   4.695   0.911  11.140  0.0119 -0.0727  0.0096
36074DOPC   PO443907   4.867   0.796  11.488  0.2435 -0.2448 -0.1936
36074DOPC   GL143908   4.794   0.935  11.912  0.1697  0.0920  0.1319
36074DOPC   GL243909   4.973   0.719  11.964  0.3086 -0.2591  0.2030
36074DOPC   C1A43910   4.523   1.241  12.096  0.2772 -0.1193  0.1415
36074DOPC   D2A43911   4.715   1.478  12.484  0.2029 -0.0443 -0.0778
36074DOPC   C3A43912   4.472   1.663  12.855  0.0140 -0.1088  0.0790
36074DOPC   C4A43913   4.590   1.831  13.337 -0.1361  0.2058  0.3256
36074DOPC   C1B43914   5.110   0.555  12.360 -0.0172  0.1654  0.1419
36074DOPC   D2B43915   4.860   0.279  12.732 -0.1882  0.1669  0.0779
36074DOPC   C3B43916   4.489   0.485  12.967 -0.1016 -0.0286  0.0891
36074DOPC   C4B43917   4.347   0.842  13.179 -0.0589 -0.0705 -0.0530
36075DOPC   NC343918  23.593   3.617  10.904 -0.2782 -0.0279 -0.2338
36075DOPC   PO443919  23.774   3.964  10.911  0.1787  0.0981 -0.0904
36075DOPC   GL143920  23.497   3.896  11.262  0.1651 -0.0561 -0.0676
36075DOPC   GL243921  23.717   4.086  11.360 -0.1126  0.2362  0.2578
36075DOPC   C1A43922  23.326   3.982  11.745 -0.3173  0.4036 -0.1497
36075DOPC   D2A43923  23.415   4.028  12.249  0.1803 -0.0803  0.0054
36075DOPC   C3A43924  23.382   3.736  12.606  0.2324 -0.0261  0.1339
36075DOPC   C4A43925  23.453   3.572  13.008  0.1425  0.1884  0.2101
36075DOPC   C1B43926  23.737   4.288  11.776  0.1159  0.1825 -0.1217
36075DOPC   D2B43927  23.717   4.452  12.264  0.2213 -0.1652  0.0781
36075DOPC   C3B43928  23.634   4.265  12.722  0.1650  0.1796 -0.1216
36075DOPC   C4B43929  23.549   4.042  13.171  0.0312 -0.3625 -0.3176
36076DOPC   NC343930   6.590   6.327  11.306 -0.0954 -0.0386  0.1597
36076DOPC   PO443931   6.291   6.553  11.183  0.0022 -0.0474 -0.1988
36076DOPC   GL143932   5.936   6.754  11.519 -0.0311  0.3785  0.4444
36076DOPC   GL243933   6.221   6.820  11.626 -0.0185 -0.0320  0.2870
36076DOPC   C1A43934   5.651   6.453  11.714 -0.2778 -0.0442  0.3080
36076DOPC   D2A43935   5.408   6.193  12.047  0.1645 -0.0303  0.1291
36076DOPC   C3A43936   5.699   6.141  12.361 -0.0006 -0.2432  0.0128
36076DOPC   C4A43937   5.838   5.974  12.851 -0.0565 -0.1111 -0.0723
36076DOPC   C1B43938   6.430   6.962  12.063  0.1608  0.0679 -0.1728
36076DOPC   D2B43939   6.491   6.974  12.570  0.0933 -0.2978  0.0140
36076DOPC   C3B43940   6.647   7.066  13.002  0.2381  0.1702  0.0774
36076DOPC   C4B43941   7.097   7.156  12.979 -0.1780 -0.0089  0.0095
36077DOPC   NC343942   5.768   2.326  11.072 -0.0954  0.2554 -0.0143
36077DOPC   PO443943   6.097   2.276  11.284  0.1084 -0.0130 -0.0752
36077DOPC   GL143944   6.129   2.129  11.655 -0.1182 -0.2002  0.3697
36077DOPC   GL243945   6.295   2.380  11.723 -0.1190 -0.1323 -0.1711
36077DOPC   C1A43946   6.474   2.034  11.926  0.2137  0.1784 -0.2033
36077DOPC   D2A43947   6.751   2.134  12.290 -0.5207 -0.1673 -0.0636
36077DOPC   C3A43948   6.813   2.198  12.779  0.0795  0.2787  0.2556
36077DOPC   C4A43949   7.184   2.334  13.058 -0.0000 -0.1469 -0.1881
36077DOPC   C1B43950   6.140   2.631  12.025 -0.0362  0.1184  0.1869
36077DOPC   D2B43951   6.153   2.936  12.448 -0.0352  0.2778  0.4860
36077DOPC   C3B43952   6.321   2.848  12.848 -0.1368 -0.0244 -0.2121
36077DOPC   C4B43953   6.305   2.689  13.290 -0.1266  0.1108 -0.0913
36078DOPC   NC343954   0.424   3.869  11.779 -0.0025  0.1295 -0.1420
36078DOPC   PO443955   0.254   3.565  11.551 -0.2577 -0.3298 -0.2057
36078DOPC   GL143956   0.161   3.267  11.809 -0.0874  0.1331  0.3207
36078DOPC   GL243957   0.388   3.298  12.039  0.3874  0.1094  0.2073
36078DOPC   C1A43958  -0.232   3.189  12.010  0.1953 -0.2294  0.1053
36078DOPC   D2A43959  -0.533   3.082  12.367 -0.0505  0.1464  0.0216
36078DOPC   C3A43960  -0.697   3.036  12.794 -0.0561 -0.1750 -0.1690
36078DOPC   C4A43961  -0.652   2.772  13.202 -0.0337 -0.1022  0.2341
36078DOPC   C1B43962   0.112   3.274  12.401 -0.0985  0.1215 -0.2535
36078DOPC   D2B43963  -0.199   3.301  12.788  0.0128 -0.3410  0.1121
36078DOPC   C3B43964  -0.375   3.234  13.234  0.0775 -0.0502  0.0356
36078DOPC   C4B43965  -0.435   2.884  13.600 -0.0596  0.2289 -0.1760
36079DOPC   NC343966   2.503   3.688  11.144  0.2382 -0.0304  0.0719
36079DOPC   PO443967   2.308   3.482  11.457 -0.0355  0.4584  0.0038
36079DOPC   GL143968   2.469   3.392  11.759  0.1671 -0.0115  0.0440
36079DOPC   GL243969   2.369   3.085  11.845  0.3068 -0.2004  0.1252
36079DOPC   C1A43970   2.563   3.504  12.201  0.1396 -0.0564 -0.3602
36079DOPC   D2A43971   2.579   3.571  12.707  0.1375  0.1225  0.1104
36079DOPC   C3A43972   2.922   3.751  12.947  0.2983 -0.0085  0.0285
36079DOPC   C4A43973   3.218   3.915  13.354 -0.1947 -0.1684 -0.2697
36079DOPC   C1B43974   2.663   2.925  12.195 -0.0163 -0.1076  0.2718
36079DOPC   D2B43975   2.961   2.797  12.470 -0.0001  0.1221 -0.0672
36079DOPC   C3B43976   3.303   2.878  12.706 -0.0029 -0.1476  0.2184
36079DOPC   C4B43977   3.731   2.926  12.946  0.0075 -0.0941 -0.3164
36080DOPC   NC343978  20.694   7.047  10.372 -0.0255  0.4402  0.2339
36080DOPC   PO443979  20.344   7.065  10.520 -0.1856  0.1360  0.1422
36080DOPC   GL143980  20.105   7.144  10.855  0.1432 -0.2022 -0.2367
36080DOPC   GL243981  20.163   7.481  10.817  0.0391  0.2936  0.1286
36080DOPC   C1A43982  20.130   6.926  11.217  0.0763  0.0251  0.0429
36080DOPC   D2A43983  20.339   6.482  11.194 -0.0223 -0.3216  0.0852
36080DOPC   C3A43984  20.337   6.140  11.551 -0.2147  0.1382  0.1490
36080DOPC   C4A43985  20.091   5.828  11.916  0.3375  0.1915 -0.1158
36080DOPC   C1B43986  20.020   7.781  11.169 -0.3279  0.1394  0.0933
36080DOPC   D2B43987  19.904   7.993  11.615 -0.0265  0.0881 -0.3150
36080DOPC   C3B43988  19.698   8.109  12.089  0.1913 -0.0462  0.0191
36080DOPC   C4B43989  19.525   8.159  12.555  0.1002 -0.0259  0.3077
36081DOPC   NC343990   0.359   6.338  11.824  0.0886  0.2627  0.1726
36081DOPC   PO443991  -0.090   6.296  11.787 -0.4096 -0.0819 -0.4002
36081DOPC   GL143992  -0.098   6.235  12.155  0.1888  0.3256  0.2011
36081DOPC   GL243993   0.128   6.366  12.229  0.1018 -0.0453  0.0065
36081DOPC   C1A43994  -0.451   6.145  12.395 -0.2267 -0.1745 -0.0779
36081DOPC   D2A43995  -0.904   6.243  12.222  0.2367  0.0369  0.2009
36081DOPC   C3A43996  -1.012   6.644  12.334  0.0956  0.0497  0.0234
36081DOPC   C4A43997  -1.190   7.107  12.326 -0.0769  0.2338 -0.1474
36081DOPC   C1B43998   0.084   6.601  12.586 -0.0172 -0.0197 -0.0260
36081DOPC   D2B43999  -0.209   6.614  12.963  0.3141  0.2181  0.3596
36081DOPC   C3B44000  -0.248   6.982  13.271 -0.0820  0.3205  0.1587
36081DOPC   C4B44001  -0.299   7.394  13.621 -0.2220 -0.0542 -0.1324
36082DOPC   NC344002  30.198   5.702  11.511 -0.0189 -0.0555 -0.1035
36082DOPC   PO444003  30.434   5.855  11.768 -0.1098 -0.0532 -0.0536
36082DOPC   GL144004  30.556   5.613  12.201 -0.0959 -0.2382 -0.0616
36082DOPC   GL244005  30.379   5.793  12.296  0.4503  0.2549  0.0759
36082DOPC   C1A44006  30.739   5.387  12.484  0.1222 -0.2698 -0.2606
36082DOPC   D2A44007  31.010   5.102  12.814  0.2051  0.0326 -0.3403
36082DOPC   C3A44008  30.790   4.918  13.199  0.0187 -0.0253  0.1587
36082DOPC   C4A44009  30.635   4.641  13.605 -0.2855 -0.1380 -0.0631
36082DOPC   C1B44010  30.477   5.879  12.697 -0.1808 -0.1965 -0.1064
36082DOPC   D2B44011  30.522   5.797  13.145  0.0162 -0.1122 -0.2700
36082DOPC   C3B44012  30.614   5.366  13.060 -0.0760  0.0962  0.0826
36082DOPC   C4B44013  30.548   5.000  12.737  0.4068 -0.0499  0.1855
36083DOPC   NC344014  12.964   1.215  10.702 -0.0894  0.1979 -0.1205
36083DOPC   PO444015  12.955   0.926  10.963  0.1225 -0.0474  0.2629
36083DOPC   GL144016  13.192   0.891  11.355 -0.0953 -0.0005  0.0441
36083DOPC   GL244017  13.193   0.625  11.397 -0.0098 -0.0645  0.5086
36083DOPC   C1A44018  13.249   1.261  11.649 -0.3013 -0.0084  0.0273
36083DOPC   D2A44019  13.155   1.615  11.931 -0.0691 -0.2591 -0.1988
36083DOPC   C3A44020  12.867   1.648  12.307  0.0034 -0.1514  0.2239
36083DOPC   C4A44021  12.635   1.818  12.735 -0.1614  0.1605  0.0055
36083DOPC   C1B44022  13.026   0.572  11.831 -0.4801 -0.1804  0.0682
36083DOPC   D2B44023  12.879   0.645  12.284 -0.0516 -0.1580 -0.1929
36083DOPC   C3B44024  12.714   0.649  12.740 -0.0975 -0.1113 -0.3579
36083DOPC   C4B44025  12.818   0.744  13.190 -0.1859 -0.2458 -0.0048
36084DOPC   NC344026  29.172   7.171  11.238 -0.0122 -0.1169  0.1134
36084DOPC   PO444027  29.149   6.770  11.350  0.0049  0.1550 -0.1281
36084DOPC   GL144028  29.310   6.645  11.706  0.4319 -0.5629 -0.3005
36084DOPC   GL244029  29.275   6.925  11.753  0.1909 -0.3429  0.0057
36084DOPC   C1A44030  29.383   6.398  12.112 -0.0909 -0.1820  0.0982
36084DOPC   D2A44031  29.599   6.370  12.557 -0.5738  0.3475 -0.0423
36084DOPC   C3A44032  29.822   6.754  12.643  0.0133  0.1495  0.0614
36084DOPC   C4A44033  30.267   6.792  12.826 -0.0450  0.0786 -0.0028
36084DOPC   C1B44034  29.251   7.201  12.091 -0.0138 -0.1943  0.3390
36084DOPC   D2B44035  28.931   7.438  12.364 -0.0553  0.2084 -0.2923
36084DOPC   C3B44036  28.906   7.603  12.859  0.3139  0.1126  0.0834
36084DOPC   C4B44037  28.851   7.613  13.347  0.1735 -0.3144 -0.0405
36085DOPC   NC344038  27.661   4.689  10.918  0.1288 -0.0147 -0.0524
36085DOPC   PO444039  27.997   4.567  11.149  0.1122 -0.0969 -0.1059
36085DOPC   GL144040  27.967   4.539  11.547 -0.1908 -0.1746 -0.0099
36085DOPC   GL244041  27.615   4.509  11.461 -0.3908 -0.2398  0.1935
36085DOPC   C1A44042  28.194   4.423  11.861 -0.0265  0.3676 -0.0450
36085DOPC   D2A44043  28.438   4.214  12.226  0.3188  0.1330  0.1917
36085DOPC   C3A44044  28.734   4.533  12.349 -0.2901  0.1698 -0.1847
36085DOPC   C4A44045  29.016   4.758  12.715 -0.0218 -0.0347  0.4194
36085DOPC   C1B44046  27.295   4.427  11.772  0.3459 -0.0755 -0.1119
36085DOPC   D2B44047  27.043   4.240  12.138 -0.0327  0.0936  0.1147
36085DOPC   C3B44048  27.230   4.185  12.514 -0.0550  0.0817 -0.3961
36085DOPC   C4B44049  27.588   4.004  12.726 -0.2549  0.0190  0.1283
36086DOPC   NC344050  14.214   0.764  10.777  0.1238 -0.0960  0.1623
36086DOPC   PO444051  14.558   0.634  10.683  0.0279 -0.1434 -0.4065
36086DOPC   GL144052  14.964   0.571  11.056 -0.0553  0.0560  0.7016
36086DOPC   GL244053  14.713   0.650  11.128 -0.0638 -0.3001 -0.1478
36086DOPC   C1A44054  15.026   0.493  11.490  0.0234  0.1683  0.0279
36086DOPC   D2A44055  14.943   0.747  11.825  0.1672 -0.0197  0.1605
36086DOPC   C3A44056  15.057   0.827  12.310 -0.0596  0.2615 -0.0025
36086DOPC   C4A44057  15.243   0.844  12.733 -0.0416  0.2028 -0.1377
36086DOPC   C1B44058  14.524   0.665  11.499  0.2073  0.1873  0.1799
36086DOPC   D2B44059  14.457   0.631  11.967  0.0028  0.1031 -0.1163
36086DOPC   C3B44060  14.460   0.430  12.387 -0.3142  0.1648  0.1111
36086DOPC   C4B44061  14.496   0.248  12.845  0.0238  0.2648  0.2325
36087DOPC   NC344062   1.251   7.757  11.218  0.1070  0.3202 -0.1143
36087DOPC   PO444063   1.568   7.640  11.381  0.0473  0.2089  0.0790
36087DOPC   GL144064   1.746   7.849  11.741  0.3508  0.0444  0.0585
36087DOPC   GL244065   1.900   7.642  11.830  0.0421 -0.0622 -0.1947
36087DOPC   C1A44066   1.527   7.904  12.074  0.0012  0.0079  0.0813
36087DOPC   D2A44067   1.382   7.989  12.540  0.0495 -0.0110  0.0411
36087DOPC   C3A44068   1.229   8.284  12.864  0.3287  0.1605 -0.0509
36087DOPC   C4A44069   1.272   8.783  13.122 -0.1228  0.2681  0.1603
36087DOPC   C1B44070   1.930   7.634  12.304 -0.1741 -0.2317  0.0928
36087DOPC   D2B44071   1.790   7.678  12.732 -0.2525  0.0119 -0.2817
36087DOPC   C3B44072   1.795   7.863  13.186  0.3227  0.1029 -0.1091
36087DOPC   C4B44073   1.749   8.114  13.605  0.0441 -0.3206 -0.0148
36088DOPC   NC344074   5.348   2.816  11.005  0.1039  0.0295  0.0536
36088DOPC   PO444075   5.682   2.817  11.204 -0.1137 -0.2556  0.1300
36088DOPC   GL144076   5.784   2.902  11.613  0.0527 -0.0465 -0.0326
36088DOPC   GL244077   5.786   2.618  11.637 -0.0241  0.0405 -0.0768
36088DOPC   C1A44078   5.928   3.106  11.988  0.3301  0.5034  0.1113
36088DOPC   D2A44079   5.859   3.514  12.239  0.1135 -0.1125 -0.0828
36088DOPC   C3A44080   5.817   3.712  12.670  0.2336  0.0871  0.0603
36088DOPC   C4A44081   5.512   4.072  12.921 -0.0028  0.4506  0.0496
36088DOPC   C1B44082   5.615   2.643  12.021 -0.0625 -0.1148  0.2477
36088DOPC   D2B44083   5.397   2.640  12.442  0.1634  0.3118  0.1954
36088DOPC   C3B44084   5.319   2.845  12.880 -0.1054  0.2790 -0.3080
36088DOPC   C4B44085   5.342   2.906  13.363 -0.0773  0.1886 -0.0025
36089DOPC   NC344086  10.454   0.924  10.748  0.0189 -0.0083  0.2675
36089DOPC   PO444087  10.760   0.780  10.916  0.2384  0.1710  0.0291
36089DOPC   GL144088  10.929   0.727  11.256 -0.0362 -0.3008  0.0215
36089DOPC   GL244089  10.790   0.923  11.429 -0.0093 -0.0846  0.2509
36089DOPC   C1A44090  11.237   0.583  11.498  0.1342  0.1944 -0.0163
36089DOPC   D2A44091  11.466   0.419  11.918  0.2640  0.0013 -0.1716
36089DOPC   C3A44092  11.355   0.675  12.307 -0.1436  0.2582 -0.2382
36089DOPC   C4A44093  11.377   0.597  12.802 -0.2902 -0.0486 -0.1814
36089DOPC   C1B44094  10.392   0.972  11.786 -0.1936 -0.2185  0.0939
36089DOPC   D2B44095  10.249   0.859  12.226 -0.0244  0.2792 -0.0262
36089DOPC   C3B44096  10.433   0.737  12.530  0.0652  0.0590  0.2452
36089DOPC   C4B44097  10.809   0.480  12.708  0.4470 -0.0178 -0.0749
36090DOPC   NC344098  17.844   3.760  10.284  0.1069 -0.0281 -0.0263
36090DOPC   PO444099  17.552   3.903  10.490 -0.0294  0.2297 -0.2810
36090DOPC   GL144100  17.461   3.792  10.890  0.1637 -0.2438  0.1009
36090DOPC   GL244101  17.196   3.857  10.943  0.0392 -0.1234 -0.0080
36090DOPC   C1A44102  17.701   3.876  11.201 -0.0400  0.1055 -0.0854
36090DOPC   D2A44103  17.694   3.732  11.691 -0.0909  0.1001 -0.2564
36090DOPC   C3A44104  17.813   3.695  12.158  0.0203  0.0618 -0.2554
36090DOPC   C4A44105  17.766   3.789  12.649  0.2554  0.1644 -0.4473
36090DOPC   C1B44106  17.242   4.173  11.307  0.3121 -0.1903 -0.3104
36090DOPC   D2B44107  17.155   4.428  11.738  0.1834  0.0341  0.1182
36090DOPC   C3B44108  17.517   4.660  11.921  0.1087 -0.1492 -0.1164
36090DOPC   C4B44109  17.939   4.864  12.128  0.0878 -0.1171  0.2431
36091DOPC   NC344110  20.068   1.687  10.957 -0.0188  0.1834 -0.1052
36091DOPC   PO444111  19.895   2.045  10.927 -0.0852 -0.2679  0.0444
36091DOPC   GL144112  19.976   2.250  11.313 -0.0651  0.3604  0.2590
36091DOPC   GL244113  20.074   2.071  11.424 -0.1585 -0.0829 -0.2571
36091DOPC   C1A44114  19.685   2.189  11.673  0.1460 -0.2209  0.1225
36091DOPC   D2A44115  19.256   2.143  11.969 -0.1548 -0.0076  0.0961
36091DOPC   C3A44116  18.851   2.212  12.206  0.0016  0.1582  0.0809
36091DOPC   C4A44117  18.507   2.305  12.487 -0.0520  0.0901  0.0643
36091DOPC   C1B44118  20.272   2.093  11.818  0.1932 -0.2945 -0.0283
36091DOPC   D2B44119  20.561   2.124  12.258  0.2300 -0.0309 -0.1039
36091DOPC   C3B44120  20.920   2.075  12.534  0.0973  0.0179  0.0169
36091DOPC   C4B44121  21.402   1.989  12.764 -0.2103 -0.2027  0.1000
36092DOPC   NC344122  25.511   3.214  11.233 -0.0241 -0.0867 -0.0890
36092DOPC   PO444123  25.903   3.253  11.165  0.1632 -0.0490  0.0411
36092DOPC   GL144124  25.826   3.205  11.591  0.1082  0.2342 -0.2441
36092DOPC   GL244125  26.175   3.191  11.579 -0.3892 -0.2768 -0.1463
36092DOPC   C1A44126  26.026   3.327  12.004  0.1290 -0.1586 -0.1818
36092DOPC   D2A44127  26.125   3.552  12.459 -0.0334  0.1869  0.0605
36092DOPC   C3A44128  25.720   3.782  12.651  0.0329  0.1208  0.4263
36092DOPC   C4A44129  25.502   4.134  12.968  0.0035 -0.0797 -0.1832
36092DOPC   C1B44130  26.576   2.982  11.800  0.1963 -0.1457  0.2708
36092DOPC   D2B44131  26.606   2.775  12.183 -0.2189 -0.0022  0.2605
36092DOPC   C3B44132  26.905   3.192  12.257 -0.0240  0.0437  0.2048
36092DOPC   C4B44133  27.363   3.013  12.454 -0.0158 -0.0393  0.1306
36093DOPC   NC344134  22.394   5.714  11.014 -0.2968  0.4285  0.4467
36093DOPC   PO444135  22.065   5.903  10.952  0.1840 -0.1748 -0.0760
36093DOPC   GL144136  21.732   5.931  11.228  0.2127  0.1188  0.2463
36093DOPC   GL244137  21.882   6.135  11.363 -0.1898  0.2035 -0.1196
36093DOPC   C1A44138  21.475   5.722  11.520 -0.1072  0.0410 -0.3040
36093DOPC   D2A44139  21.501   5.844  12.066  0.1330 -0.0209 -0.0450
36093DOPC   C3A44140  21.761   5.533  12.272  0.0276 -0.0389 -0.0674
36093DOPC   C4A44141  22.056   5.225  12.534  0.0893  0.0494  0.3781
36093DOPC   C1B44142  21.716   6.283  11.761 -0.0832  0.2320  0.0312
36093DOPC   D2B44143  21.575   6.481  12.168 -0.0153  0.2073  0.0574
36093DOPC   C3B44144  21.571   6.797  12.502  0.3649  0.0456 -0.0146
36093DOPC   C4B44145  21.516   6.977  12.968  0.2636  0.2704 -0.1781
36094DOPC   NC344146  17.802   6.740  10.317  0.0171  0.3937  0.1248
36094DOPC   PO444147  17.926   6.478  10.622 -0.2991 -0.2033 -0.1093
36094DOPC   GL144148  17.885   6.494  11.051 -0.1114 -0.1436  0.0115
36094DOPC   GL244149  18.230   6.356  11.089  0.1030 -0.4357 -0.2027
36094DOPC   C1A44150  17.544   6.391  11.314 -0.3056 -0.1989 -0.1566
36094DOPC   D2A44151  17.245   6.360  11.698  0.0780 -0.0127 -0.1132
36094DOPC   C3A44152  17.234   6.215  12.117 -0.0299  0.0058 -0.2305
36094DOPC   C4A44153  17.453   5.905  12.458 -0.0273  0.1401 -0.0987
36094DOPC   C1B44154  18.142   6.389  11.553  0.1002  0.0804  0.3364
36094DOPC   D2B44155  18.281   6.505  12.026  0.1903 -0.3026 -0.0915
36094DOPC   C3B44156  18.602   6.392  12.371  0.0764  0.2021 -0.0208
36094DOPC   C4B44157  18.880   6.212  12.661  0.0128  0.2792  0.1724
36095DOPC   NC344158  29.711   0.079  11.523  0.0857  0.4723  0.0930
36095DOPC   PO444159  29.426  -0.177  11.382 -0.0841  0.0575  0.1091
36095DOPC   GL144160  29.195  -0.436  11.682 -0.1076 -0.0147 -0.2010
36095DOPC   GL244161  29.420  -0.339  11.797 -0.0252 -0.1635  0.1826
36095DOPC   C1A44162  28.885  -0.269  11.877  0.1323  0.1922  0.0725
36095DOPC   D2A44163  28.612   0.042  12.101 -0.0821  0.1013  0.0975
36095DOPC   C3A44164  28.135   0.162  12.120  0.0756  0.0708  0.1986
36095DOPC   C4A44165  27.873   0.587  12.066  0.4441 -0.1731  0.0604
36095DOPC   C1B44166  29.393  -0.162  12.227  0.0615  0.1908  0.0238
36095DOPC   D2B44167  29.365  -0.205  12.747  0.1474  0.2473 -0.0497
36095DOPC   C3B44168  29.182  -0.624  12.843  0.1584  0.1363 -0.1346
36095DOPC   C4B44169  29.019  -1.057  13.070  0.0679  0.0117  0.0769
36096DOPC   NC344170  16.847   7.701  10.693 -0.2557  0.0727  0.1506
36096DOPC   PO444171  16.558   7.778  10.955 -0.3015  0.0758  0.0195
36096DOPC   GL144172  16.818   7.899  11.281  0.0720  0.2411  0.1251
36096DOPC   GL244173  16.553   7.938  11.364 -0.0930 -0.2291  0.0694
36096DOPC   C1A44174  17.133   7.840  11.581 -0.0395 -0.3257 -0.1863
36096DOPC   D2A44175  17.529   7.715  11.872 -0.0175  0.2851  0.1940
36096DOPC   C3A44176  17.689   7.472  12.257  0.0365 -0.1501  0.1528
36096DOPC   C4A44177  17.650   7.454  12.798 -0.1305  0.1091  0.2467
36096DOPC   C1B44178  16.752   8.170  11.717 -0.0133 -0.0342 -0.3073
36096DOPC   D2B44179  16.835   8.301  12.168  0.2247 -0.2892  0.0555
36096DOPC   C3B44180  17.137   8.124  12.452  0.0353 -0.0880 -0.3203
36096DOPC   C4B44181  17.434   7.937  12.874 -0.1557 -0.2861  0.1224
36097DOPC   NC344182  22.925   7.304  10.736  0.3458  0.3226  0.2511
36097DOPC   PO444183  22.650   7.006  10.768  0.0597 -0.0644 -0.1861
36097DOPC   GL144184  22.378   7.161  11.164  0.1999 -0.2842  0.1870
36097DOPC   GL244185  22.279   6.860  11.151 -0.2644  0.0920  0.0061
36097DOPC   C1A44186  22.504   7.343  11.529  0.2455  0.0978 -0.3905
36097DOPC   D2A44187  22.364   7.732  11.811 -0.0419  0.3134  0.0608
36097DOPC   C3A44188  22.013   7.686  12.132  0.1875  0.0394  0.1349
36097DOPC   C4A44189  21.648   7.631  12.405 -0.2610  0.1534 -0.1526
36097DOPC   C1B44190  22.203   6.639  11.557 -0.0251 -0.2454 -0.3448
36097DOPC   D2B44191  22.083   6.500  12.032 -0.0158 -0.2512 -0.0294
36097DOPC   C3B44192  21.969   6.064  12.262  0.2148 -0.0330 -0.0332
36097DOPC   C4B44193  21.897   5.757  12.648 -0.1477  0.0695 -0.3105
36098DOPC   NC344194  10.602   4.350  10.904 -0.1242  0.0230 -0.0225
36098DOPC   PO444195  11.010   4.429  10.892  0.1646 -0.0320 -0.1169
36098DOPC   GL144196  11.143   4.434  11.259  0.3316 -0.1483 -0.1699
36098DOPC   GL244197  11.351   4.289  11.368 -0.1424  0.2726 -0.0414
36098DOPC   C1A44198  10.930   4.514  11.615 -0.2436  0.1933  0.1271
36098DOPC   D2A44199  10.718   4.669  12.011  0.1401  0.2194  0.0399
36098DOPC   C3A44200  10.868   4.987  12.248 -0.1988 -0.0099 -0.0728
36098DOPC   C4A44201  10.986   5.449  12.197 -0.0892 -0.2543  0.0727
36098DOPC   C1B44202  11.521   4.376  11.787 -0.2231  0.2347  0.3120
36098DOPC   D2B44203  11.779   4.557  12.223 -0.2072 -0.1136 -0.1642
36098DOPC   C3B44204  11.658   4.644  12.680  0.0240 -0.2429 -0.1853
36098DOPC   C4B44205  11.610   5.018  13.007  0.1605 -0.0321 -0.0731
36099DOPC   NC344206  25.493   4.512  10.753 -0.0291  0.0223  0.0303
36099DOPC   PO444207  25.229   4.510  11.016 -0.0381 -0.0978  0.1405
36099DOPC   GL144208  25.415   4.304  11.312  0.2091 -0.1995 -0.4339
36099DOPC   GL244209  25.176   4.166  11.425 -0.0314 -0.2174  0.3046
36099DOPC   C1A44210  25.512   4.625  11.712  0.2456  0.0745 -0.0889
36099DOPC   D2A44211  25.350   4.885  12.119 -0.3064 -0.2237  0.2437
36099DOPC   C3A44212  24.907   5.028  12.168 -0.1442 -0.1816 -0.0852
36099DOPC   C4A44213  24.414   4.948  12.136  0.2952  0.0350 -0.1447
36099DOPC   C1B44214  25.046   4.238  11.797 -0.2848 -0.2134 -0.0760
36099DOPC   D2B44215  25.063   4.395  12.262 -0.4084  0.1129  0.1412
36099DOPC   C3B44216  25.054   4.196  12.672  0.1395 -0.3583 -0.1918
36099DOPC   C4B44217  24.859   4.000  13.138 -0.0291 -0.1402  0.2301
36100DOPC   NC344218  18.199   0.836  10.668  0.0011 -0.1331  0.2031
36100DOPC   PO444219  17.852   0.635  10.641 -0.1170 -0.3297  0.1109
36100DOPC   GL144220  17.619   0.634  11.132  0.1895  0.2406  0.3371
36100DOPC   GL244221  17.811   0.736  11.082 -0.0200 -0.2150  0.1097
36100DOPC   C1A44222  17.455   0.757  11.511  0.1433 -0.1503 -0.0988
36100DOPC   D2A44223  17.318   1.159  11.829 -0.1102  0.0807 -0.0913
36100DOPC   C3A44224  17.667   1.314  12.111 -0.1210 -0.1284  0.3952
36100DOPC   C4A44225  18.080   1.463  12.325 -0.0535 -0.1884 -0.2042
36100DOPC   C1B44226  17.856   1.177  11.258 -0.0719 -0.2860 -0.1865
36100DOPC   D2B44227  17.692   1.465  11.602  0.0649  0.1035 -0.0241
36100DOPC   C3B44228  17.845   1.734  11.945 -0.0449  0.0108  0.2542
36100DOPC   C4B44229  18.120   2.084  12.205 -0.1940 -0.0756  0.1546
36101DOPC   NC344230  13.862   3.955  10.873  0.1923 -0.1209 -0.1858
36101DOPC   PO444231  13.500   3.762  10.960 -0.1456  0.1981 -0.0255
36101DOPC   GL144232  13.528   3.738  11.410  0.3204 -0.0417 -0.0703
36101DOPC   GL244233  13.609   4.055  11.271 -0.3139  0.0840  0.1105
36101DOPC   C1A44234  13.202   3.777  11.720 -0.1475  0.2845 -0.0251
36101DOPC   D2A44235  12.926   3.858  12.209  0.1533 -0.0289  0.0142
36101DOPC   C3A44236  13.084   4.035  12.557  0.3199 -0.0559  0.0730
36101DOPC   C4A44237  13.328   4.151  12.947 -0.2263  0.1593  0.0264
36101DOPC   C1B44238  13.453   4.221  11.730  0.0401  0.0774 -0.0457
36101DOPC   D2B44239  13.128   4.306  12.058 -0.0136  0.1386  0.2064
36101DOPC   C3B44240  13.490   4.350  12.257 -0.1576 -0.3029  0.0148
36101DOPC   C4B44241  13.705   4.429  12.701  0.0633 -0.0432  0.0890
36102DOPC   NC344242  28.200   5.670  11.110  0.0602  0.0377  0.0534
36102DOPC   PO444243  27.909   5.472  11.121 -0.2018  0.0012 -0.1833
36102DOPC   GL144244  27.764   5.261  11.434  0.1721 -0.0050  0.0287
36102DOPC   GL244245  27.817   4.942  11.393 -0.2327  0.2008  0.2533
36102DOPC   C1A44246  27.463   5.368  11.755 -0.1130 -0.0587 -0.0883
36102DOPC   D2A44247  27.263   5.431  12.198 -0.0083 -0.0431  0.2090
36102DOPC   C3A44248  27.047   5.172  12.539  0.0029  0.0609 -0.3698
36102DOPC   C4A44249  27.195   5.474  12.954  0.2915 -0.1343  0.0436
36102DOPC   C1B44250  28.004   4.905  11.800 -0.1170  0.2085  0.1232
36102DOPC   D2B44251  28.063   4.876  12.263 -0.0152 -0.0899  0.2579
36102DOPC   C3B44252  28.264   4.570  12.512  0.0560  0.0933  0.0571
36102DOPC   C4B44253  28.392   4.228  12.794 -0.1555  0.0900  0.0859
36103DOPC   NC344254  27.313   2.867  10.985  0.0187  0.1761  0.2294
36103DOPC   PO444255  27.397   2.505  11.022  0.1493 -0.1912  0.0052
36103DOPC   GL144256  27.271   2.409  11.458 -0.3245  0.2240 -0.5081
36103DOPC   GL244257  27.040   2.550  11.420  0.0923  0.1830 -0.2829
36103DOPC   C1A44258  27.419   2.435  11.881  0.1635 -0.0470 -0.0950
36103DOPC   D2A44259  27.602   2.093  12.194  0.0513 -0.0075 -0.0311
36103DOPC   C3A44260  27.769   1.932  12.595  0.2593 -0.2107 -0.1723
36103DOPC   C4A44261  27.959   1.840  12.970 -0.0952  0.0957  0.0022
36103DOPC   C1B44262  26.854   2.378  11.746 -0.2947 -0.2190 -0.0898
36103DOPC   D2B44263  26.575   2.000  11.965  0.4156 -0.2675 -0.2010
36103DOPC   C3B44264  26.709   1.833  12.405 -0.3324 -0.1417  0.2501
36103DOPC   C4B44265  26.852   1.859  12.853  0.0095  0.4725 -0.1968
36104DOPC   NC344266   7.125   3.537  11.051  0.2618 -0.1936  0.1382
36104DOPC   PO444267   6.924   3.181  11.066 -0.0399  0.2678 -0.0455
36104DOPC   GL144268   6.975   2.963  11.380 -0.2668 -0.1728 -0.0594
36104DOPC   GL244269   6.985   3.109  11.655  0.0176 -0.0681  0.1881
36104DOPC   C1A44270   7.184   2.737  11.672  0.2104 -0.0983 -0.2041
36104DOPC   D2A44271   7.562   2.649  11.964 -0.1215  0.0987  0.0768
36104DOPC   C3A44272   7.790   2.342  12.270  0.1523  0.1132  0.1522
36104DOPC   C4A44273   7.692   2.257  12.735  0.1896  0.1113  0.0356
36104DOPC   C1B44274   7.037   2.997  12.082 -0.2145  0.2148 -0.1793
36104DOPC   D2B44275   6.631   2.990  12.384 -0.1077 -0.3330  0.1696
36104DOPC   C3B44276   6.411   2.534  12.472 -0.1049  0.3061  0.1618
36104DOPC   C4B44277   6.317   2.053  12.522  0.1880 -0.3908  0.0596
36105DOPC   NC344278  21.773   4.341  11.055  0.2999 -0.0108 -0.0338
36105DOPC   PO444279  21.842   4.654  10.800  0.0271  0.4275 -0.3026
36105DOPC   GL144280  21.607   5.010  11.004 -0.3922 -0.1899  0.2090
36105DOPC   GL244281  21.555   4.810  11.235 -0.1450  0.0823  0.3161
36105DOPC   C1A44282  21.607   5.217  11.362  0.3518 -0.0782  0.2401
36105DOPC   D2A44283  21.706   5.378  11.803  0.0984  0.0649  0.1308
36105DOPC   C3A44284  21.358   5.244  12.085  0.1856 -0.0769  0.2438
36105DOPC   C4A44285  20.977   5.184  12.418 -0.1925 -0.3259  0.0398
36105DOPC   C1B44286  21.276   4.896  11.566 -0.0777  0.0080  0.0216
36105DOPC   D2B44287  21.020   4.592  11.846 -0.1693  0.1063  0.1121
36105DOPC   C3B44288  20.616   4.822  12.104  0.1318 -0.0839 -0.0066
36105DOPC   C4B44289  20.215   4.899  12.439 -0.0783  0.1414 -0.0227
36106DOPC   NC344290  21.815   4.039  10.584  0.0170 -0.1716  0.1025
36106DOPC   PO444291  21.603   3.909  10.886  0.2817  0.1156  0.0421
36106DOPC   GL144292  21.712   3.828  11.324  0.2590  0.2787 -0.0731
36106DOPC   GL244293  21.719   3.535  11.234 -0.1917 -0.1361  0.1153
36106DOPC   C1A44294  21.467   3.827  11.694 -0.1788  0.0951 -0.2174
36106DOPC   D2A44295  21.210   4.112  11.998 -0.0971  0.1074 -0.1154
36106DOPC   C3A44296  21.289   4.187  12.503 -0.1282 -0.0307 -0.2906
36106DOPC   C4A44297  21.294   4.524  12.879 -0.3671 -0.2060  0.0088
36106DOPC   C1B44298  21.929   3.394  11.576  0.2959  0.0366 -0.2680
36106DOPC   D2B44299  21.990   3.429  12.109 -0.1669 -0.2580  0.3025
36106DOPC   C3B44300  21.920   3.544  12.511 -0.1523 -0.2480  0.0907
36106DOPC   C4B44301  21.795   3.519  12.989  0.2113 -0.0848 -0.3467
36107DOPC   NC344302  10.096   2.821  11.389 -0.0188  0.0907  0.2362
36107DOPC   PO444303   9.948   3.087  11.072  0.4808  0.0113  0.0277
36107DOPC   GL144304   9.694   3.093  11.414 -0.1015 -0.2094  0.0618
36107DOPC   GL244305   9.871   3.211  11.489  0.1464  0.1558 -0.0638
36107DOPC   C1A44306   9.715   2.760  11.719  0.0017  0.0567  0.0349
36107DOPC   D2A44307  10.110   2.540  11.975  0.0826 -0.0685  0.1239
36107DOPC   C3A44308  10.230   2.849  12.320 -0.0161 -0.1889 -0.1779
36107DOPC   C4A44309  10.441   2.956  12.738 -0.0915  0.2676  0.0840
36107DOPC   C1B44310  10.132   3.116  11.906 -0.0182  0.1293 -0.0256
36107DOPC   D2B44311  10.557   3.147  12.223  0.1437 -0.1565  0.3003
36107DOPC   C3B44312  10.731   3.324  12.601 -0.4347 -0.3035  0.1896
36107DOPC   C4B44313  10.974   3.554  12.986 -0.0152  0.1492  0.1948
36108DOPC   NC344314  27.155   7.366  11.082  0.1412  0.1535 -0.0237
36108DOPC   PO444315  26.884   7.092  11.183 -0.0568  0.2172  0.0290
36108DOPC   GL144316  26.976   6.867  11.510  0.2320 -0.0367  0.1753
36108DOPC   GL244317  26.689   6.850  11.577 -0.1343  0.4730 -0.4491
36108DOPC   C1A44318  27.019   6.427  11.678  0.0778  0.1242  0.0087
36108DOPC   D2A44319  27.011   6.101  12.101 -0.2127 -0.2341 -0.0273
36108DOPC   C3A44320  27.198   6.252  12.488  0.1817 -0.0767 -0.3225
36108DOPC   C4A44321  27.531   6.260  12.860 -0.2006  0.1052 -0.0719
36108DOPC   C1B44322  26.622   6.734  12.006  0.1285  0.0561  0.2318
36108DOPC   D2B44323  26.566   6.877  12.474  0.0395  0.1225 -0.2376
36108DOPC   C3B44324  26.649   7.034  12.863 -0.0201 -0.2635 -0.1575
36108DOPC   C4B44325  26.787   7.150  13.280 -0.0138 -0.2356  0.0385
36109DOPC   NC344326  15.022   0.433  10.638  0.3415  0.0058  0.0298
36109DOPC   PO444327  15.207   0.781  10.668 -0.1530  0.0600 -0.1558
36109DOPC   GL144328  15.129   0.989  11.026 -0.1048  0.1002  0.2094
36109DOPC   GL244329  15.380   0.802  11.182  0.0534  0.0799 -0.0186
36109DOPC   C1A44330  14.880   1.021  11.357 -0.1813 -0.1615  0.3373
36109DOPC   D2A44331  14.557   1.083  11.751 -0.3262 -0.1652 -0.1723
36109DOPC   C3A44332  14.343   1.151  12.118  0.3926  0.0148  0.2544
36109DOPC   C4A44333  13.997   1.202  12.506 -0.4105  0.1097  0.2592
36109DOPC   C1B44334  15.374   0.943  11.586 -0.1603 -0.3058  0.0396
36109DOPC   D2B44335  15.531   0.853  12.032  0.1017 -0.0259 -0.0688
36109DOPC   C3B44336  15.496   1.148  12.456 -0.2181 -0.5159  0.1014
36109DOPC   C4B44337  15.241   1.470  12.746  0.0393  0.0509 -0.1345
36110DOPC   NC344338  17.613   2.353  10.733 -0.2111 -0.2023  0.1615
36110DOPC   PO444339  17.363   2.038  10.678  0.2657  0.0219  0.1547
36110DOPC   GL144340  17.486   1.944  11.058  0.0170  0.3713 -0.2493
36110DOPC   GL244341  17.436   2.219  11.125 -0.2810 -0.1550  0.0930
36110DOPC   C1A44342  17.743   1.876  11.363  0.3519 -0.0276  0.0992
36110DOPC   D2A44343  18.196   1.994  11.567  0.2498  0.4246 -0.2250
36110DOPC   C3A44344  18.433   1.741  11.908  0.1306 -0.1465  0.1221
36110DOPC   C4A44345  18.600   1.799  12.320 -0.1005 -0.0066 -0.2831
36110DOPC   C1B44346  17.264   2.073  11.581 -0.2012  0.0955 -0.0839
36110DOPC   D2B44347  17.386   1.978  12.053 -0.0803 -0.0563  0.1064
36110DOPC   C3B44348  17.674   1.777  12.411 -0.2865  0.1188  0.3261
36110DOPC   C4B44349  18.150   1.828  12.659  0.0599  0.0133 -0.0324
36111DOPC   NC344350  18.483   1.950  10.006  0.0958  0.1708 -0.1277
36111DOPC   PO444351  18.798   2.123  10.194 -0.0919 -0.0770  0.0539
36111DOPC   GL144352  18.892   2.040  10.589  0.0165  0.0174 -0.0242
36111DOPC   GL244353  18.602   2.047  10.653 -0.1158 -0.4629  0.0960
36111DOPC   C1A44354  19.009   1.849  10.926 -0.0396 -0.0241  0.0718
36111DOPC   D2A44355  19.180   1.886  11.386  0.2282 -0.0839 -0.4317
36111DOPC   C3A44356  19.208   2.421  11.544  0.2343  0.0977 -0.1599
36111DOPC   C4A44357  19.124   2.731  11.279 -0.1037 -0.0106 -0.0383
36111DOPC   C1B44358  18.502   1.987  11.139 -0.1120  0.2560 -0.1173
36111DOPC   D2B44359  18.768   2.146  11.546 -0.2152  0.1575  0.0210
36111DOPC   C3B44360  18.442   2.251  11.877  0.0283  0.1928 -0.2183
36111DOPC   C4B44361  18.380   2.650  12.179  0.0243  0.2529  0.1971
36112DOPC   NC344362   1.800   3.461  11.407 -0.0738 -0.0585 -0.0409
36112DOPC   PO444363   1.918   3.166  11.638 -0.0104  0.0737 -0.1717
36112DOPC   GL144364   1.982   3.135  12.032  0.0036 -0.4477 -0.2245
36112DOPC   GL244365   1.733   3.132  12.119 -0.1550 -0.1098 -0.0639
36112DOPC   C1A44366   2.136   3.226  12.433  0.0095  0.0683  0.2550
36112DOPC   D2A44367   2.470   2.961  12.655 -0.0141 -0.3547 -0.0495
36112DOPC   C3A44368   2.604   2.879  13.071  0.0277  0.0691 -0.0170
36112DOPC   C4A44369   2.827   2.863  13.503 -0.1904  0.0135 -0.2393
36112DOPC   C1B44370   1.692   3.569  12.263  0.0428  0.0657  0.0959
36112DOPC   D2B44371   1.542   3.993  12.532  0.1595 -0.0097  0.0801
36112DOPC   C3B44372   1.803   4.121  12.874 -0.2336 -0.2549 -0.0227
36112DOPC   C4B44373   2.071   4.266  13.254  0.1123 -0.0058 -0.1224
36113DOPC   NC344374  14.255   5.451  10.925 -0.2049 -0.0500  0.2189
36113DOPC   PO444375  14.482   5.123  11.002  0.2151  0.0917  0.2078
36113DOPC   GL144376  14.456   5.048  11.420  0.2985  0.0350  0.0316
36113DOPC   GL244377  14.183   5.150  11.412  0.1220 -0.4589 -0.2207
36113DOPC   C1A44378  14.659   4.824  11.712  0.1056 -0.2033 -0.0577
36113DOPC   D2A44379  14.882   4.637  12.144 -0.2249  0.0548  0.0331
36113DOPC   C3A44380  15.031   4.317  12.450  0.1732  0.1714 -0.2348
36113DOPC   C4A44381  15.121   4.025  12.815  0.1856  0.2772 -0.3583
36113DOPC   C1B44382  14.037   4.952  11.722  0.0059 -0.1909 -0.2174
36113DOPC   D2B44383  13.860   4.812  12.208  0.1241 -0.0444 -0.2008
36113DOPC   C3B44384  13.504   4.842  12.560  0.0300 -0.0254 -0.2381
36113DOPC   C4B44385  13.325   4.654  12.947  0.2414  0.2094  0.1042
36114DOPC   NC344386  14.184   3.152  11.307  0.0328  0.0097  0.1164
36114DOPC   PO444387  13.937   3.004  10.965 -0.0648  0.2866 -0.0042
36114DOPC   GL144388  13.789   2.805  11.220 -0.0828 -0.0567 -0.0284
36114DOPC   GL244389  14.020   2.710  11.391  0.1621  0.1520 -0.1051
36114DOPC   C1A44390  13.593   2.917  11.585 -0.0176  0.3404 -0.2585
36114DOPC   D2A44391  13.343   2.835  12.025  0.2644 -0.0833  0.2103
36114DOPC   C3A44392  13.047   2.960  12.387  0.2718  0.0298  0.1460
36114DOPC   C4A44393  12.833   2.897  12.850  0.0142  0.1671  0.1892
36114DOPC   C1B44394  14.017   2.904  11.794 -0.0688  0.0575 -0.1436
36114DOPC   D2B44395  14.216   3.041  12.252 -0.0987  0.0641  0.1198
36114DOPC   C3B44396  13.960   3.067  12.654  0.0617  0.2016  0.0557
36114DOPC   C4B44397  13.658   2.991  13.023 -0.1117 -0.4026  0.0945
36115DOPC   NC344398  19.746   2.900  10.881 -0.1918 -0.0195 -0.0699
36115DOPC   PO444399  19.833   2.808  11.241  0.0727 -0.1331  0.0147
36115DOPC   GL144400  19.642   2.620  11.596 -0.3391 -0.1376 -0.3278
36115DOPC   GL244401  19.962   2.674  11.672 -0.2748  0.1229 -0.1386
36115DOPC   C1A44402  19.340   2.606  11.988  0.0332  0.0295 -0.0745
36115DOPC   D2A44403  19.157   2.487  12.427 -0.2330 -0.3549 -0.0951
36115DOPC   C3A44404  19.481   2.490  12.782 -0.0191  0.2162  0.1253
36115DOPC   C4A44405  19.744   2.576  13.192  0.1168 -0.2557  0.0152
36115DOPC   C1B44406  19.990   2.447  12.033  0.0793  0.2904  0.2377
36115DOPC   D2B44407  20.068   2.144  12.421 -0.1131 -0.1465  0.3892
36115DOPC   C3B44408  20.047   2.579  12.594  0.2982  0.0201 -0.3319
36115DOPC   C4B44409  20.209   2.950  12.469  0.0868  0.0234  0.1455
36116DOPC   NC344410  20.113   2.514  10.954  0.1785  0.1422  0.2184
36116DOPC   PO444411  20.341   2.595  11.265 -0.0033  0.0228 -0.0634
36116DOPC   GL144412  20.377   2.790  11.604  0.1327 -0.0554 -0.0567
36116DOPC   GL244413  20.325   2.556  11.780  0.0857  0.0044 -0.0011
36116DOPC   C1A44414  20.762   2.954  11.828 -0.1717 -0.0842 -0.1890
36116DOPC   D2A44415  21.183   3.011  12.098  0.3519  0.1812  0.0035
36116DOPC   C3A44416  21.234   3.122  12.571 -0.0668  0.1741  0.3308
36116DOPC   C4A44417  21.235   2.883  13.003  0.1031  0.0938 -0.1651
36116DOPC   C1B44418  20.468   2.619  12.198  0.0607 -0.0596 -0.2364
36116DOPC   D2B44419  20.575   2.545  12.644  0.1859  0.2488 -0.2840
36116DOPC   C3B44420  20.725   2.672  13.024 -0.0785 -0.0210  0.0657
36116DOPC   C4B44421  20.752   2.541  13.491  0.1582 -0.0586 -0.1594
36117DOPC   NC344422  11.361   6.687  10.732 -0.0099  0.0798 -0.2426
36117DOPC   PO444423  11.732   6.494  10.790  0.2263 -0.2716  0.1102
36117DOPC   GL144424  11.650   6.617  11.203  0.0890 -0.0883  0.1170
36117DOPC   GL244425  11.353   6.737  11.152 -0.1034  0.0412 -0.2383
36117DOPC   C1A44426  11.727   6.709  11.648 -0.0587  0.2093  0.0309
36117DOPC   D2A44427  11.865   6.930  12.031 -0.5062 -0.1929  0.0297
36117DOPC   C3A44428  11.972   7.292  12.335  0.0688 -0.2789 -0.1029
36117DOPC   C4A44429  12.094   7.737  12.504 -0.1063 -0.0269 -0.4882
36117DOPC   C1B44430  11.090   6.861  11.523  0.0855  0.0562 -0.0630
36117DOPC   D2B44431  10.998   7.179  11.854 -0.2599  0.0143 -0.3071
36117DOPC   C3B44432  11.202   7.543  11.936  0.2178 -0.1304  0.0296
36117DOPC   C4B44433  11.513   7.802  11.631 -0.2270  0.1642 -0.0601
36118DOPC   NC344434   9.007   7.419  10.556 -0.0373 -0.0561 -0.0770
36118DOPC   PO444435   8.891   7.701  10.773  0.3186  0.2108  0.2795
36118DOPC   GL144436   8.985   7.560  11.153  0.0973 -0.0831 -0.0930
36118DOPC   GL244437   9.265   7.708  11.042 -0.0104  0.2769  0.0448
36118DOPC   C1A44438   8.697   7.381  11.449 -0.0868  0.2711  0.4301
36118DOPC   D2A44439   8.331   7.600  11.704 -0.0295 -0.2908  0.0161
36118DOPC   C3A44440   8.122   7.472  12.050  0.0721 -0.0430  0.2190
36118DOPC   C4A44441   7.836   7.256  12.335  0.1528 -0.1101 -0.0876
36118DOPC   C1B44442   9.703   7.489  11.190 -0.0876 -0.1532  0.1156
36118DOPC   D2B44443   9.784   7.348  11.670  0.1340  0.2565  0.1791
36118DOPC   C3B44444   9.416   7.545  12.005  0.1192 -0.1163  0.1398
36118DOPC   C4B44445   9.113   7.858  12.150  0.0419 -0.0364  0.0431
36119DOPC   NC344446  10.894   3.382  10.942 -0.0113  0.4430  0.0471
36119DOPC   PO444447  10.577   3.154  11.091  0.2228 -0.0327 -0.0222
36119DOPC   GL144448  10.464   3.086  11.402  0.3294  0.0687  0.0384
36119DOPC   GL244449  10.307   3.341  11.522 -0.2916 -0.1508 -0.1412
36119DOPC   C1A44450  10.583   2.844  11.808  0.4568 -0.3401 -0.1357
36119DOPC   D2A44451  10.963   2.743  12.079 -0.0834 -0.0054  0.2169
36119DOPC   C3A44452  10.995   2.778  12.519  0.2451 -0.0341 -0.1917
36119DOPC   C4A44453  11.128   2.943  12.942  0.0710 -0.2018 -0.2458
36119DOPC   C1B44454  10.376   3.575  11.849 -0.1202  0.1764 -0.5104
36119DOPC   D2B44455  10.465   3.788  12.271  0.0722  0.1562  0.2501
36119DOPC   C3B44456  10.773   3.842  12.634 -0.1548  0.0312  0.0199
36119DOPC   C4B44457  10.754   4.064  13.077  0.2220  0.0829 -0.3603
36120DOPC   NC344458   4.456   2.714  11.464 -0.2690  0.0289 -0.0996
36120DOPC   PO444459   4.168   2.459  11.379  0.1530  0.2202  0.0057
36120DOPC   GL144460   3.861   2.608  11.570  0.0506  0.0635  0.1325
36120DOPC   GL244461   4.003   2.416  11.830  0.1559  0.0779 -0.0589
36120DOPC   C1A44462   3.545   2.916  11.755 -0.1877 -0.1732  0.1001
36120DOPC   D2A44463   3.448   3.173  12.146  0.2490  0.1050  0.1050
36120DOPC   C3A44464   3.700   3.244  12.547 -0.0480  0.1199 -0.2190
36120DOPC   C4A44465   3.883   3.531  12.869 -0.0087 -0.2648 -0.0090
36120DOPC   C1B44466   3.973   2.722  11.982  0.1180 -0.3302  0.1131
36120DOPC   D2B44467   4.018   3.161  12.159 -0.1873 -0.0218  0.0328
36120DOPC   C3B44468   4.146   3.074  12.619  0.3084  0.1576 -0.2077
36120DOPC   C4B44469   4.241   3.137  13.103  0.0742  0.0427 -0.1257
36121DOPC   NC344470  29.059   0.235  11.363 -0.0570 -0.4563  0.1120
36121DOPC   PO444471  29.207   0.617  11.272  0.1597 -0.2272 -0.1075
36121DOPC   GL144472  29.239   0.529  11.700  0.1059 -0.3211 -0.1391
36121DOPC   GL244473  29.215   0.859  11.701  0.1060 -0.1255  0.2495
36121DOPC   C1A44474  29.071   0.168  12.021 -0.3157  0.1343  0.1162
36121DOPC   D2A44475  28.962   0.109  12.470 -0.0988 -0.1971  0.0861
36121DOPC   C3A44476  28.530  -0.121  12.556 -0.1090 -0.3260  0.0727
36121DOPC   C4A44477  28.204  -0.389  12.686 -0.0937  0.1339 -0.1385
36121DOPC   C1B44478  29.424   0.796  12.149  0.0265 -0.2199  0.1312
36121DOPC   D2B44479  29.397   0.769  12.724  0.2155 -0.1181 -0.0489
36121DOPC   C3B44480  29.042   0.833  12.965  0.2085  0.1347  0.1730
36121DOPC   C4B44481  28.616   0.896  13.293 -0.0688  0.0162  0.1411
36122DOPC   NC344482   8.619   5.211  10.970 -0.1338  0.0938 -0.0085
36122DOPC   PO444483   8.369   4.934  11.086  0.0700  0.0772 -0.1915
36122DOPC   GL144484   8.229   4.859  11.507  0.1520 -0.3762  0.1790
36122DOPC   GL244485   8.506   4.698  11.528  0.2255  0.0233  0.4429
36122DOPC   C1A44486   8.020   5.103  11.837  0.0181  0.2542 -0.0222
36122DOPC   D2A44487   7.819   5.331  12.241  0.0424  0.3764  0.1395
36122DOPC   C3A44488   7.457   5.583  12.208  0.2273 -0.0716 -0.4449
36122DOPC   C4A44489   6.997   5.512  12.275  0.0883 -0.0426 -0.0680
36122DOPC   C1B44490   8.493   4.866  11.926  0.3008 -0.0489  0.1338
36122DOPC   D2B44491   8.645   4.912  12.437 -0.0400  0.1925 -0.1353
36122DOPC   C3B44492   8.956   5.116  12.785 -0.1993 -0.1780  0.1764
36122DOPC   C4B44493   9.099   5.194  13.246  0.0712  0.2202  0.0548
36123DOPC   NC344494  23.441   5.236  11.016 -0.1822 -0.1074 -0.2021
36123DOPC   PO444495  23.535   5.624  11.025 -0.1023 -0.1546  0.0196
36123DOPC   GL144496  23.704   5.641  11.362 -0.4354  0.0671  0.0106
36123DOPC   GL244497  24.003   5.623  11.323  0.0205  0.0436  0.1156
36123DOPC   C1A44498  23.577   5.874  11.715 -0.0054  0.2851  0.1802
36123DOPC   D2A44499  23.638   5.970  12.211 -0.0572  0.1354  0.1374
36123DOPC   C3A44500  23.233   6.164  12.408  0.0488  0.3834  0.4145
36123DOPC   C4A44501  22.786   6.170  12.554  0.1592 -0.1474 -0.0887
36123DOPC   C1B44502  24.241   5.795  11.698  0.1082  0.2275  0.1121
36123DOPC   D2B44503  24.391   6.092  12.130  0.2140 -0.2294  0.2616
36123DOPC   C3B44504  24.065   5.870  12.432  0.3322  0.1557  0.1630
36123DOPC   C4B44505  23.771   5.794  12.780 -0.1119  0.1081 -0.2154
36124DOPC   NC344506   8.294   5.561  10.434 -0.0446  0.0485 -0.0080
36124DOPC   PO444507   8.576   5.823  10.611  0.0318 -0.1736  0.1244
36124DOPC   GL144508   8.795   5.706  11.014  0.1636  0.1816  0.2305
36124DOPC   GL244509   8.569   5.647  11.090 -0.0868  0.3592  0.3842
36124DOPC   C1A44510   9.003   5.943  11.240 -0.1557  0.2133  0.0001
36124DOPC   D2A44511   9.130   5.846  11.702  0.0806 -0.0040 -0.0305
36124DOPC   C3A44512   9.139   6.012  12.106  0.0777  0.4442 -0.1141
36124DOPC   C4A44513   9.076   6.136  12.593  0.1206  0.0024 -0.0823
36124DOPC   C1B44514   8.453   5.902  11.468 -0.2722  0.0762 -0.1780
36124DOPC   D2B44515   8.291   6.074  11.935 -0.1104  0.2452  0.4205
36124DOPC   C3B44516   8.003   6.388  12.133  0.2108  0.1537 -0.1284
36124DOPC   C4B44517   7.647   6.253  12.435 -0.0974 -0.1471  0.1716
36125DOPC   NC344518  21.793   5.076  10.593  0.0567  0.0735  0.2510
36125DOPC   PO444519  22.120   5.071  10.758  0.1458  0.0730  0.0829
36125DOPC   GL144520  22.199   5.273  11.191 -0.0090 -0.2333  0.1883
36125DOPC   GL244521  22.028   5.052  11.225 -0.1681 -0.1594  0.0810
36125DOPC   C1A44522  22.566   5.088  11.396 -0.0862  0.0617 -0.0577
36125DOPC   D2A44523  22.874   4.807  11.673  0.4288 -0.1226 -0.0658
36125DOPC   C3A44524  22.762   4.542  12.025 -0.1475 -0.0744  0.0123
36125DOPC   C4A44525  22.600   4.268  12.362  0.0965 -0.0951 -0.1437
36125DOPC   C1B44526  21.945   5.012  11.613 -0.1308  0.1698  0.0142
36125DOPC   D2B44527  21.876   4.952  12.120  0.1946  0.1926  0.1602
36125DOPC   C3B44528  21.516   4.789  12.384 -0.2991  0.5369 -0.2238
36125DOPC   C4B44529  21.101   4.657  12.416  0.1836  0.0747 -0.0966
36126DOPC   NC344530   0.687   1.579  11.267  0.3362  0.0314 -0.2085
36126DOPC   PO444531   0.673   1.974  11.263 -0.0195  0.0532 -0.0167
36126DOPC   GL144532   0.659   2.086  11.694 -0.0656  0.3402 -0.0180
36126DOPC   GL244533   0.473   1.903  11.728  0.2757  0.1846  0.0845
36126DOPC   C1A44534   0.556   2.082  12.146  0.0108 -0.3867 -0.0360
36126DOPC   D2A44535   0.487   2.027  12.684 -0.1991  0.1251  0.0398
36126DOPC   C3A44536   0.675   1.965  13.148  0.0151 -0.1046 -0.1835
36126DOPC   C4A44537   0.878   1.852  13.550  0.0896  0.2494 -0.4099
36126DOPC   C1B44538   0.486   1.623  11.978 -0.3715 -0.0592 -0.4132
36126DOPC   D2B44539   0.399   1.193  12.179 -0.0814 -0.1059  0.2437
36126DOPC   C3B44540   0.407   0.998  12.622 -0.1216  0.1182  0.1361
36126DOPC   C4B44541   0.139   0.928  13.093  0.1119 -0.0632 -0.0422
36127DOPC   NC344542  16.337   1.852  10.481  0.1995  0.2696  0.0765
36127DOPC   PO444543  16.138   2.122  10.681  0.1397  0.1483 -0.1358
36127DOPC   GL144544  16.182   2.191  11.135  0.1317  0.0415 -0.0369
36127DOPC   GL244545  15.856   2.234  11.142 -0.0221  0.3111  0.4129
36127DOPC   C1A44546  16.292   2.146  11.549 -0.3058  0.1214  0.1586
36127DOPC   D2A44547  16.364   1.963  12.008 -0.0515 -0.0177 -0.1974
36127DOPC   C3A44548  16.414   2.104  12.433 -0.2840 -0.0805 -0.1838
36127DOPC   C4A44549  16.702   2.313  12.773 -0.0314  0.2910 -0.0033
36127DOPC   C1B44550  15.569   2.368  11.427  0.0758  0.2341 -0.0120
36127DOPC   D2B44551  15.382   2.205  11.867 -0.1866  0.1038 -0.0677
36127DOPC   C3B44552  15.481   2.346  12.308 -0.0914  0.0714  0.1125
36127DOPC   C4B44553  15.256   2.563  12.613  0.3620 -0.0377  0.0460
36128DOPC   NC344554  11.983   4.015  10.977 -0.1128 -0.1092  0.1040
36128DOPC   PO444555  12.376   3.949  10.907  0.0102 -0.0724  0.3087
36128DOPC   GL144556  12.629   3.957  11.228  0.0640 -0.0122 -0.0371
36128DOPC   GL244557  12.560   3.727  11.361  0.2985  0.1128  0.0094
36128DOPC   C1A44558  12.677   4.251  11.579 -0.2819  0.1697 -0.2843
36128DOPC   D2A44559  12.753   4.643  11.906 -0.4371 -0.2581 -0.2396
36128DOPC   C3A44560  12.670   4.996  12.230 -0.0333 -0.0929 -0.3586
36128DOPC   C4A44561  12.414   5.294  12.526  0.1144  0.0948 -0.1274
36128DOPC   C1B44562  12.656   3.581  11.769  0.1142  0.0221 -0.2140
36128DOPC   D2B44563  13.092   3.354  12.051 -0.0699  0.1008  0.2305
36128DOPC   C3B44564  13.222   3.537  12.484  0.1699  0.2187  0.2660
36128DOPC   C4B44565  13.371   3.676  13.000 -0.3155 -0.1675  0.3831
36129DOPC   NC344566   9.403   0.710  10.868 -0.0434  0.0192 -0.0365
36129DOPC   PO444567   9.028   0.718  10.733  0.2847 -0.0656 -0.0863
36129DOPC   GL144568   8.869   0.583  11.103 -0.2069  0.0159  0.1069
36129DOPC   GL244569   9.074   0.782  11.228  0.0952  0.1890 -0.4628
36129DOPC   C1A44570   8.779   0.497  11.519 -0.1849 -0.1644 -0.0021
36129DOPC   D2A44571   9.024   0.533  11.955 -0.0484  0.1823 -0.2605
36129DOPC   C3A44572   9.150   0.785  12.320  0.0521 -0.3457 -0.1891
36129DOPC   C4A44573   8.994   0.959  12.724  0.4754  0.1675  0.0503
36129DOPC   C1B44574   9.203   0.911  11.638 -0.0798 -0.1262  0.0093
36129DOPC   D2B44575   9.548   0.981  11.995  0.2382 -0.1816 -0.0492
36129DOPC   C3B44576   9.714   0.714  12.312  0.0100 -0.1781 -0.0873
36129DOPC   C4B44577   9.892   0.300  12.575  0.0653 -0.1639 -0.1963
36130DOPC   NC344578  14.352   7.163  10.878 -0.1610 -0.1348 -0.1237
36130DOPC   PO444579  14.681   6.925  10.992 -0.4792  0.0341  0.2251
36130DOPC   GL144580  14.597   6.900  11.297 -0.1017 -0.2228 -0.2158
36130DOPC   GL244581  14.420   7.182  11.382  0.1571  0.0638  0.0991
36130DOPC   C1A44582  14.896   6.836  11.656  0.2823 -0.0971 -0.2129
36130DOPC   D2A44583  15.254   6.618  11.934 -0.0974  0.1897  0.1503
36130DOPC   C3A44584  15.360   6.886  12.334 -0.4033  0.0578 -0.2403
36130DOPC   C4A44585  15.531   6.962  12.836  0.1843 -0.0116 -0.0430
36130DOPC   C1B44586  14.071   7.234  11.654 -0.1767 -0.2397 -0.0581
36130DOPC   D2B44587  13.914   7.147  12.099 -0.0493  0.1181  0.0417
36130DOPC   C3B44588  13.688   6.835  12.455  0.1128 -0.1603 -0.0786
36130DOPC   C4B44589  13.512   6.502  12.748 -0.0790 -0.0002 -0.4334
36131DOPC   NC344590   5.917   5.100  11.309  0.2093 -0.2736  0.2894
36131DOPC   PO444591   5.757   5.456  11.198 -0.1007  0.0221  0.2488
36131DOPC   GL144592   5.798   5.629  11.545  0.1196  0.0396  0.0082
36131DOPC   GL244593   5.523   5.628  11.672 -0.3614  0.2886  0.3208
36131DOPC   C1A44594   6.191   5.603  11.745 -0.0264  0.0227 -0.3856
36131DOPC   D2A44595   6.481   5.572  12.200 -0.3933  0.3155 -0.0650
36131DOPC   C3A44596   6.632   5.570  12.641  0.0940  0.2446  0.1171
36131DOPC   C4A44597   6.859   5.568  13.096 -0.0885  0.0279  0.0716
36131DOPC   C1B44598   5.720   5.674  12.058  0.0954 -0.1167 -0.0619
36131DOPC   D2B44599   5.964   5.574  12.452  0.2721  0.2050  0.0910
36131DOPC   C3B44600   6.139   5.524  12.847  0.1400  0.2399  0.3030
36131DOPC   C4B44601   6.401   5.344  13.293  0.0284  0.0319  0.0237
36132DOPC   NC344602  31.266   7.600  11.916  0.0755  0.0705 -0.0103
36132DOPC   PO444603  31.490   7.274  11.996 -0.0151 -0.0766 -0.3434
36132DOPC   GL144604  31.683   7.573  12.226 -0.1776  0.0692 -0.0398
36132DOPC   GL244605  31.432   7.617  12.387 -0.1811 -0.1834  0.1594
36132DOPC   C1A44606  31.814   7.445  12.633 -0.1105 -0.0403  0.4204
36132DOPC   D2A44607  31.915   7.346  13.092 -0.0093 -0.0151 -0.1263
36132DOPC   C3A44608  31.919   7.187  13.515  0.1053 -0.0186 -0.0203
36132DOPC   C4A44609  32.097   6.771  13.654  0.0775 -0.1282  0.0899
36132DOPC   C1B44610  31.480   7.702  12.809 -0.2224 -0.1639  0.0185
36132DOPC   D2B44611  31.774   7.865  13.217  0.3695 -0.4034 -0.1101
36132DOPC   C3B44612  32.055   7.744  13.471  0.1184  0.0241 -0.0567
36132DOPC   C4B44613  31.912   7.567  13.873 -0.0904  0.0552  0.0210
36133DOPC   NC344614  26.369   0.922  10.873 -0.0210 -0.1278 -0.4529
36133DOPC   PO444615  26.267   0.696  11.150  0.0321  0.0005 -0.1079
36133DOPC   GL144616  26.012   0.770  11.536  0.0886  0.1750 -0.1734
36133DOPC   GL244617  26.271   0.781  11.657  0.2354  0.2086 -0.1848
36133DOPC   C1A44618  25.860   1.085  11.867 -0.2497 -0.0873  0.0141
36133DOPC   D2A44619  25.668   1.490  11.953 -0.0368  0.1564  0.1564
36133DOPC   C3A44620  25.465   1.386  12.384  0.1460 -0.3467  0.0018
36133DOPC   C4A44621  25.134   1.576  12.627 -0.0777 -0.0950  0.1819
36133DOPC   C1B44622  26.339   1.039  11.944 -0.2816  0.2973 -0.0949
36133DOPC   D2B44623  26.043   1.253  12.339  0.1717  0.0730 -0.1880
36133DOPC   C3B44624  25.851   1.221  12.715 -0.1856 -0.0384 -0.1164
36133DOPC   C4B44625  25.814   1.065  13.184 -0.2143  0.0199 -0.0689
36134DOPC   NC344626   3.056   6.108  11.459 -0.1498 -0.0305 -0.2058
36134DOPC   PO444627   3.249   6.176  11.773 -0.2133  0.0123 -0.0051
36134DOPC   GL144628   3.303   5.944  12.163  0.0122  0.0190  0.2030
36134DOPC   GL244629   3.095   6.248  12.191  0.2412 -0.1418 -0.0185
36134DOPC   C1A44630   3.202   5.781  12.583 -0.0845 -0.2332 -0.0385
36134DOPC   D2A44631   3.198   5.707  13.083  0.0371  0.1683  0.1505
36134DOPC   C3A44632   3.043   6.130  13.188  0.0932  0.1280  0.1025
36134DOPC   C4A44633   3.116   6.560  13.296 -0.0789  0.0123  0.0352
36134DOPC   C1B44634   2.788   5.960  12.308 -0.3258 -0.1055 -0.0860
36134DOPC   D2B44635   2.728   5.677  12.703  0.0172 -0.0629 -0.1657
36134DOPC   C3B44636   2.571   5.672  13.101  0.2100  0.0294 -0.1618
36134DOPC   C4B44637   2.267   5.576  13.485 -0.1405 -0.0014  0.0702
36135DOPC   NC344638   3.197   6.888  11.262  0.0298 -0.2749 -0.1123
36135DOPC   PO444639   3.239   6.660  11.619  0.2032 -0.0373  0.1583
36135DOPC   GL144640   3.358   6.614  11.974  0.0797  0.2874  0.1700
36135DOPC   GL244641   3.466   6.415  12.137  0.1318  0.2846  0.3083
36135DOPC   C1A44642   3.385   6.879  12.293  0.0347  0.2592 -0.2646
36135DOPC   D2A44643   3.232   6.772  12.783 -0.1660 -0.0295  0.1149
36135DOPC   C3A44644   3.494   6.873  13.195 -0.0282  0.2775  0.1815
36135DOPC   C4A44645   3.821   6.938  13.548  0.0263  0.2459  0.2117
36135DOPC   C1B44646   3.522   6.387  12.540  0.3163  0.2496 -0.0412
36135DOPC   D2B44647   3.511   6.399  12.945  0.0497 -0.1830 -0.2541
36135DOPC   C3B44648   3.650   6.100  13.251 -0.3903 -0.0613 -0.1608
36135DOPC   C4B44649   3.763   5.679  13.380 -0.0980  0.1044  0.0030
36136DOPC   NC344650  28.223   7.150  10.728 -0.1934 -0.0178 -0.0847
36136DOPC   PO444651  27.980   7.493  10.662  0.1991 -0.0060 -0.0576
36136DOPC   GL144652  27.872   7.719  10.906 -0.2931  0.2592 -0.0884
36136DOPC   GL244653  27.811   8.002  10.816 -0.0480 -0.1882 -0.3993
36136DOPC   C1A44654  27.842   7.750  11.366 -0.1991 -0.0263 -0.0541
36136DOPC   D2A44655  27.857   7.705  11.853  0.1156  0.1323  0.2376
36136DOPC   C3A44656  27.748   7.704  12.322 -0.1130 -0.1958  0.1343
36136DOPC   C4A44657  27.844   7.773  12.767  0.1256 -0.1254 -0.1212
36136DOPC   C1B44658  27.707   8.171  11.171 -0.2182  0.0881 -0.1108
36136DOPC   D2B44659  27.763   8.577  11.415  0.2579  0.0935 -0.1103
36136DOPC   C3B44660  27.795   8.903  11.737  0.1946 -0.2850 -0.1199
36136DOPC   C4B44661  27.941   9.160  12.158  0.0690  0.2287 -0.2541
36137DOPS   CNO44662   1.612   6.075  11.252  0.0320 -0.1051 -0.1119
36137DOPS   PO444663   1.354   5.936  11.550 -0.0824  0.0258 -0.2345
36137DOPS   GL144664   1.339   5.847  12.000  0.0508  0.1153 -0.5802
36137DOPS   GL244665   1.123   5.983  12.059  0.1509  0.2864  0.2374
36137DOPS   C1A44666   1.647   5.549  12.186 -0.2829 -0.0786 -0.3974
36137DOPS   D2A44667   1.750   5.362  12.666  0.0139  0.1710  0.2427
36137DOPS   C3A44668   1.641   5.145  13.091 -0.0673  0.0891 -0.2033
36137DOPS   C4A44669   1.656   4.897  13.579  0.1363 -0.0879  0.1279
36137DOPS   C1B44670   0.933   6.112  12.439  0.0988  0.0235 -0.0230
36137DOPS   D2B44671   0.914   6.457  12.787 -0.2672  0.1169  0.1892
36137DOPS   C3B44672   0.823   6.351  13.258  0.0556 -0.2820  0.4093
36137DOPS   C4B44673   0.565   6.284  13.650 -0.0603  0.0858  0.0047
36138DOPS   CNO44674  18.080   7.634  10.610 -0.0033 -0.3187 -0.0379
36138DOPS   PO444675  17.703   7.592  10.638  0.1305 -0.3760  0.0881
36138DOPS   GL144676  17.729   7.618  11.060 -0.2805  0.5017 -0.2618
36138DOPS   GL244677  17.985   7.586  11.098 -0.3116  0.1839  0.0487
36138DOPS   C1A44678  17.552   7.490  11.408  0.2087  0.0120 -0.2254
36138DOPS   D2A44679  17.145   7.398  11.697  0.1960 -0.0518  0.1549
36138DOPS   C3A44680  17.209   7.274  12.097  0.0448  0.1885 -0.0790
36138DOPS   C4A44681  17.379   7.047  12.503 -0.1341  0.3110  0.3381
36138DOPS   C1B44682  18.098   7.231  11.310 -0.0539 -0.1849  0.1086
36138DOPS   D2B44683  18.263   6.875  11.695  0.1855  0.0752  0.1055
36138DOPS   C3B44684  18.196   7.217  12.044 -0.4952  0.1181  0.1829
36138DOPS   C4B44685  18.204   7.531  12.340  0.1967 -0.3007  0.1707
36139DOPS   CNO44686  16.185   6.505  10.857 -0.3178 -0.0357  0.3301
36139DOPS   PO444687  16.145   6.832  11.019 -0.1772  0.0032 -0.2169
36139DOPS   GL144688  16.230   6.898  11.373 -0.4560 -0.4201  0.2069
36139DOPS   GL244689  16.455   6.734  11.472 -0.0626  0.2559  0.1915
36139DOPS   C1A44690  16.100   6.978  11.764  0.1592  0.1481 -0.2220
36139DOPS   D2A44691  15.939   7.048  12.193  0.4258 -0.0888 -0.0387
36139DOPS   C3A44692  16.262   7.227  12.363 -0.0870 -0.1350  0.1350
36139DOPS   C4A44693  16.786   7.345  12.391  0.1824 -0.0606  0.0952
36139DOPS   C1B44694  16.361   6.526  11.874 -0.0399 -0.4493 -0.0876
36139DOPS   D2B44695  16.148   6.314  12.283 -0.0245  0.0581  0.0802
36139DOPS   C3B44696  15.926   6.680  12.539 -0.0971  0.0072  0.2095
36139DOPS   C4B44697  15.999   7.090  12.721 -0.1687  0.1717  0.0953
36140DOPS   CNO44698  25.488   6.654  10.970  0.0740 -0.3230  0.1149
36140DOPS   PO444699  25.449   6.930  11.209 -0.1778  0.0206 -0.0830
36140DOPS   GL144700  25.570   6.807  11.563  0.1063  0.0085  0.0724
36140DOPS   GL244701  25.532   7.086  11.654 -0.0952  0.1486  0.3340
36140DOPS   C1A44702  25.805   6.446  11.600  0.0732  0.3798  0.0116
36140DOPS   D2A44703  25.991   6.044  11.530 -0.1722  0.1683 -0.2302
36140DOPS   C3A44704  26.055   5.949  11.950 -0.1369 -0.0485 -0.0142
36140DOPS   C4A44705  26.207   6.065  12.424  0.0524 -0.0412 -0.2886
36140DOPS   C1B44706  25.793   6.868  11.937 -0.0908 -0.1794 -0.0422
36140DOPS   D2B44707  25.535   6.801  12.351  0.0921 -0.1295 -0.0076
36140DOPS   C3B44708  25.155   6.544  12.251  0.2094 -0.2710  0.0748
36140DOPS   C4B44709  24.915   6.086  12.240 -0.1145 -0.1057  0.3399
36141DOPS   CNO44710  26.646   5.910  10.770 -0.2576  0.1461  0.0983
36141DOPS   PO444711  26.598   5.528  10.820  0.1401 -0.0676  0.0017
36141DOPS   GL144712  26.643   5.478  11.279  0.1405  0.1565 -0.1118
36141DOPS   GL244713  26.743   5.767  11.241  0.2217 -0.3133 -0.1754
36141DOPS   C1A44714  26.466   5.199  11.633  0.0909 -0.1683 -0.1878
36141DOPS   D2A44715  26.026   5.010  11.563  0.0433  0.2131 -0.0997
36141DOPS   C3A44716  25.858   5.069  11.965 -0.0655 -0.0172  0.1369
36141DOPS   C4A44717  25.629   5.176  12.439 -0.0870 -0.0277  0.0301
36141DOPS   C1B44718  26.932   5.926  11.592  0.1646 -0.2172 -0.1333
36141DOPS   D2B44719  27.405   5.992  11.717  0.1828 -0.3335 -0.0975
36141DOPS   C3B44720  27.404   6.378  12.014  0.1180 -0.1694  0.1742
36141DOPS   C4B44721  27.637   6.752  12.265  0.0469 -0.0702 -0.2736
36142DOPS   CNO44722   8.256   6.232  10.605  0.0102 -0.1334 -0.0507
36142DOPS   PO444723   8.468   6.544  10.640 -0.0997 -0.2464 -0.0472
36142DOPS   GL144724   8.446   6.608  11.057 -0.0877 -0.3483  0.3618
36142DOPS   GL244725   8.660   6.766  11.001  0.1468 -0.1599 -0.1222
36142DOPS   C1A44726   8.540   6.387  11.421 -0.3199 -0.2166 -0.4876
36142DOPS   D2A44727   8.765   6.175  11.820 -0.0804 -0.3423  0.0543
36142DOPS   C3A44728   8.651   6.082  12.313  0.0891  0.0442 -0.3601
36142DOPS   C4A44729   8.570   5.985  12.725 -0.2288  0.0328  0.0114
36142DOPS   C1B44730   8.842   6.887  11.330  0.1261 -0.0596  0.1374
36142DOPS   D2B44731   8.947   6.644  11.731 -0.1612 -0.0520  0.0178
36142DOPS   C3B44732   9.083   6.539  12.247 -0.1150 -0.2483 -0.0849
36142DOPS   C4B44733   9.276   6.642  12.704 -0.0630  0.2961 -0.2164
36143DOPS   CNO44734  10.433   0.170  10.542 -0.2211  0.2075  0.1765
36143DOPS   PO444735  10.246   0.466  10.747  0.0874 -0.0490  0.0799
36143DOPS   GL144736  10.376   0.548  11.093 -0.3718 -0.0299  0.0900
36143DOPS   GL244737  10.534   0.457  11.218 -0.0847 -0.4162 -0.1100
36143DOPS   C1A44738  10.175   0.622  11.461  0.0013 -0.0560 -0.0916
36143DOPS   D2A44739  10.055   0.491  11.939 -0.0050 -0.0089 -0.0268
36143DOPS   C3A44740  10.280   0.356  12.276 -0.0567 -0.1178 -0.1022
36143DOPS   C4A44741  10.320   0.263  12.829 -0.1486 -0.2235  0.2181
36143DOPS   C1B44742  10.615   0.521  11.641 -0.0089 -0.0372 -0.1258
36143DOPS   D2B44743  10.816   0.760  12.130 -0.0265 -0.0275  0.0112
36143DOPS   C3B44744  10.948   0.956  12.518 -0.0462  0.0022  0.0309
36143DOPS   C4B44745  10.851   1.209  12.955  0.2834 -0.2931  0.0204
36144DOPS   CNO44746  10.484   1.554  10.518  0.1937 -0.1219 -0.1079
36144DOPS   PO444747  10.430   1.847  10.805  0.1222  0.2208  0.0410
36144DOPS   GL144748  10.187   1.811  11.079 -0.2806 -0.0484 -0.5012
36144DOPS   GL244749  10.408   1.652  11.244  0.5297 -0.4468 -0.1879
36144DOPS   C1A44750  10.140   1.924  11.459  0.2451  0.0544 -0.3201
36144DOPS   D2A44751  10.238   1.951  11.926 -0.1855  0.1280 -0.2608
36144DOPS   C3A44752  10.156   2.189  12.348 -0.2848  0.1618 -0.0019
36144DOPS   C4A44753  10.103   2.479  12.750 -0.0395  0.1102  0.1101
36144DOPS   C1B44754  10.425   1.464  11.650 -0.1008 -0.2266  0.1423
36144DOPS   D2B44755  10.060   1.319  11.999  0.0857 -0.0067 -0.0543
36144DOPS   C3B44756   9.892   1.156  12.408 -0.0641  0.0451  0.0555
36144DOPS   C4B44757   9.507   1.093  12.735  0.3502  0.2713  0.2613
36145DOPS   CNO44758  13.251   0.288  10.283 -0.0177 -0.1225  0.1697
36145DOPS   PO444759  12.954   0.265  10.534 -0.1299  0.0764 -0.1246
36145DOPS   GL144760  13.018   0.209  10.968  0.0066 -0.1352 -0.0129
36145DOPS   GL244761  12.759   0.163  11.141 -0.0360  0.0024  0.0867
36145DOPS   C1A44762  13.376   0.235  11.247  0.0775 -0.5426  0.0946
36145DOPS   D2A44763  13.744   0.424  11.502  0.0161  0.2489 -0.1075
36145DOPS   C3A44764  13.973   0.427  11.914  0.0086  0.0727 -0.0505
36145DOPS   C4A44765  13.987   0.759  12.250  0.0989  0.1565  0.1125
36145DOPS   C1B44766  12.795   0.497  11.394  0.1771  0.0474 -0.0178
36145DOPS   D2B44767  12.794   0.961  11.534 -0.0127  0.0205 -0.0194
36145DOPS   C3B44768  12.912   1.032  11.980 -0.1133  0.0166  0.1186
36145DOPS   C4B44769  12.783   1.118  12.451 -0.4529 -0.0666 -0.1974
36146DOPS   CNO44770  25.360   7.738  11.042 -0.2331 -0.1355 -0.1205
36146DOPS   PO444771  25.264   7.382  10.958 -0.0290  0.3185  0.1871
36146DOPS   GL144772  25.031   7.143  11.320  0.1011 -0.1746  0.1748
36146DOPS   GL244773  25.256   7.327  11.478  0.1897 -0.0804  0.3116
36146DOPS   C1A44774  24.792   7.087  11.710  0.0015  0.0673  0.2577
36146DOPS   D2A44775  24.660   7.038  12.180 -0.3048  0.0111 -0.1979
36146DOPS   C3A44776  24.669   7.076  12.647 -0.2033  0.1274  0.0496
36146DOPS   C4A44777  24.660   6.955  13.119 -0.0207  0.0554 -0.0312
36146DOPS   C1B44778  25.135   7.403  11.915  0.2893  0.0221 -0.0724
36146DOPS   D2B44779  24.936   7.643  12.363 -0.4541  0.1983 -0.0165
36146DOPS   C3B44780  25.398   7.763  12.518  0.1200  0.1133  0.0711
36146DOPS   C4B44781  25.673   8.162  12.419  0.3014 -0.4192 -0.2428
36147DOPS   CNO44782  27.054   5.660  10.549  0.0429  0.4065 -0.1728
36147DOPS   PO444783  27.099   5.673  10.914  0.3441 -0.0846 -0.1200
36147DOPS   GL144784  27.082   5.452  11.278  0.1898  0.1041  0.4508
36147DOPS   GL244785  27.019   5.202  11.166  0.4286 -0.1317  0.3812
36147DOPS   C1A44786  26.920   5.422  11.663 -0.0805  0.0640 -0.0776
36147DOPS   D2A44787  26.805   5.240  12.127 -0.2186 -0.0465  0.2091
36147DOPS   C3A44788  26.869   5.626  12.454 -0.1775  0.2226  0.0360
36147DOPS   C4A44789  26.623   5.926  12.732 -0.1528  0.0409  0.0343
36147DOPS   C1B44790  27.067   4.942  11.538  0.1246 -0.0019  0.1538
36147DOPS   D2B44791  26.979   4.805  11.997  0.1722  0.3030  0.0661
36147DOPS   C3B44792  26.986   4.660  12.506  0.1495 -0.3450  0.0779
36147DOPS   C4B44793  26.955   4.509  12.942  0.2101  0.2031  0.3381
36148DOPS   CNO44794  15.081   7.092  10.697  0.1173 -0.0144  0.0084
36148DOPS   PO444795  15.437   7.091  10.850  0.0937 -0.0261  0.1456
36148DOPS   GL144796  15.381   7.485  11.114  0.1997  0.3805  0.0061
36148DOPS   GL244797  15.113   7.441  11.096 -0.2759 -0.0589 -0.1501
36148DOPS   C1A44798  15.449   7.484  11.565 -0.1006 -0.1410 -0.0275
36148DOPS   D2A44799  15.683   7.452  11.990  0.0137 -0.0276  0.1123
36148DOPS   C3A44800  15.667   7.357  12.454 -0.1761 -0.3324  0.0381
36148DOPS   C4A44801  15.708   7.570  12.916 -0.1816 -0.0948  0.1591
36148DOPS   C1B44802  14.871   7.407  11.418  0.0201  0.0960 -0.0344
36148DOPS   D2B44803  15.057   7.622  11.885 -0.0655  0.2119  0.0755
36148DOPS   C3B44804  15.130   7.435  12.278  0.1157 -0.0670  0.0386
36148DOPS   C4B44805  15.225   7.586  12.771 -0.1674 -0.0298 -0.4786
36149DOPS   CNO44806   2.366   1.654  11.439 -0.2288  0.2088  0.0072
36149DOPS   PO444807   2.075   1.618  11.692 -0.1604  0.0985  0.3244
36149DOPS   GL144808   2.011   1.882  11.929 -0.1942 -0.3967  0.5467
36149DOPS   GL244809   1.768   1.988  11.831  0.1744  0.1420 -0.0976
36149DOPS   C1A44810   1.954   1.697  12.336  0.0061 -0.4044  0.2501
36149DOPS   D2A44811   1.999   1.618  12.823 -0.0299  0.0747 -0.1694
36149DOPS   C3A44812   2.191   1.523  13.249  0.0094 -0.3647  0.0045
36149DOPS   C4A44813   2.609   1.298  13.415  0.1495 -0.0185  0.0549
36149DOPS   C1B44814   1.541   2.082  12.158 -0.0872 -0.1684 -0.0365
36149DOPS   D2B44815   1.410   2.465  12.426 -0.1745 -0.0620  0.1170
36149DOPS   C3B44816   1.244   2.638  12.824  0.0791 -0.2175 -0.0661
36149DOPS   C4B44817   1.188   2.813  13.335 -0.0374  0.0602  0.0471
36150DOPS   CNO44818  12.705   3.252  10.787  0.1428 -0.0598  0.0978
36150DOPS   PO444819  12.734   3.258  11.151  0.0015 -0.1069  0.3551
36150DOPS   GL144820  12.395   3.242  11.416 -0.2755  0.0626 -0.0587
36150DOPS   GL244821  12.509   3.010  11.514  0.0190  0.1258 -0.0275
36150DOPS   C1A44822  12.141   3.504  11.720 -0.1170  0.0802 -0.0558
36150DOPS   D2A44823  12.220   3.718  12.160  0.1061  0.0406 -0.0190
36150DOPS   C3A44824  12.487   3.857  12.412 -0.3123  0.0299  0.1380
36150DOPS   C4A44825  12.518   3.925  12.902  0.2815  0.0434  0.0799
36150DOPS   C1B44826  12.170   3.014  11.785 -0.2093 -0.1401 -0.2575
36150DOPS   D2B44827  12.054   2.810  12.202 -0.1949 -0.1251  0.0765
36150DOPS   C3B44828  12.306   2.907  12.624 -0.1601  0.0826 -0.0978
36150DOPS   C4B44829  12.388   2.877  13.108 -0.2603 -0.1532  0.2858
36151DOPS   CNO44830  23.460   0.551  10.356 -0.1911  0.0012  0.3033
36151DOPS   PO444831  23.286   0.801  10.562  0.3320 -0.0470  0.1081
36151DOPS   GL144832  23.331   0.806  10.985 -0.1283 -0.2243  0.0488
36151DOPS   GL244833  23.587   0.658  11.015 -0.3161 -0.2418  0.0956
36151DOPS   C1A44834  23.048   0.621  11.288  0.0216 -0.2077  0.0509
36151DOPS   D2A44835  22.867   0.325  11.620  0.2025 -0.0470 -0.2925
36151DOPS   C3A44836  23.201   0.148  11.847 -0.1891 -0.1790 -0.3742
36151DOPS   C4A44837  23.573  -0.194  11.773 -0.0353 -0.0157 -0.0759
36151DOPS   C1B44838  23.753   0.702  11.388  0.0762  0.2437 -0.0696
36151DOPS   D2B44839  23.886   0.751  11.842 -0.1858 -0.1730  0.0136
36151DOPS   C3B44840  23.607   0.638  12.245 -0.1820  0.3316  0.0049
36151DOPS   C4B44841  23.451   0.476  12.672  0.0650  0.1972 -0.0598
36152DOPS   CNO44842  25.533   1.164  10.979 -0.2670  0.1097 -0.0394
36152DOPS   PO444843  25.366   1.471  11.145  0.1821  0.2023  0.0304
36152DOPS   GL144844  25.347   1.433  11.597 -0.0109  0.0692  0.0276
36152DOPS   GL244845  25.490   1.180  11.621  0.2013 -0.0073 -0.1991
36152DOPS   C1A44846  25.142   1.570  11.922 -0.1371  0.1273 -0.1711
36152DOPS   D2A44847  25.326   1.841  12.261 -0.1708  0.0340  0.0619
36152DOPS   C3A44848  25.285   1.997  12.713  0.3295  0.1269 -0.1037
36152DOPS   C4A44849  24.893   1.902  12.982 -0.0498 -0.2456  0.2860
36152DOPS   C1B44850  25.164   0.948  11.706  0.1598 -0.2245  0.1776
36152DOPS   D2B44851  25.041   0.919  12.108 -0.0060 -0.0817 -0.3522
36152DOPS   C3B44852  25.166   1.028  12.550  0.0442 -0.2419  0.0256
36152DOPS   C4B44853  25.411   1.111  12.968  0.0335 -0.6370  0.0735
36153DOPS   CNO44854  12.568   2.335  10.852  0.2358  0.0613 -0.2315
36153DOPS   PO444855  12.446   2.249  11.224 -0.1123 -0.2621  0.0825
36153DOPS   GL144856  12.593   2.281  11.563 -0.1763 -0.0446 -0.1372
36153DOPS   GL244857  12.491   2.523  11.700  0.2467  0.2834  0.2912
36153DOPS   C1A44858  12.746   2.136  11.943 -0.2246  0.0459 -0.0111
36153DOPS   D2A44859  12.866   2.141  12.443  0.0765 -0.0008  0.2126
36153DOPS   C3A44860  12.772   2.288  12.914  0.0602 -0.0746  0.0624
36153DOPS   C4A44861  12.820   2.630  13.321  0.4422  0.4309  0.2057
36153DOPS   C1B44862  12.485   2.522  12.125  0.0518 -0.0627  0.2306
36153DOPS   D2B44863  12.442   2.404  12.589 -0.0659 -0.1043 -0.4076
36153DOPS   C3B44864  12.260   2.234  12.949  0.1905  0.0422 -0.0395
36153DOPS   C4B44865  12.463   2.144  13.403 -0.1385 -0.0515 -0.2348
36154DOPS   CNO44866  10.239   1.384  10.911  0.2089 -0.0953 -0.0086
36154DOPS   PO444867  10.601   1.347  10.941 -0.0857  0.1028 -0.2219
36154DOPS   GL144868  10.803   1.334  11.306 -0.2308 -0.1398 -0.1422
36154DOPS   GL244869  10.929   1.591  11.406  0.0672 -0.0432  0.0808
36154DOPS   C1A44870  10.831   1.251  11.707  0.0354  0.0484 -0.1864
36154DOPS   D2A44871  10.594   1.243  12.219 -0.1341  0.1192  0.0343
36154DOPS   C3A44872  10.513   1.456  12.633 -0.1638  0.1250 -0.0489
36154DOPS   C4A44873  10.568   1.605  13.052  0.0641 -0.2255  0.0223
36154DOPS   C1B44874  10.903   1.771  11.794  0.1201  0.1912 -0.0361
36154DOPS   D2B44875  10.786   1.815  12.288  0.0290 -0.1224  0.1131
36154DOPS   C3B44876  10.923   2.146  12.634 -0.0972  0.1827  0.0379
36154DOPS   C4B44877  11.090   2.461  12.973 -0.0840 -0.2142 -0.0963
36155DOPS   CNO44878  29.585   5.170  11.216 -0.2937  0.1766 -0.2613
36155DOPS   PO444879  29.312   4.920  11.243  0.0508 -0.1660  0.2041
36155DOPS   GL144880  29.191   4.801  11.560 -0.1633  0.0810 -0.0374
36155DOPS   GL244881  29.312   4.539  11.675  0.0261  0.0277  0.2416
36155DOPS   C1A44882  29.076   5.122  11.804  0.2838 -0.0537 -0.1707
36155DOPS   D2A44883  28.943   5.542  12.073 -0.0371 -0.1033 -0.2522
36155DOPS   C3A44884  28.739   5.800  12.351 -0.1663  0.0468  0.0013
36155DOPS   C4A44885  28.460   6.093  12.746 -0.0262  0.0037 -0.0774
36155DOPS   C1B44886  29.208   4.687  12.155  0.0455 -0.0902  0.3219
36155DOPS   D2B44887  29.044   5.136  12.357  0.0452  0.0780 -0.1858
36155DOPS   C3B44888  29.239   5.519  12.559  0.0583 -0.1742  0.0353
36155DOPS   C4B44889  28.920   5.774  12.861 -0.0160  0.1000 -0.1470
36156DOPS   CNO44890   1.426   1.290  11.491 -0.0765  0.2954 -0.1795
36156DOPS   PO444891   1.084   1.517  11.533 -0.2555 -0.1417  0.0195
36156DOPS   GL144892   1.090   1.394  11.945  0.3190  0.3551 -0.3111
36156DOPS   GL244893   0.888   1.139  12.023 -0.1582 -0.4870 -0.3890
36156DOPS   C1A44894   0.892   1.593  12.274  0.0058 -0.0063  0.1485
36156DOPS   D2A44895   0.539   1.544  12.594  0.0997 -0.4698  0.4631
36156DOPS   C3A44896   0.457   1.489  13.015  0.0824 -0.1641 -0.0339
36156DOPS   C4A44897   0.338   1.247  13.431 -0.1654 -0.0302  0.0924
36156DOPS   C1B44898   0.902   1.098  12.522 -0.0644  0.2067 -0.0335
36156DOPS   D2B44899   0.773   0.913  12.945  0.0080 -0.2859 -0.0246
36156DOPS   C3B44900   0.887   1.237  13.232 -0.1268  0.2039 -0.0966
36156DOPS   C4B44901   0.988   1.580  12.910  0.1007  0.2606 -0.1741
36157DOPS   CNO44902  30.739   1.476  10.703  0.1525 -0.1964 -0.0676
36157DOPS   PO444903  30.753   1.613  11.078  0.1415  0.0751 -0.1528
36157DOPS   GL144904  30.587   1.760  11.483  0.0534  0.1506 -0.0702
36157DOPS   GL244905  30.898   1.798  11.556  0.0369 -0.0323 -0.0448
36157DOPS   C1A44906  30.302   1.767  11.837 -0.2237 -0.2461 -0.1937
36157DOPS   D2A44907  30.183   1.683  12.360 -0.1129  0.1965 -0.2110
36157DOPS   C3A44908  30.286   1.454  12.725  0.0705 -0.1797  0.0477
36157DOPS   C4A44909  30.252   1.220  13.096  0.1163  0.0992  0.2235
36157DOPS   C1B44910  30.942   1.727  11.927  0.0080  0.1028 -0.3156
36157DOPS   D2B44911  30.797   1.627  12.403  0.3124 -0.1032 -0.2102
36157DOPS   C3B44912  30.724   1.883  12.847  0.2547  0.1720  0.1612
36157DOPS   C4B44913  30.415   1.695  13.145 -0.0941  0.0539  0.2160
36158DOPS   CNO44914  18.326   3.583  10.523 -0.0014 -0.0626 -0.0333
36158DOPS   PO444915  18.536   3.349  10.731 -0.0194  0.0047  0.2151
36158DOPS   GL144916  18.630   3.259  11.084  0.0175  0.2058  0.0779
36158DOPS   GL244917  18.381   3.092  11.152  0.3352 -0.3830 -0.2901
36158DOPS   C1A44918  18.767   3.052  11.423 -0.1343  0.3970 -0.1049
36158DOPS   D2A44919  19.126   2.988  11.789 -0.2786 -0.2196  0.0573
36158DOPS   C3A44920  19.593   2.982  11.822  0.0514  0.1789 -0.3298
36158DOPS   C4A44921  20.117   2.995  11.944  0.0123  0.1538  0.1191
36158DOPS   C1B44922  18.351   3.177  11.598  0.2032  0.0483  0.1776
36158DOPS   D2B44923  18.087   3.161  12.067 -0.0164 -0.1448 -0.2713
36158DOPS   C3B44924  18.241   3.020  12.462  0.1908 -0.1405  0.1916
36158DOPS   C4B44925  18.389   3.108  12.993 -0.1597  0.0935  0.6414
36159DOPS   CNO44926   3.328   1.864  11.465 -0.2242  0.0590 -0.0642
36159DOPS   PO444927   3.159   1.535  11.443 -0.0463 -0.0632  0.2901
36159DOPS   GL144928   3.159   1.628  11.863  0.0525 -0.1183 -0.0102
36159DOPS   GL244929   3.303   1.458  12.056 -0.2544  0.1473 -0.3222
36159DOPS   C1A44930   3.351   1.939  12.125  0.1612 -0.3570 -0.1395
36159DOPS   D2A44931   3.410   2.241  12.528  0.0841  0.1332  0.2986
36159DOPS   C3A44932   3.511   2.456  12.921  0.0093  0.0332  0.0628
36159DOPS   C4A44933   3.805   2.289  13.313  0.0014 -0.2186 -0.0797
36159DOPS   C1B44934   2.946   1.627  12.290  0.1665 -0.3663  0.0819
36159DOPS   D2B44935   2.890   2.058  12.537 -0.0437  0.0497  0.2129
36159DOPS   C3B44936   3.019   2.323  12.191 -0.0417 -0.0862  0.1265
36159DOPS   C4B44937   3.374   2.359  11.840 -0.2779  0.0532 -0.1951
36160DOPS   CNO44938   5.257   1.597  11.121 -0.0089 -0.2234 -0.1194
36160DOPS   PO444939   5.328   1.965  11.239 -0.1409 -0.1938  0.0738
36160DOPS   GL144940   5.114   2.024  11.612  0.1657 -0.1324  0.2385
36160DOPS   GL244941   5.030   2.322  11.560  0.1390  0.1824 -0.1320
36160DOPS   C1A44942   5.177   1.907  12.062  0.0177  0.0561 -0.1504
36160DOPS   D2A44943   5.260   1.656  12.487  0.3634 -0.0590  0.0339
36160DOPS   C3A44944   5.092   1.361  12.739  0.0512 -0.0092 -0.0536
36160DOPS   C4A44945   5.320   1.057  13.063  0.3926 -0.0055 -0.2163
36160DOPS   C1B44946   5.193   2.360  11.951  0.0374 -0.0373  0.1086
36160DOPS   D2B44947   5.522   2.186  12.297 -0.2116 -0.0255  0.2103
36160DOPS   C3B44948   5.489   2.192  12.695 -0.1084  0.0484 -0.0040
36160DOPS   C4B44949   5.242   2.303  13.033 -0.1122  0.1493 -0.2055
36161DOPS   CNO44950   7.878   7.617  10.424 -0.1126  0.2113 -0.1345
36161DOPS   PO444951   8.082   7.433  10.752 -0.0339 -0.2006  0.2158
36161DOPS   GL144952   8.192   7.256  11.145  0.3887  0.0969 -0.2171
36161DOPS   GL244953   7.925   7.398  11.263  0.2981 -0.1086 -0.0683
36161DOPS   C1A44954   8.362   7.004  11.449 -0.1912 -0.1400 -0.2552
36161DOPS   D2A44955   8.575   7.035  11.869  0.0336 -0.0287 -0.1742
36161DOPS   C3A44956   8.761   7.016  12.196 -0.1098  0.1583 -0.3433
36161DOPS   C4A44957   8.814   6.973  12.690 -0.0193 -0.0019  0.2310
36161DOPS   C1B44958   7.828   7.182  11.652 -0.0699 -0.1791 -0.0095
36161DOPS   D2B44959   8.065   6.964  12.008 -0.0960 -0.0805  0.3232
36161DOPS   C3B44960   8.293   7.065  12.417 -0.0632 -0.0361 -0.2106
36161DOPS   C4B44961   8.380   7.237  12.866  0.2313 -0.0023  0.2601
36162W        W44962  25.712   3.880   1.253  0.0384 -0.1867 -0.0655
36163W        W44963  20.868   1.854  22.563 -0.0834 -0.4048 -0.2249
36164W        W44964  14.710   5.448   1.318  0.0461 -0.2409 -0.2124
36165W        W44965  25.906   2.243   0.136  0.3257  0.1120 -0.0117
36166W        W44966  16.978   7.719  25.360 -0.0766 -0.1225  0.0048
36167W        W44967  24.373   1.323   3.590  0.0153  0.0936  0.0275
36168W        W44968  24.058   7.748   5.363  0.1439 -0.0137 -0.0988
36169W        W44969  31.096   6.320   9.922  0.2023  0.0120 -0.2550
36170W        W44970  25.623   0.294   7.926  0.0040 -0.1176 -0.3842
36171W        W44971  14.139   6.131   6.479  0.2112  0.1302  0.1407
36172W        W44972   5.297   2.462  22.957  0.1757  0.3498  0.0314
36173W        W44973  23.564   7.244   8.737  0.2670 -0.1850 -0.2959
36174W        W44974   2.935   7.025  21.666  0.3495  0.2738  0.0323
36175W        W44975   0.927   5.277  17.175 -0.1861 -0.2532  0.1895
36176W        W44976  10.203   6.121   5.967 -0.2375 -0.0196  0.4810
36177W        W44977  23.773   7.499  21.271  0.1377 -0.0028  0.0523
36178W        W44978  22.796   5.490   9.713  0.0036  0.0566  0.1024
36179W        W44979  17.120   5.869   9.569  0.1741 -0.1247 -0.0968
36180W        W44980  15.969   3.189  20.663  0.0092 -0.1107  0.0588
36181W        W44981  18.899   4.507  25.083  0.1682  0.0240  0.0321
36182W        W44982  30.047   6.970  23.036  0.2810  0.0372  0.0274
36183W        W44983  15.834   0.492   2.416  0.1107 -0.1899  0.2982
36184W        W44984  20.816   2.848  21.127  0.1820  0.0484 -0.1475
36185W        W44985   2.653   2.023   4.920 -0.1324 -0.0704  0.0033
36186W        W44986  17.073   2.098  25.897  0.0168  0.1068 -0.1414
36187W        W44987  10.861   0.918  20.109 -0.1987 -0.1502 -0.1128
36188W        W44988   4.682   6.730   3.238 -0.3352 -0.0000 -0.1485
36189W        W44989   4.085   6.675  26.005  0.0543 -0.2124 -0.0737
36190W        W44990   3.375   0.327  15.422  0.1065  0.0434 -0.1205
36191W        W44991  15.416   6.775  16.331 -0.0770 -0.1661  0.0193
36192W        W44992   9.268   0.656   3.382  0.2741 -0.1917  0.2545
36193W        W44993  25.738   6.114  19.837 -0.1521 -0.0274  0.0437
36194W        W44994  30.451   2.584   8.353  0.1088  0.1025 -0.0719
36195W        W44995  14.555   3.073  24.129  0.0753  0.1191 -0.1228
36196W        W44996  24.574   1.880  23.055  0.2933 -0.1527  0.4963
36197W        W44997  28.016   7.433   1.822 -0.1801 -0.0032 -0.2796
36198W        W44998  24.199   1.838   8.192  0.2034 -0.0576 -0.1244
36199W        W44999  12.586   2.235  24.392 -0.2368  0.0260 -0.1082
36200W        W45000  14.513   5.282  25.150 -0.1710  0.3107 -0.0540
36201W        W45001   1.521   3.184   7.117  0.0844  0.0585 -0.2564
36202W        W45002   5.845   2.889   8.064 -0.0727 -0.3183 -0.1407
36203W        W45003   8.760   3.005  22.431  0.1352 -0.1763 -0.0845
36204W        W45004   7.746   1.280  16.325 -0.1524  0.0150 -0.2777
36205W        W45005  18.752   1.521  20.296 -0.1444 -0.1092  0.1561
36206W        W45006   1.024   4.596  10.875 -0.0132  0.2961  0.2042
36207W        W45007  11.136   0.099   1.975 -0.2603  0.3490 -0.0264
36208W        W45008   5.304   7.377  20.414  0.2310 -0.1345 -0.0263
36209W        W45009  11.807   4.696   5.733  0.0722  0.3596 -0.3325
36210W        W45010  22.546   0.713   5.508  0.4437  0.1162 -0.3422
36211W        W45011  15.896   4.012  10.282  0.0580  0.0113  0.4073
36212W        W45012  26.893   4.155  10.470 -0.1455 -0.1784  0.0986
36213W        W45013  15.945   7.331  25.060 -0.0734  0.0287 -0.1729
36214W        W45014  25.982   7.442   8.393  0.2025  0.0012 -0.2187
36215W        W45015  12.625   6.134   6.418 -0.1659  0.0514 -0.3389
36216W        W45016  30.411   5.342  11.720 -0.1048  0.2276 -0.2048
36217W        W45017   4.971   3.648  10.155  0.1462 -0.2473  0.2126
36218W        W45018   1.495   4.168  22.465  0.0565  0.1455  0.2581
36219W        W45019   2.151   1.073  21.773 -0.0969 -0.0335  0.1307
36220W        W45020  13.266   1.090   8.664 -0.1147 -0.1586 -0.3542
36221W        W45021  15.888   0.865   5.545 -0.2704  0.2138 -0.3176
36222W        W45022   6.099   3.675  23.416 -0.1309  0.1199 -0.0320
36223W        W45023  28.206   0.772  25.205 -0.2334  0.0838  0.1801
36224W        W45024  20.279   6.375  16.030  0.0720  0.3986  0.0532
36225W        W45025  11.801   7.692  24.883 -0.1809  0.0583  0.3270
36226W        W45026   8.549   1.948  22.138 -0.0644 -0.2541 -0.0947
36227W        W45027   6.233   5.753  15.571  0.0742 -0.2270  0.0945
36228W        W45028  30.409   3.217  21.798  0.0256 -0.3077 -0.1239
36229W        W45029   8.863   2.754  22.002  0.1088  0.0334  0.1306
36230W        W45030   0.982   1.638  21.518 -0.0944  0.2274  0.0087
36231W        W45031   0.812   0.288   4.195 -0.2592 -0.0331  0.1842
36232W        W45032  18.050   3.231  18.956  0.0190  0.1807 -0.1830
36233W        W45033  25.151   2.007  24.870  0.3877 -0.3008 -0.2377
36234W        W45034  23.764   4.507   6.321 -0.2588  0.1063  0.0443
36235W        W45035  23.080   3.784  17.748  0.0571  0.0669 -0.1341
36236W        W45036  27.462   1.254   3.285  0.0678  0.1690  0.0408
36237W        W45037   5.691   3.815   0.461  0.2059 -0.2435  0.0532
36238W        W45038  12.679   4.612  16.779  0.1925  0.0438 -0.2581
36239W        W45039   0.857   2.958  25.159  0.0806 -0.1047  0.0079
36240W        W45040  29.619   7.051  22.231  0.0824 -0.1074  0.1885
36241W        W45041   6.611   7.597   2.586 -0.0783  0.2516 -0.0384
36242W        W45042  25.288   3.369  10.094  0.1174 -0.0300 -0.0384
36243W        W45043  22.523   0.753  22.179 -0.2575 -0.1495 -0.0975
36244W        W45044   4.299   2.259  17.063 -0.0170  0.0313  0.2095
36245W        W45045  28.530   0.145  20.672 -0.1906  0.0102  0.3242
36246W        W45046  14.315   4.872  10.104  0.1601  0.0249 -0.0904
36247W        W45047   9.328   0.161  23.653  0.2653 -0.0556 -0.0562
36248W        W45048   9.622   2.601  24.551  0.1654  0.1872 -0.2273
36249W        W45049  31.241   5.612  24.528  0.3733 -0.2758  0.0912
36250W        W45050  10.650   1.055  23.982 -0.0270 -0.1188 -0.1951
36251W        W45051  24.268   0.358  19.239  0.0608  0.0216  0.0257
36252W        W45052  29.981   7.611  15.968  0.0463  0.1055  0.1488
36253W        W45053   3.858   7.053   5.508  0.0097 -0.0072  0.1893
36254W        W45054  20.875   7.462   3.438 -0.3033  0.1903  0.0795
36255W        W45055  21.709   6.646   0.835 -0.1850 -0.2525 -0.2219
36256W        W45056   7.097   6.241   1.258 -0.2156 -0.0564 -0.0239
36257W        W45057  14.388   3.101   5.969 -0.1448  0.3776  0.1145
36258W        W45058  19.844   0.124  20.288 -0.2080  0.5216 -0.3198
36259W        W45059   5.754   3.164   3.364  0.0865 -0.1118  0.0052
36260W        W45060  14.154   2.686   4.794  0.0132  0.0481 -0.0547
36261W        W45061   3.451   5.623  15.229 -0.1245  0.0365  0.0160
36262W        W45062  16.921   1.116   0.381 -0.0700  0.2004 -0.3839
36263W        W45063  14.685   7.083  16.936 -0.0991 -0.0979 -0.2203
36264W        W45064  26.257   1.079   6.902 -0.1165 -0.0348 -0.0101
36265W        W45065  20.585   6.808   5.224 -0.2403 -0.0077  0.0960
36266W        W45066  27.301   1.921   6.221  0.0467  0.0585  0.1307
36267W        W45067  24.978   3.627   6.276  0.2612 -0.0047  0.1728
36268W        W45068  24.556   5.216  17.024  0.3252 -0.1463 -0.0108
36269W        W45069  13.726   1.310   9.548 -0.2030 -0.2745 -0.1215
36270W        W45070  11.277   2.377  22.024 -0.1756  0.1607  0.2350
36271W        W45071  15.445   5.120  21.280 -0.0253  0.1070  0.0470
36272W        W45072  25.423   2.457  17.380 -0.3112  0.2946  0.1940
36273W        W45073   5.440   5.069   8.561  0.0389 -0.2165 -0.0518
36274W        W45074   9.583   6.530   9.489  0.3144  0.1293  0.1727
36275W        W45075  30.260   5.864   2.129  0.1011  0.2989 -0.3807
36276W        W45076   8.792   3.670  24.187 -0.1106 -0.2389 -0.2754
36277W        W45077  23.730   0.072  25.925  0.0961 -0.3652  0.0241
36278W        W45078  30.162   2.807   3.651  0.1043 -0.1066 -0.1302
36279W        W45079  26.233   3.875   6.676  0.0386  0.0455  0.1015
36280W        W45080   2.042   0.830  10.191 -0.0833  0.2623  0.0830
36281W        W45081  28.013   0.261  17.930 -0.0502  0.0759  0.1519
36282W        W45082  19.808   7.423  17.937 -0.3193 -0.0964  0.1052
36283W        W45083   7.233   5.182  25.925  0.0601 -0.1257 -0.1480
36284W        W45084   7.613   3.133   7.748  0.0597  0.1431  0.2009
36285W        W45085  19.866   4.737  22.359  0.2937 -0.0336 -0.0232
36286W        W45086  11.222   7.176  10.960  0.1780 -0.0475 -0.0626
36287W        W45087   4.533   0.763  24.450  0.1398  0.1220 -0.0236
36288W        W45088  24.110   6.634   5.966  0.2929 -0.1959  0.1929
36289W        W45089  16.646   6.670  19.415 -0.1768  0.4501 -0.2306
36290W        W45090  16.700   4.104   7.172  0.2684 -0.2277 -0.0751
36291W        W45091  23.291   0.167  25.682  0.1612  0.1023  0.0272
36292W        W45092  19.604   2.583   1.272  0.3100  0.0307  0.0863
36293W        W45093   9.334   4.000  15.655 -0.0806 -0.1956  0.0898
36294W        W45094  16.579   7.210  15.132  0.0480 -0.0641  0.1293
36295W        W45095   2.460   5.122  22.534  0.1541  0.2815  0.0641
36296W        W45096  18.029   5.483  15.025  0.3279  0.1823  0.0574
36297W        W45097  29.517   7.039   7.274 -0.1324 -0.0210 -0.1743
36298W        W45098  21.935   5.583   3.987 -0.1410 -0.4442  0.0344
36299W        W45099   9.116   7.605   6.534 -0.0852 -0.0997 -0.0448
36300W        W45100  12.682   4.115   7.324 -0.1723 -0.2374  0.1918
36301W        W45101   0.669   6.603  20.392 -0.0867  0.0883  0.0193
36302W        W45102   1.234   7.404  22.505  0.1669 -0.3082 -0.0667
36303W        W45103   5.823   2.125  14.906  0.0146  0.1323  0.0075
36304W        W45104  17.298   5.179   1.808  0.1281 -0.1416  0.0522
36305W        W45105  29.686   5.743   5.106 -0.2576  0.0175 -0.1597
36306W        W45106  26.310   0.001  23.418 -0.0433  0.2080  0.0985
36307W        W45107   1.386   1.515   3.567  0.1499  0.2423  0.3082
36308W        W45108  14.208   1.011  19.271  0.1930  0.1142 -0.3321
36309W        W45109  15.511   7.318   8.506  0.0687 -0.1225  0.0162
36310W        W45110   1.864   0.069   7.406  0.0108 -0.1004 -0.0059
36311W        W45111  26.699   7.709  22.946 -0.0100  0.0437 -0.0484
36312W        W45112  28.737   1.216   8.996  0.0502 -0.0647 -0.0010
36313W        W45113  24.968   5.603  16.478 -0.0452 -0.0585 -0.1192
36314W        W45114  22.443   6.933  23.869 -0.1482 -0.1323  0.0204
36315W        W45115  14.310   2.025  17.688  0.0596 -0.1741  0.1032
36316W        W45116  27.540   6.241  22.019  0.1696 -0.0808  0.0926
36317W        W45117   8.946   5.372   2.275 -0.1660 -0.1102 -0.1019
36318W        W45118   1.920   2.236   4.421  0.0552 -0.2313  0.0334
36319W        W45119  17.141   6.546   1.252 -0.3045 -0.1608 -0.0536
36320W        W45120  21.885   2.654   2.006 -0.1702 -0.3246 -0.1532
36321W        W45121  16.673   5.042  11.172  0.1576  0.1022  0.0878
36322W        W45122  12.324   0.225   3.054  0.0568 -0.2507  0.0338
36323W        W45123  17.748   6.061   2.561  0.1460  0.0999  0.1386
36324W        W45124  13.638   5.904   1.977  0.1184  0.1350  0.0320
36325W        W45125  11.713   3.152   3.565  0.0093  0.0488 -0.1355
36326W        W45126   8.924   3.512   7.417  0.0193  0.1028  0.1508
36327W        W45127  29.325   5.665   9.830  0.0079 -0.0982  0.4406
36328W        W45128  29.402   4.751  22.174 -0.2218 -0.1117  0.0016
36329W        W45129  19.103   3.550   5.655  0.2635 -0.2477 -0.0960
36330W        W45130  15.218   5.622  24.599 -0.2299  0.1013  0.0865
36331W        W45131  23.406   6.315  20.361 -0.2640  0.0545 -0.0103
36332W        W45132   5.428   3.244   2.497 -0.2358  0.0119 -0.0746
36333W        W45133   9.227   3.446   7.845  0.0482 -0.1299  0.1769
36334W        W45134  23.237   5.735  20.375  0.1413 -0.1939  0.2323
36335W        W45135  21.029   1.033   3.636 -0.3387 -0.1849 -0.2921
36336W        W45136  28.369   0.410  19.783 -0.2451  0.3151 -0.0711
36337W        W45137  22.838   2.150   8.889  0.0706 -0.0518  0.2833
36338W        W45138  10.021   0.939  15.908 -0.4707 -0.2076  0.0825
36339W        W45139  24.471   4.049  21.269 -0.0867  0.0700  0.0582
36340W        W45140  27.081   3.526   4.391  0.1020  0.1717 -0.1642
36341W        W45141  26.895   6.217   0.411  0.2923  0.0006 -0.0510
36342W        W45142   8.368   4.925  25.500  0.1429 -0.1982 -0.1967
36343W        W45143  10.390   5.249   5.019 -0.4049 -0.1299  0.0829
36344W        W45144  16.196   7.032   5.658 -0.1446  0.1363 -0.1047
36345W        W45145  30.911   2.028   8.893  0.3360  0.2061  0.0191
36346W        W45146  22.827   0.036  10.120 -0.0899 -0.2567 -0.1451
36347W        W45147  15.032   3.113  17.591  0.0355  0.0314  0.1374
36348W        W45148   7.303   3.071  19.777  0.1064 -0.0560 -0.2468
36349W        W45149   0.235   5.901   1.670  0.1607  0.0670 -0.1306
36350W        W45150  15.289   7.770   8.431 -0.1137 -0.0256 -0.1625
36351W        W45151  20.013   5.847  15.078 -0.0993 -0.1442  0.2202
36352W        W45152  22.124   7.138   7.014  0.2409  0.1507  0.1471
36353W        W45153  29.534   6.117   0.746 -0.1458 -0.1224 -0.1125
36354W        W45154  19.885   3.259  23.936  0.0947 -0.1866 -0.2976
36355W        W45155  23.831   2.267   7.548  0.1981  0.0971 -0.1220
36356W        W45156  16.108   2.021  21.363  0.2907 -0.0085  0.1636
36357W        W45157  29.131   0.727  18.190 -0.0086  0.1282  0.0292
36358W        W45158  10.832   5.776  17.999 -0.1642 -0.0027  0.3743
36359W        W45159  27.158   5.693   3.733 -0.0929  0.0667  0.0219
36360W        W45160  30.976   0.613   6.128 -0.1241 -0.0014  0.1372
36361W        W45161   7.224   0.156  19.528  0.1734  0.2786  0.2778
36362W        W45162   6.781   5.021   0.785 -0.1576  0.3142 -0.0778
36363W        W45163  19.206   1.974  23.581  0.0305  0.0405  0.0466
36364W        W45164  14.355   1.833  23.064  0.1244 -0.0733  0.0081
36365W        W45165  30.363   0.122   1.320  0.2116 -0.2248 -0.1215
36366W        W45166   4.730   1.512   0.109  0.1814  0.2623 -0.1356
36367W        W45167  24.659   0.101   4.063 -0.1272  0.0524  0.2847
36368W        W45168  15.455   6.369  15.414  0.0183  0.0477 -0.0523
36369W        W45169   8.227   1.674  17.850 -0.1163  0.0347 -0.0496
36370W        W45170   5.627   3.669  16.780  0.0261 -0.0599 -0.4063
36371W        W45171   9.363   6.333  21.241  0.1380  0.3087  0.0308
36372W        W45172  12.451   6.232   1.765  0.0948 -0.3387 -0.2298
36373W        W45173  16.978   2.211  21.682  0.1591  0.0380  0.1303
36374W        W45174   5.331   5.707  17.305 -0.0546 -0.0233  0.0777
36375W        W45175   1.220   2.411  22.484  0.1482 -0.0038 -0.0155
36376W        W45176   7.346   1.474   2.006  0.1956 -0.0271  0.1883
36377W        W45177   9.746   6.567   2.566 -0.1204 -0.1724 -0.1755
36378W        W45178   9.035   6.223   0.035 -0.1481 -0.0786 -0.0079
36379W        W45179   0.593   6.869   5.317  0.0087 -0.0458  0.2799
36380W        W45180   4.609   7.049   9.197  0.0903 -0.0480 -0.2040
36381W        W45181  25.141   0.471  21.154  0.3340 -0.2655 -0.0355
36382W        W45182  26.504   3.206   9.744  0.1591 -0.1647  0.2064
36383W        W45183   0.356   0.131   9.869  0.0955 -0.1900  0.2276
36384W        W45184  18.143   1.424   8.080 -0.1355 -0.0745 -0.1380
36385W        W45185  27.429   4.910   4.305  0.0392  0.0842 -0.2644
36386W        W45186  23.456   1.284  15.616 -0.0367  0.0692  0.2250
36387W        W45187  24.264   7.462  22.087  0.0283  0.1102  0.1438
36388W        W45188  25.264   4.115   9.353  0.0241  0.2498 -0.1691
36389W        W45189  14.380   6.695   3.571  0.0112 -0.0730  0.3186
36390W        W45190  15.062   7.741   4.747 -0.1166  0.0409  0.2216
36391W        W45191   5.793   3.975   8.397  0.1385 -0.0116  0.1582
36392W        W45192  11.931   6.859  23.999  0.2116  0.1031 -0.2775
36393W        W45193  11.815   5.105  22.049 -0.1208  0.0165 -0.1846
36394W        W45194  14.184   1.221  25.267 -0.0140  0.1357 -0.1487
36395W        W45195  27.478   1.053   8.614  0.0054 -0.1137 -0.0474
36396W        W45196  25.863   1.301  23.801  0.1469 -0.2574 -0.0374
36397W        W45197   1.453   0.633   7.954  0.0793 -0.1828 -0.0716
36398W        W45198  13.343   0.456   5.359 -0.0527 -0.2247 -0.0345
36399W        W45199   9.867   0.526  15.703 -0.3512 -0.0978  0.0745
36400W        W45200  28.502   3.723  23.545 -0.2809  0.0231 -0.2735
36401W        W45201   6.162   6.113  21.769 -0.0229 -0.0661  0.2677
36402W        W45202   9.102   3.347   4.235  0.0481  0.2303 -0.4640
36403W        W45203  16.491   3.524  24.072  0.0629 -0.0100 -0.1286
36404W        W45204  28.607   2.186   5.923  0.1979  0.2721  0.0080
36405W        W45205   0.214   3.000  23.937  0.2548 -0.1557 -0.2035
36406W        W45206  19.442   1.057  16.832  0.2324  0.1563 -0.0669
36407W        W45207  15.991   2.465  22.686  0.1559 -0.1760  0.0065
36408W        W45208   4.651   4.199  21.021 -0.1821 -0.1635  0.2378
36409W        W45209  11.985   5.893   2.740 -0.1475 -0.0922 -0.0979
36410W        W45210  21.283   3.185  19.415 -0.1623  0.1887 -0.0629
36411W        W45211   3.021   3.536   5.092  0.2366  0.2031 -0.1270
36412W        W45212  12.287   3.007  19.129 -0.1732 -0.1128  0.1982
36413W        W45213  25.841   4.171   4.695  0.4437  0.2001  0.3083
36414W        W45214   9.086   7.029   8.606 -0.3434  0.2783  0.3057
36415W        W45215  27.030   0.304  22.618 -0.2995  0.2079  0.1963
36416W        W45216  27.726   4.439   0.536  0.4167  0.0620 -0.3022
36417W        W45217   0.114   3.068  19.124 -0.0656  0.1161 -0.0273
36418W        W45218   1.126   1.056   8.465 -0.0215  0.0406 -0.2029
36419W        W45219  23.107   4.333   3.644 -0.0091  0.1928  0.2000
36420W        W45220  26.795   0.397   8.560 -0.2044 -0.2783 -0.2396
36421W        W45221  14.018   5.214   9.420 -0.2259  0.1344  0.2719
36422W        W45222  24.766   5.119  23.311 -0.1329  0.1466  0.0400
36423W        W45223   1.813   6.540   9.571  0.0641  0.1147  0.0419
36424W        W45224  30.141   2.195  15.691  0.2040  0.2545  0.0923
36425W        W45225  14.348   5.585  19.228 -0.4200  0.0996  0.3147
36426W        W45226  15.095   5.850  19.354  0.1692  0.2536  0.6108
36427W        W45227  24.156   2.697   8.736  0.1039 -0.0344 -0.2820
36428W        W45228  29.807   5.378   7.849  0.0634 -0.1427 -0.1648
36429W        W45229   0.082   5.325  22.005 -0.2519  0.0468 -0.1988
36430W        W45230  12.542   1.009  19.306 -0.1024 -0.1296  0.0292
36431W        W45231  13.892   6.249   2.257  0.0142 -0.0644 -0.1115
36432W        W45232  10.675   4.581  16.221 -0.1345  0.2043  0.2187
36433W        W45233   2.975   3.496  23.862  0.3004 -0.1324  0.1665
36434W        W45234  23.312   5.200  17.413  0.3087  0.0396 -0.1283
36435W        W45235  14.023   3.766  23.750 -0.2788 -0.1625 -0.1307
36436W        W45236   1.521   0.602  18.783 -0.0598  0.2928  0.1430
36437W        W45237  14.478   0.352  23.204 -0.0886  0.4136  0.1648
36438W        W45238  16.336   7.006  24.216 -0.0256 -0.0456 -0.0868
36439W        W45239  29.269   5.728  20.041  0.0013 -0.0520  0.2408
36440W        W45240  17.443   0.320  15.242 -0.2915 -0.2562  0.3931
36441W        W45241   6.954   3.784   1.142  0.0132  0.0557  0.0962
36442W        W45242  27.804   5.425  16.737  0.0699  0.2060 -0.1679
36443W        W45243  30.495   3.773  10.479 -0.0594  0.2529  0.0894
36444W        W45244   9.227   4.384   7.539 -0.0606  0.1664  0.3291
36445W        W45245   2.034   2.081  22.614  0.2240  0.0710 -0.1289
36446W        W45246  10.872   2.492   1.903 -0.0533 -0.1396  0.1980
36447W        W45247  16.865   0.536   8.237  0.1390  0.4720  0.0645
36448W        W45248  24.680   4.457  17.996 -0.2735 -0.0588  0.0692
36449W        W45249  25.767   5.398  18.793 -0.2437  0.0549 -0.1238
36450W        W45250   2.307   0.141  23.264  0.0479 -0.0509 -0.2991
36451W        W45251   4.915   2.137  17.100 -0.0862 -0.0969  0.2077
36452W        W45252  20.429   1.866   4.630 -0.0703  0.5084 -0.0033
36453W        W45253  19.690   7.368   7.160  0.0729  0.2207 -0.2421
36454W        W45254   3.282   5.953   0.827  0.2563  0.1678  0.2431
36455W        W45255  27.819   6.340   3.215 -0.0435  0.3996 -0.0811
36456W        W45256  19.366   4.265   3.018  0.2006 -0.0456  0.2557
36457W        W45257   5.208   7.711   7.787  0.1920 -0.0337 -0.0398
36458W        W45258  24.328   5.689  17.207 -0.2165  0.0843 -0.2482
36459W        W45259  22.876   1.366  24.075  0.0137  0.1011  0.1559
36460W        W45260   4.815   6.681   8.261  0.1663 -0.3467  0.0774
36461W        W45261  20.214   3.331  21.082  0.0675  0.2433 -0.1755
36462W        W45262   5.569   2.456  15.323 -0.2388 -0.0244 -0.1165
36463W        W45263   9.725   5.184  17.435 -0.2602 -0.0601 -0.2009
36464W        W45264  28.245   4.419  17.886  0.3688  0.0533  0.0458
36465W        W45265  29.073   2.338  20.285  0.2069 -0.1985 -0.0593
36466W        W45266  29.992   2.133  23.665  0.1873 -0.1291 -0.2063
36467W        W45267  31.243   6.713  17.042 -0.0534  0.0766  0.3263
36468W        W45268   4.227   5.265  24.035  0.0422 -0.2187 -0.0156
36469W        W45269   9.382   7.068  16.298 -0.0991  0.3055  0.1116
36470W        W45270  19.929   2.625  24.663  0.0820 -0.1746 -0.1462
36471W        W45271  17.766   2.750  17.046 -0.0445  0.1219 -0.0077
36472W        W45272  14.492   4.441   7.224  0.1530  0.2476 -0.0742
36473W        W45273  19.855   3.730   2.434  0.1281  0.2189  0.4710
36474W        W45274   4.092   7.495   1.945 -0.1271 -0.0542  0.0189
36475W        W45275  24.410   0.906  22.202 -0.0128 -0.4014 -0.1273
36476W        W45276  29.477   7.509  15.810 -0.2195  0.2527  0.0104
36477W        W45277   8.395   5.661   1.703  0.1286  0.1173 -0.0538
36478W        W45278  12.150   0.296   0.564  0.1359 -0.0114  0.1072
36479W        W45279  28.980   3.689  24.506  0.2319 -0.1789 -0.1100
36480W        W45280  22.192   4.243  23.303 -0.0337  0.0156  0.1213
36481W        W45281   5.739   2.397   6.015  0.0286  0.2442  0.2639
36482W        W45282  22.766   5.086  24.350 -0.4016  0.1183 -0.0612
36483W        W45283   7.416   0.028  10.655  0.1301  0.0482 -0.0491
36484W        W45284  21.169   2.275  24.151  0.2655 -0.1502  0.0497
36485W        W45285   2.832   6.880   2.277  0.2438  0.1456 -0.2286
36486W        W45286  24.041   4.728   0.670  0.2201 -0.3110  0.2895
36487W        W45287  15.608   2.644   0.692 -0.0553  0.1875 -0.1523
36488W        W45288   4.598   0.391  18.724 -0.2821  0.1142 -0.1402
36489W        W45289  12.034   0.932  19.050 -0.2193 -0.0193  0.4383
36490W        W45290   6.181   4.963  23.356 -0.0575  0.1334 -0.0458
36491W        W45291  28.882   2.969   1.470  0.1145  0.0649  0.0901
36492W        W45292   4.537   1.212   6.764  0.2384 -0.0783 -0.1871
36493W        W45293  15.007   5.524  23.985  0.1918 -0.1461 -0.1222
36494W        W45294   8.347   0.837  19.976 -0.0965  0.2793  0.0667
36495W        W45295  14.306   3.803  20.872  0.1594  0.0445 -0.0301
36496W        W45296  12.875   3.740  22.701 -0.1816  0.0836  0.0749
36497W        W45297  23.526   1.484  20.102  0.0773  0.0742 -0.0755
36498W        W45298   5.369   4.251  17.711  0.1742  0.2861 -0.1612
36499W        W45299  31.094   7.384  18.962 -0.1989 -0.0614  0.0543
36500W        W45300  21.206   1.395  17.985  0.3389 -0.0281 -0.0662
36501W        W45301  24.000   6.084  19.414 -0.1720  0.3422  0.0581
36502W        W45302  21.465   3.612  15.925  0.0227  0.3296  0.1447
36503W        W45303  18.724   4.518   1.839 -0.1670  0.1803  0.1853
36504W        W45304  22.028   7.027   0.110 -0.2557 -0.2277  0.0258
36505W        W45305  18.150   7.536   9.064  0.0899 -0.1694 -0.1011
36506W        W45306  16.654   4.923   1.101  0.2920 -0.3848  0.0651
36507W        W45307   8.914   5.721  19.029 -0.1442  0.0734  0.0411
36508W        W45308  27.336   7.268   5.195 -0.2610 -0.0031  0.2663
36509W        W45309   3.990   5.677  24.293  0.0924  0.0699 -0.2453
36510W        W45310   5.379   1.473   7.986 -0.0048  0.0853 -0.1440
36511W        W45311   1.079   1.818  17.505  0.1227  0.2397 -0.1017
36512W        W45312  19.308   6.478   1.140 -0.0041 -0.2883 -0.1803
36513W        W45313   7.481   4.540   5.749 -0.1801  0.2362  0.1514
36514W        W45314   2.092   3.419  16.367  0.2329 -0.2236  0.1457
36515W        W45315  13.946   6.474  24.530 -0.2345 -0.1524  0.2332
36516W        W45316  29.084   2.159   0.829 -0.0500 -0.0899  0.0465
36517W        W45317  13.123   3.748  18.450  0.1182 -0.1648  0.0827
36518W        W45318   1.708   3.929   3.292  0.2751 -0.3401 -0.0409
36519W        W45319  25.673   0.412   3.458  0.1495  0.0145 -0.0299
36520W        W45320   3.978   5.588  26.066  0.2751  0.0205  0.3414
36521W        W45321   1.532   7.096  11.264  0.1075 -0.1203  0.0178
36522W        W45322  15.894   0.486   5.878  0.1479  0.1513  0.3345
36523W        W45323  22.654   7.326   7.280  0.0692  0.0038  0.1211
36524W        W45324   6.489   6.568   3.440 -0.1725 -0.0219 -0.0062
36525W        W45325  23.192   4.372  23.720 -0.1959  0.2845  0.4093
36526W        W45326  11.929   7.397   9.681 -0.1009  0.0079  0.1967
36527W        W45327   6.461   2.444   2.050 -0.0838  0.2912 -0.1247
36528W        W45328  29.452   3.995   7.476 -0.0837 -0.1729 -0.0483
36529W        W45329   6.329   6.694  19.775  0.0356  0.1651 -0.1008
36530W        W45330  26.541   2.053   8.457 -0.1243  0.0507  0.0791
36531W        W45331   5.526   4.931  16.242 -0.1218 -0.0712 -0.1104
36532W        W45332   9.219   3.539   4.694  0.1673  0.0383 -0.0981
36533W        W45333  11.527   2.690   6.744 -0.2113 -0.1344 -0.0192
36534W        W45334  24.387   2.889  15.451 -0.1116  0.1379  0.2395
36535W        W45335  26.331   4.263  17.707 -0.0189 -0.0523  0.1893
36536W        W45336   1.587   6.807  22.240 -0.4260 -0.1554  0.1523
36537W        W45337  12.453   6.793  15.318  0.1757  0.0591 -0.2028
36538W        W45338  19.094   6.061  19.288  0.0601  0.0957  0.1135
36539W        W45339  11.202   6.169  20.885  0.0033 -0.3537 -0.0936
36540W        W45340   9.108   6.076  25.151 -0.1090  0.0924 -0.1988
36541W        W45341  23.590   4.897   9.841  0.1802 -0.2212 -0.1242
36542W        W45342  10.018   4.273   9.846 -0.1506  0.1284 -0.3645
36543W        W45343  11.795   2.422  18.777  0.0365 -0.0627 -0.1410
36544W        W45344  21.689   2.145  21.750  0.1606  0.2787 -0.1079
36545W        W45345  21.778   5.850  21.821  0.2347  0.1007 -0.0653
36546W        W45346  19.332   5.550  16.756 -0.1131  0.3120  0.2502
36547W        W45347  30.116   2.753   2.165 -0.1362 -0.0447 -0.1188
36548W        W45348  31.101   4.375  17.598  0.0298 -0.0299  0.1391
36549W        W45349  26.151   1.862   0.305  0.0262  0.0763  0.2499
36550W        W45350   2.103   6.156   9.678 -0.0307 -0.0733 -0.0510
36551W        W45351  11.174   5.925   9.181  0.0592  0.1829 -0.1374
36552W        W45352  14.537   4.341   6.222  0.1238  0.0137  0.0307
36553W        W45353  28.503   5.253   5.475  0.0724 -0.2737 -0.0451
36554W        W45354  30.816   2.894   9.454  0.1655  0.0383  0.0676
36555W        W45355  28.795   6.232   2.994  0.0089 -0.2126  0.0870
36556W        W45356  20.858   1.440  24.650  0.2813  0.0463  0.0504
36557W        W45357  21.878   4.714   8.928  0.3832  0.1815 -0.1278
36558W        W45358  25.618   0.440   2.966  0.2174  0.0601 -0.1898
36559W        W45359   1.072   0.719   7.520 -0.0409 -0.1886 -0.3695
36560W        W45360   1.559   5.271  26.073  0.1455 -0.1577  0.0231
36561W        W45361  19.830   5.801   5.885 -0.0250  0.2990  0.0268
36562W        W45362  22.248   0.551   9.097 -0.0744  0.2006 -0.1543
36563W        W45363  16.366   0.786  19.190  0.1176  0.2445 -0.0320
36564W        W45364  27.140   0.283  22.118 -0.0488  0.1404  0.2172
36565W        W45365  15.556   2.160   1.765 -0.1702 -0.1483 -0.1642
36566W        W45366   8.973   3.362   6.939  0.0706 -0.0926  0.1043
36567W        W45367  25.807   6.533  22.293 -0.1656 -0.1043 -0.0694
36568W        W45368  18.372   2.100  16.347  0.0826 -0.0324  0.0821
36569W        W45369   3.988   5.152   2.660 -0.0732  0.0323 -0.0350
36570W        W45370  17.480   7.658   3.711  0.1712 -0.1671  0.0334
36571W        W45371  19.365   6.991   8.168  0.0550 -0.0041  0.0723
36572W        W45372  17.436   2.418  20.595  0.0444  0.0507  0.0112
36573W        W45373  15.639   4.483   6.156 -0.0843  0.1238 -0.1772
36574W        W45374  30.655   7.523   8.001 -0.0497 -0.2092 -0.1820
36575W        W45375  14.154   3.888  21.499  0.1330 -0.0302  0.0914
36576W        W45376   5.124   7.631   2.361 -0.1141  0.0832 -0.2156
36577W        W45377  27.209   5.446   6.850 -0.0175 -0.1117  0.1722
36578W        W45378  20.377   2.361  16.891  0.1372 -0.0050 -0.1641
36579W        W45379   5.530   5.410  15.000 -0.0983 -0.1241 -0.1243
36580W        W45380  30.928   5.150   5.434  0.1006 -0.2195 -0.2135
36581W        W45381  19.599   1.491   6.582  0.1021 -0.0990  0.1189
36582W        W45382  11.245   0.174   0.282 -0.0924 -0.2331  0.2269
36583W        W45383   9.615   3.056  19.859  0.1564  0.2567  0.2999
36584W        W45384  16.935   0.830   4.575  0.0750  0.1250  0.0043
36585W        W45385   4.699   4.117  24.845  0.2116  0.1255  0.1059
36586W        W45386  20.066   3.241   1.614 -0.0931  0.0233  0.1153
36587W        W45387   4.573   7.155   1.319 -0.0695 -0.0729  0.0399
36588W        W45388  25.301   3.372   8.315  0.0948  0.1359  0.0037
36589W        W45389  15.022   7.660  21.817  0.3454 -0.2304  0.3546
36590W        W45390  15.189   5.881  18.870  0.0671  0.0340  0.0455
36591W        W45391  28.086   5.767   6.003  0.0340 -0.2859 -0.0863
36592W        W45392  15.990   2.662   9.956 -0.1354 -0.1230  0.0899
36593W        W45393  16.109   7.600  25.474 -0.0141  0.2659 -0.2652
36594W        W45394  13.745   4.606   1.995  0.1515 -0.1018 -0.0728
36595W        W45395  17.451   1.587   4.049  0.0834 -0.2978 -0.1690
36596W        W45396   3.103   7.721   2.656  0.3422 -0.2369 -0.1182
36597W        W45397  13.332   3.398  21.752 -0.1640  0.2436 -0.0750
36598W        W45398  13.880   5.042  16.167 -0.0095 -0.1220  0.0813
36599W        W45399   3.104   5.340  19.597  0.0076  0.0346 -0.1158
36600W        W45400  14.828   4.498   8.823  0.1572 -0.3944  0.0547
36601W        W45401  25.422   1.505  21.425  0.1250 -0.2176 -0.2123
36602W        W45402  19.215   5.544  24.960  0.0480  0.0855  0.0321
36603W        W45403  16.140   4.178   8.977 -0.1189  0.1524 -0.2828
36604W        W45404  28.503   6.958   5.527  0.0138 -0.0692  0.0078
36605W        W45405  12.321   0.824  17.761  0.2398 -0.5922  0.1428
36606W        W45406  22.595   1.541   4.609  0.0038  0.0280  0.0749
36607W        W45407  28.779   4.350  20.013  0.1110 -0.0125  0.1222
36608W        W45408  14.295   4.534   7.665  0.4920 -0.1913  0.1659
36609W        W45409  19.571   5.021  26.128  0.0210  0.1498  0.2382
36610W        W45410  21.801   3.631   1.485 -0.0561 -0.2293 -0.1035
36611W        W45411  27.252   1.010   6.862  0.2062  0.2276  0.1452
36612W        W45412  28.013   6.260  15.982  0.2409  0.4053 -0.0525
36613W        W45413   4.656   7.199  22.219  0.0131  0.1729  0.0203
36614W        W45414   9.479   4.964  24.111  0.0355 -0.2005 -0.0349
36615W        W45415   9.275   3.861  24.408  0.0627  0.1591  0.0485
36616W        W45416  22.554   6.391  24.817  0.2165  0.3895  0.0118
36617W        W45417  13.536   7.746   2.693  0.0760 -0.2295  0.2555
36618W        W45418  20.227   6.628  10.273  0.0416 -0.1606 -0.2928
36619W        W45419  18.949   1.288  15.809 -0.0241  0.0974 -0.0305
36620W        W45420   2.211   0.891   8.818 -0.2190  0.2286  0.0894
36621W        W45421  27.100   4.002  21.227 -0.2323  0.0708  0.1230
36622W        W45422   5.130   2.376   5.247  0.5799 -0.4084 -0.1246
36623W        W45423  19.148   3.236   0.414  0.0612 -0.1316 -0.1313
36624W        W45424   4.393   2.944  24.589  0.3012 -0.0052  0.2069
36625W        W45425  11.349   6.016   1.398 -0.0539 -0.5480 -0.0017
36626W        W45426  18.076   4.729  20.421  0.0394 -0.0949  0.1312
36627W        W45427   6.802   0.856   0.148  0.0441  0.1052  0.0850
36628W        W45428  10.890   0.769  25.193 -0.2177 -0.0470  0.2721
36629W        W45429  20.466   7.724  14.947  0.0163 -0.0922 -0.0578
36630W        W45430   7.666   2.719  16.616  0.0736  0.4555  0.0275
36631W        W45431   2.894   4.554   9.648 -0.1054  0.0722  0.2062
36632W        W45432   8.458   0.300   4.058  0.0446 -0.1616 -0.1272
36633W        W45433   2.325   5.029   8.576  0.2399  0.2981 -0.0309
36634W        W45434  25.430   1.772   7.795 -0.0330 -0.2781 -0.2297
36635W        W45435   6.531   7.565  24.656 -0.0199 -0.1836  0.2554
36636W        W45436  22.721   1.286   2.708 -0.0207 -0.1555  0.2020
36637W        W45437   0.066   0.498  19.042 -0.0408  0.1209  0.0679
36638W        W45438  11.521   2.406   7.888 -0.2119  0.1828 -0.0647
36639W        W45439  29.441   5.067  22.719 -0.0619  0.2058 -0.4270
36640W        W45440  31.032   3.559  17.617  0.0421  0.1677 -0.1136
36641W        W45441  13.835   2.788   2.323 -0.0406  0.2314 -0.1537
36642W        W45442  27.831   4.961  24.505 -0.1304  0.0257 -0.0983
36643W        W45443  15.509   4.622  17.814 -0.0862 -0.0679  0.5314
36644W        W45444  24.425   2.392  19.761  0.3179 -0.1391 -0.0190
36645W        W45445   5.018   6.705  21.098  0.1991  0.1145  0.3830
36646W        W45446   2.938   6.631  22.437  0.1095  0.1160  0.1009
36647W        W45447   0.503   5.261  23.916 -0.0419  0.1349  0.0872
36648W        W45448  13.338   5.773  10.987 -0.2067 -0.1759  0.0052
36649W        W45449  17.141   1.054   1.569  0.0077  0.0430  0.3816
36650W        W45450   8.674   0.087  23.580 -0.2919 -0.0845  0.1254
36651W        W45451  17.508   6.291   8.503  0.1219 -0.1825 -0.1584
36652W        W45452   9.495   0.980   7.070  0.0276  0.0472  0.2828
36653W        W45453  29.763   1.456   8.360  0.1006  0.3577 -0.0731
36654W        W45454   4.415   5.029  19.831  0.0968  0.0681 -0.2204
36655W        W45455  18.781   4.394  19.051  0.2027 -0.0624  0.0748
36656W        W45456  21.464   4.560  23.340  0.1035 -0.0526  0.0585
36657W        W45457  22.949   7.374  15.816 -0.1450  0.0086 -0.0101
36658W        W45458  17.868   3.710  21.233  0.3268 -0.0690  0.0850
36659W        W45459   0.396   3.978  18.927  0.0097  0.1262  0.0737
36660W        W45460  20.127   4.995  16.032  0.0145  0.3120 -0.1040
36661W        W45461   8.925   2.503  17.144 -0.2755  0.1135  0.0753
36662W        W45462  22.029   5.599  18.680 -0.1924  0.0747 -0.0059
36663W        W45463   6.603   2.275  11.037 -0.2720  0.1852 -0.1042
36664W        W45464  29.345   1.313  17.305  0.0855 -0.0239 -0.1332
36665W        W45465  14.493   7.196  16.427 -0.0306 -0.4361  0.0051
36666W        W45466   5.257   5.881  17.842 -0.2603 -0.0879 -0.0353
36667W        W45467   8.652   0.571   6.886 -0.2826 -0.4150  0.3905
36668W        W45468  19.684   0.585   9.288 -0.1963 -0.3597  0.0452
36669W        W45469   9.670   7.703  18.112  0.0264 -0.4074 -0.0892
36670W        W45470   3.097   6.669   1.519  0.0491 -0.0889 -0.0848
36671W        W45471  15.324   6.257   6.589 -0.1812  0.0060 -0.1281
36672W        W45472  12.614   0.900   8.995  0.2819 -0.0902 -0.0185
36673W        W45473  26.138   3.971  22.336  0.0867 -0.0314  0.2541
36674W        W45474  15.003   0.516  22.475  0.0755  0.2260  0.0242
36675W        W45475  30.918   0.594   5.015  0.1666 -0.2704 -0.0890
36676W        W45476   1.066   2.834  21.012  0.0606 -0.0746 -0.1692
36677W        W45477   8.173   6.116  18.780 -0.1270  0.1806 -0.0457
36678W        W45478  11.091   7.520  10.564  0.0155  0.0134  0.1503
36679W        W45479  22.724   3.745   6.414 -0.3812 -0.0035  0.1640
36680W        W45480  30.700   3.934  19.454 -0.0436 -0.0561 -0.0677
36681W        W45481   0.796   5.095  21.482  0.1987 -0.1418  0.1064
36682W        W45482   9.709   1.749  21.042 -0.0131  0.0101 -0.1380
36683W        W45483  17.573   1.123   5.824  0.1058 -0.2542 -0.0859
36684W        W45484   5.649   6.658  20.176 -0.2888 -0.0104 -0.3217
36685W        W45485   6.262   0.148  22.783 -0.0939 -0.1626 -0.0361
36686W        W45486   2.677   3.998   9.022 -0.2533  0.0939 -0.0203
36687W        W45487  24.099   2.289   2.297 -0.4445 -0.1337  0.1027
36688W        W45488  30.272   0.531   8.087  0.1739 -0.0932  0.0085
36689W        W45489  20.881   3.594   3.760 -0.0767 -0.1210  0.0834
36690W        W45490   4.422   5.116   0.434  0.0342  0.0517  0.2312
36691W        W45491  22.926   1.478  24.566 -0.0267  0.0374  0.0501
36692W        W45492  12.258   3.839  24.101  0.1096  0.2458  0.0788
36693W        W45493   3.249   0.221  25.248 -0.1754  0.3917  0.1131
36694W        W45494  30.648   3.848   4.483  0.1077  0.1006 -0.1178
36695W        W45495  29.281   7.543  21.091  0.0437 -0.0544 -0.0245
36696W        W45496  10.072   3.003  16.188 -0.0972 -0.2170  0.0533
36697W        W45497  15.548   2.071  19.808 -0.3154  0.1347 -0.1372
36698W        W45498   9.162   0.951  16.817  0.0769 -0.2468  0.1514
36699W        W45499  15.262   7.195  15.532  0.1343 -0.1774  0.2805
36700W        W45500  18.133   0.131   7.952  0.0110  0.2770  0.1460
36701W        W45501  26.623   1.710  14.677  0.0906  0.0466  0.2455
36702W        W45502  29.453   3.439  11.011 -0.2613  0.2362 -0.2902
36703W        W45503  13.772   6.731  23.921  0.1369 -0.1043 -0.2183
36704W        W45504   6.060   5.706  24.564 -0.1236  0.1145 -0.2258
36705W        W45505  10.209   7.299  15.641  0.2656  0.0079  0.0318
36706W        W45506  14.709   5.223   0.067 -0.0525  0.0457  0.0949
36707W        W45507  16.258   1.151  22.457  0.1683  0.2765  0.3927
36708W        W45508  19.664   4.183   1.456 -0.0421 -0.1697  0.1410
36709W        W45509  20.980   5.763   6.792  0.0005  0.0617 -0.0338
36710W        W45510  23.255   6.398   2.691  0.0520  0.0419  0.1497
36711W        W45511  13.308   1.208  24.048 -0.2952  0.0746 -0.2246
36712W        W45512  27.186   4.006  16.414  0.2538 -0.1148 -0.0362
36713W        W45513   3.176   3.788  25.781  0.1869 -0.2016 -0.1894
36714W        W45514   1.675   7.093  25.790 -0.1446 -0.1962 -0.2827
36715W        W45515  26.841   7.320  24.234 -0.0997 -0.3596 -0.2282
36716W        W45516  13.925   0.596  22.290  0.0692 -0.2197  0.0033
36717W        W45517  12.725   3.514   6.407  0.0286  0.0183  0.2615
36718W        W45518   0.437   0.884   2.266  0.0625  0.2397  0.0315
36719W        W45519  26.079   4.382  21.292  0.0729 -0.0929 -0.0147
36720W        W45520  21.414   1.805  20.701  0.4390  0.0819 -0.3266
36721W        W45521  15.969   5.633   3.169 -0.0875 -0.2033 -0.0471
36722W        W45522  27.926   0.103   1.709  0.1333  0.1557 -0.0619
36723W        W45523  28.964   7.760  20.785  0.1044  0.0826  0.2338
36724W        W45524   1.021   0.155   0.650  0.0704 -0.0109 -0.1398
36725W        W45525   1.478   2.924   0.503 -0.0657  0.1821  0.1339
36726W        W45526   7.541   0.807   3.101 -0.0963  0.2102  0.0339
36727W        W45527  26.101   0.669  15.251  0.0701 -0.0358 -0.0796
36728W        W45528  17.414   4.121   5.040  0.0271 -0.1151  0.1865
36729W        W45529  24.865   0.846  20.917  0.1016  0.2071  0.1032
36730W        W45530   1.979   0.692  18.780 -0.1135 -0.1881 -0.1289
36731W        W45531   1.754   5.024  23.043  0.2255  0.0425  0.1890
36732W        W45532  11.837   0.395  20.211 -0.2736 -0.2865 -0.1695
36733W        W45533  10.781   0.438  15.603 -0.1591 -0.2469 -0.0199
36734W        W45534   5.360   4.173   8.472 -0.1587 -0.2816  0.1455
36735W        W45535   1.134   3.448  23.580  0.3236  0.0171 -0.3759
36736W        W45536  26.857   5.877  18.479  0.1107 -0.4855  0.0515
36737W        W45537   6.678   7.790  17.796  0.0225  0.1564  0.0954
36738W        W45538  22.350   0.900  15.283  0.1438 -0.0121 -0.0006
36739W        W45539  16.821   2.870   4.434  0.2504  0.1415 -0.0861
36740W        W45540  16.919   5.517   6.948 -0.1454  0.0327 -0.1182
36741W        W45541  17.514   0.776   6.926  0.1007  0.1105 -0.1275
36742W        W45542  27.504   4.503   4.621 -0.0397  0.3404  0.2589
36743W        W45543  19.550   1.116   7.995 -0.0769  0.0873 -0.1786
36744W        W45544   6.750   5.291   3.627  0.1548  0.1597  0.0539
36745W        W45545   8.004   4.295  25.961 -0.1010 -0.2707  0.0798
36746W        W45546  29.644   4.159  18.511 -0.2210  0.0916 -0.2676
36747W        W45547  27.727   2.619  15.620  0.0243 -0.0832  0.2364
36748W        W45548   9.844   4.670  18.976 -0.0327  0.0019 -0.2140
36749W        W45549  16.316   0.229   4.699  0.4283  0.1147 -0.3624
36750W        W45550   6.874   3.000  18.959  0.0573 -0.0396  0.0263
36751W        W45551   7.390   4.687  14.841  0.1756  0.0734 -0.2905
36752W        W45552   2.475   3.434   3.547  0.1415  0.1136 -0.3437
36753W        W45553  17.717   5.672  21.806 -0.0522  0.1255  0.1671
36754W        W45554  11.126   1.111   7.576 -0.1318 -0.1483  0.1072
36755W        W45555  27.484   0.283  25.452 -0.1731 -0.0509  0.0362
36756W        W45556  23.030   3.001  25.047  0.0751 -0.1327 -0.0872
36757W        W45557  23.322   6.422  23.089  0.1822 -0.0632 -0.2729
36758W        W45558  17.357   4.283   8.849 -0.0948  0.1351 -0.1157
36759W        W45559   0.224   4.959   0.223 -0.1722 -0.3015  0.0805
36760W        W45560  28.290   7.675   4.296  0.0961  0.2214 -0.0785
36761W        W45561   3.245   5.483   7.105  0.2914 -0.0666  0.0880
36762W        W45562   0.921   5.787   7.868 -0.2447 -0.1750 -0.0418
36763W        W45563  27.399   1.008  10.259  0.1114  0.1132  0.2276
36764W        W45564  16.946   2.468  23.887  0.3484 -0.0862  0.0969
36765W        W45565   8.091   3.975  21.341  0.3109 -0.1765  0.0227
36766W        W45566  12.455   0.404  20.893  0.1976 -0.0708 -0.0808
36767W        W45567  17.584   6.203   7.266 -0.0736 -0.0384  0.0176
36768W        W45568  24.159   1.725  25.904  0.0219  0.0629  0.0128
36769W        W45569  16.403   6.785  21.638 -0.0327  0.0802 -0.2243
36770W        W45570   3.556   6.001  16.824 -0.0669 -0.1106  0.0774
36771W        W45571   0.086   0.614   4.918  0.1448  0.1594 -0.0701
36772W        W45572  20.185   2.964  10.774 -0.3349  0.2454 -0.0242
36773W        W45573  18.690   4.393  14.658 -0.0355 -0.0192 -0.2384
36774W        W45574  29.136   1.278  22.566 -0.0044  0.1505 -0.4483
36775W        W45575  26.986   0.931   7.266  0.0840  0.1116  0.2617
36776W        W45576   4.318   4.933  10.707 -0.1175 -0.4709 -0.4427
36777W        W45577   3.998   1.979  25.853  0.2125 -0.0373 -0.3011
36778W        W45578  28.446   3.628  16.087 -0.4000  0.1266 -0.1960
36779W        W45579  30.487   6.224  10.636 -0.0774 -0.2438  0.1055
36780W        W45580   4.648   7.808  10.236 -0.1550 -0.5812  0.1380
36781W        W45581  19.505   0.996   3.148 -0.2315 -0.4767 -0.1734
36782W        W45582  12.395   6.376  20.593 -0.0497  0.1392  0.2820
36783W        W45583  20.201   7.643   2.140 -0.0536  0.0990 -0.0629
36784W        W45584  12.185   0.905  18.554  0.0228 -0.0078 -0.0215
36785W        W45585  28.428   1.541  17.355 -0.1383 -0.1566  0.0395
36786W        W45586  29.380   4.163  17.299  0.0130 -0.2894 -0.2355
36787W        W45587   1.346   0.312  10.373 -0.0588 -0.2255  0.0696
36788W        W45588  21.855   1.918  14.576 -0.0663 -0.2651  0.3900
36789W        W45589  29.844   7.661  11.001 -0.0112 -0.1674 -0.1561
36790W        W45590  10.668   6.399   7.275  0.2640 -0.0250  0.2533
36791W        W45591  29.714   2.887   1.922 -0.2909  0.0832 -0.1521
36792W        W45592   1.959   6.598  17.669 -0.1207 -0.0695 -0.1249
36793W        W45593  28.122   7.745  22.166  0.0220  0.0924 -0.2313
36794W        W45594   9.614   1.233   6.103  0.1149 -0.1771 -0.0033
36795W        W45595  25.247   4.063  16.300 -0.1394 -0.1053  0.2767
36796W        W45596   9.247   0.969   5.768 -0.4438 -0.1730 -0.0885
36797W        W45597  17.764   4.615  16.030 -0.1740 -0.0772  0.0871
36798W        W45598  26.297   0.861  22.194  0.0757  0.0239  0.0001
36799W        W45599  11.884   2.874   5.837  0.1193  0.2586  0.0036
36800W        W45600   1.299   2.847   0.946  0.0955 -0.1300  0.1184
36801W        W45601  13.958   6.500   8.891  0.0287  0.0292  0.2619
36802W        W45602  17.644   4.819   0.323 -0.0116 -0.2911 -0.1134
36803W        W45603  24.506   0.508  17.557 -0.3100  0.2920 -0.0054
36804W        W45604  15.147   1.102   7.258  0.3411  0.2531 -0.1130
36805W        W45605  23.258   2.743   4.737 -0.0591  0.1825  0.0885
36806W        W45606  22.596   0.552   7.795 -0.1622 -0.4167  0.5365
36807W        W45607  25.023   5.897   9.133 -0.1611 -0.1755  0.1051
36808W        W45608  21.988   3.025   9.760 -0.0199 -0.0379 -0.0634
36809W        W45609  20.117   2.802  10.055 -0.1356  0.0216  0.0222
36810W        W45610  25.986   3.979   7.503  0.1106 -0.1335 -0.1715
36811W        W45611  27.836   4.428   2.752 -0.2341 -0.1488  0.1194
36812W        W45612   4.566   6.770  15.760 -0.1581  0.0640  0.4486
36813W        W45613  21.150   1.556  19.034 -0.3168  0.1921 -0.0533
36814W        W45614  29.181   4.298  18.762 -0.1518 -0.0181 -0.1869
36815W        W45615  28.857   7.485  18.545  0.2283  0.0395 -0.1958
36816W        W45616  12.595   6.527  19.885  0.1584  0.3547 -0.1463
36817W        W45617   1.979   6.515  26.106  0.2502 -0.2672  0.0199
36818W        W45618   8.326   6.993   2.281 -0.2285  0.0774  0.1094
36819W        W45619  26.007   6.341  24.421 -0.0408  0.2802 -0.0467
36820W        W45620  19.121   3.477   8.118 -0.1843 -0.1473  0.2410
36821W        W45621  12.864   4.037  17.704  0.0504  0.0044 -0.2355
36822W        W45622  11.989   1.254   9.208  0.1165  0.3020 -0.0939
36823W        W45623  29.043   6.077   8.496 -0.0965 -0.2718  0.2096
36824W        W45624  12.313   2.210  16.240 -0.0219 -0.1062  0.1715
36825W        W45625  24.976   7.000  23.989 -0.1586  0.1070  0.3332
36826W        W45626   9.123   7.497  22.044 -0.1743  0.4248 -0.1345
36827W        W45627  17.322   0.540  19.563  0.0849  0.1671  0.2313
36828W        W45628   6.060   2.904  23.976  0.0884 -0.1414 -0.0134
36829W        W45629  24.399   2.513   2.596  0.1163 -0.1045 -0.1740
36830W        W45630  22.867   1.908   7.393 -0.0132  0.0229  0.1556
36831W        W45631  18.950   2.312   5.896 -0.1006 -0.0733 -0.3068
36832W        W45632  26.263   1.774   4.675  0.2075  0.5500  0.1645
36833W        W45633  25.264   2.479  22.231  0.1355 -0.0561  0.1722
36834W        W45634  23.833   7.497  21.831 -0.2027 -0.0813 -0.1679
36835W        W45635  29.132   2.459   5.519  0.0388  0.0803  0.0131
36836W        W45636  10.796   7.746   9.868  0.1378 -0.1438 -0.2693
36837W        W45637   2.448   7.670   5.724  0.2722  0.0820  0.1190
36838W        W45638   3.745   0.344   3.933  0.2000  0.0456 -0.2886
36839W        W45639   0.178   3.914  23.928  0.3158  0.3021  0.4067
36840W        W45640  15.453   1.927   6.515 -0.2043 -0.1244  0.0503
36841W        W45641  21.450   3.657  24.536 -0.0735  0.1564 -0.2778
36842W        W45642   5.944   7.699  18.862  0.2657  0.4770  0.0428
36843W        W45643  24.000   1.043  25.913  0.2076  0.1794 -0.3297
36844W        W45644  21.425   6.552  21.509 -0.0701  0.0450  0.0094
36845W        W45645   6.246   0.516  18.124 -0.1357  0.0997 -0.0735
36846W        W45646   0.908   4.473   7.921  0.1276 -0.1057 -0.1995
36847W        W45647   7.978   5.647  21.484 -0.0131 -0.1526 -0.3558
36848W        W45648   3.584   6.512  24.734  0.0060 -0.0085 -0.2302
36849W        W45649   5.603   6.420   8.984 -0.0927 -0.0762 -0.1471
36850W        W45650   1.420   0.499   6.185  0.0519  0.1715  0.1449
36851W        W45651  10.605   0.814  25.637 -0.2599 -0.0440 -0.0326
36852W        W45652  25.471   4.909  21.839  0.3423 -0.0245  0.0483
36853W        W45653  19.633   2.065  25.878 -0.1109 -0.0228 -0.1528
36854W        W45654  24.591   0.244  24.682  0.0659 -0.1103 -0.3702
36855W        W45655   2.694   7.625   1.167 -0.1174  0.1265 -0.0878
36856W        W45656  19.589   5.320   1.666  0.0440 -0.1208  0.2051
36857W        W45657  14.840   0.255   2.445  0.2338 -0.3005  0.0067
36858W        W45658   2.602   5.364   4.897 -0.0171  0.1630  0.2299
36859W        W45659  16.489   5.295  16.007 -0.0083 -0.2255  0.0194
36860W        W45660  12.031   3.304  23.458 -0.0722  0.0778 -0.0801
36861W        W45661  24.018   6.102   9.450  0.2439 -0.2739  0.1627
36862W        W45662   1.727   1.793   2.305  0.0219 -0.2423  0.0359
36863W        W45663  10.490   5.033  25.864  0.4625  0.5820  0.2294
36864W        W45664  24.857   3.101   9.791 -0.3284  0.2686 -0.1186
36865W        W45665  21.211   0.158  19.822  0.0502  0.5439 -0.2218
36866W        W45666  27.553   6.749   6.301 -0.0823  0.0676 -0.0919
36867W        W45667  11.574   1.786   1.432  0.2891 -0.0462  0.0516
36868W        W45668  29.061   2.875  20.078  0.0179 -0.2478  0.0439
36869W        W45669   1.976   6.051  17.814 -0.0273 -0.1056  0.0693
36870W        W45670  14.125   7.663   8.100 -0.0643  0.0148 -0.0662
36871W        W45671  13.969   1.477   9.115  0.1055  0.0909 -0.1851
36872W        W45672  25.297   7.465   2.677  0.0404  0.1311 -0.1651
36873W        W45673  21.670   3.988   0.073 -0.0138  0.3507  0.2993
36874W        W45674   2.561   6.338  21.545  0.2031  0.1840 -0.1758
36875W        W45675  11.725   1.573  24.013 -0.0176 -0.0160 -0.1467
36876W        W45676  18.722   7.174  23.849 -0.0968 -0.1091 -0.2483
36877W        W45677  18.409   3.322  22.103 -0.2136 -0.1954  0.0528
36878W        W45678  18.814   5.618  24.202 -0.0279 -0.5137 -0.0456
36879W        W45679   3.455   1.097  19.912 -0.1126  0.0938  0.1224
36880W        W45680  14.792   7.816  17.924 -0.1781 -0.1048  0.0235
36881W        W45681  20.096   3.000  24.289 -0.0502 -0.2796 -0.0510
36882W        W45682  16.557   0.533   5.399 -0.1376  0.0716 -0.1759
36883W        W45683  12.703   5.238   9.394  0.4309 -0.3276 -0.0504
36884W        W45684  29.878   1.903   1.670  0.0794 -0.1775  0.3413
36885W        W45685  25.125   0.290  10.829  0.0691  0.1093  0.1189
36886W        W45686  22.436   7.241  22.798 -0.0087  0.0698  0.0311
36887W        W45687  31.237   4.072  18.838  0.2165  0.0135  0.2405
36888W        W45688  22.116   6.106  23.567 -0.1848  0.0464 -0.0685
36889W        W45689  25.609   3.054  25.261 -0.1639 -0.1144  0.2104
36890W        W45690  15.090   2.763   1.813  0.0476  0.3509 -0.0971
36891W        W45691   8.645   0.996  16.409  0.2719  0.0654  0.1549
36892W        W45692   1.646   3.362   0.274 -0.0180  0.2266 -0.1291
36893W        W45693   6.854   3.394   4.707 -0.1818 -0.0187 -0.2483
36894W        W45694  11.751   1.994  15.654  0.0991  0.1397  0.2637
36895W        W45695  16.332   0.242  22.906 -0.0998  0.1905  0.0928
36896W        W45696   7.112   1.322   8.353 -0.0852  0.1313  0.2351
36897W        W45697   9.394   7.249  15.835  0.1537  0.2572 -0.0982
36898W        W45698  29.043   7.309   5.724 -0.0788  0.0337  0.0517
36899W        W45699  23.300   5.433  16.164  0.0495 -0.1911  0.0035
36900W        W45700   0.564   1.325   2.058  0.2120 -0.0845 -0.2219
36901W        W45701   5.937   1.608   1.917  0.1479  0.0543  0.1800
36902W        W45702   8.686   1.992  24.997 -0.2570  0.0061  0.3888
36903W        W45703   3.787   2.878   1.387  0.2739  0.0304  0.1999
36904W        W45704  15.187   2.082  20.292  0.0646 -0.0873  0.0510
36905W        W45705  23.559   2.983  20.914  0.1525 -0.1696  0.0781
36906W        W45706  26.950   4.593   7.744  0.0672 -0.1485  0.3779
36907W        W45707   4.858   2.067  18.910 -0.0517 -0.3561  0.0776
36908W        W45708  16.016   7.187  17.048  0.1829 -0.0344 -0.0662
36909W        W45709   8.037   1.907   3.172  0.0204 -0.0215  0.0510
36910W        W45710  10.768   2.667   9.531 -0.3506  0.1423 -0.1343
36911W        W45711   3.046   6.655   2.975  0.0181 -0.0636 -0.0104
36912W        W45712  24.134   0.483  23.283 -0.2606 -0.2450 -0.0659
36913W        W45713  28.173   7.312  24.754 -0.0264 -0.0261 -0.0435
36914W        W45714  10.022   3.481  17.824  0.0244 -0.0951  0.2344
36915W        W45715  16.478   2.610   3.606 -0.0559 -0.1059  0.0707
36916W        W45716  25.499   6.840   0.607 -0.0048 -0.2557 -0.1318
36917W        W45717  27.733   2.042   6.016 -0.0868  0.3147 -0.1707
36918W        W45718   4.317   6.710  15.333 -0.0496 -0.0203  0.0988
36919W        W45719  17.945   6.919  19.595  0.0137  0.0736 -0.0914
36920W        W45720  10.935   6.589   6.558  0.1987  0.1747 -0.3212
36921W        W45721  14.528   5.208  18.913 -0.1012  0.1069  0.1281
36922W        W45722  17.878   4.570  22.441 -0.0678 -0.0838 -0.0925
36923W        W45723  17.259   1.106  10.469 -0.4205  0.3920 -0.1155
36924W        W45724   0.328   5.983  23.326 -0.0346 -0.1155 -0.0578
36925W        W45725   4.653   3.528  20.781 -0.0566  0.2668  0.1317
36926W        W45726  19.344   1.822  17.772 -0.1159  0.2451  0.3317
36927W        W45727   6.530   5.041  24.137  0.2826  0.1122  0.0487
36928W        W45728  17.298   5.870   8.235 -0.3422 -0.1932 -0.1960
36929W        W45729   8.196   2.601  19.600  0.1762  0.2913 -0.1301
36930W        W45730  25.505   3.664  17.499 -0.1217 -0.0846 -0.0285
36931W        W45731  14.005   0.455  23.235 -0.0990 -0.2325  0.0650
36932W        W45732  13.857   5.905   0.456 -0.0376  0.1054  0.1287
36933W        W45733  17.098   3.810   2.029  0.0833  0.0253 -0.1380
36934W        W45734  20.844   3.116  25.045 -0.1267  0.1311 -0.3265
36935W        W45735  28.859   1.737  19.534  0.0213 -0.1332 -0.1355
36936W        W45736  11.635   1.365   1.091 -0.0464 -0.2042  0.2237
36937W        W45737  27.616   7.176  19.885  0.0989 -0.0053 -0.0331
36938W        W45738  13.872   3.787   3.754 -0.1212  0.2193 -0.2576
36939W        W45739  13.665   6.928  17.922 -0.0139  0.3640  0.2696
36940W        W45740   8.602   0.094  15.243  0.2869 -0.4961 -0.0591
36941W        W45741  19.258   4.872  24.358 -0.1005  0.0674 -0.0797
36942W        W45742  28.927   4.196   4.548  0.1664  0.4841 -0.1484
36943W        W45743  22.685   5.640  24.371  0.2131  0.0473  0.1854
36944W        W45744  29.919   4.681   2.881 -0.0475  0.1669 -0.1553
36945W        W45745   1.776   5.016  18.921  0.0955  0.1905  0.1742
36946W        W45746  26.744   2.872   0.235 -0.2384 -0.4199  0.1312
36947W        W45747   7.753   3.489   8.721 -0.0176  0.0894 -0.0972
36948W        W45748  12.920   2.810  10.063  0.2758  0.1316 -0.1395
36949W        W45749   1.026   6.346  19.085  0.1555  0.1688 -0.1278
36950W        W45750   3.252   6.693  25.103 -0.0855 -0.2059  0.0472
36951W        W45751  23.184   3.424   5.483  0.0859  0.0358 -0.0538
36952W        W45752   9.163   5.408  22.634  0.1081 -0.0836 -0.2268
36953W        W45753  14.427   4.299  15.515  0.1937 -0.2455 -0.0994
36954W        W45754   4.825   2.503  21.643  0.1012 -0.0670 -0.3342
36955W        W45755  30.743   2.028  23.450  0.1116  0.2842 -0.0747
36956W        W45756   3.027   0.595   4.690  0.5195  0.0848  0.2228
36957W        W45757  21.886   6.036  24.386 -0.1048  0.0642 -0.0190
36958W        W45758  15.651   3.042   9.884 -0.0166 -0.0320 -0.1318
36959W        W45759   3.500   3.370  15.954  0.0269  0.2339  0.1447
36960W        W45760   7.899   5.854   8.496 -0.1837  0.2609  0.2451
36961W        W45761  30.958   3.775  24.069  0.0159  0.2797  0.2033
36962W        W45762  21.198   3.388   2.526 -0.0660  0.0624  0.1105
36963W        W45763  13.529   7.664  15.935  0.4276  0.2408 -0.1981
36964W        W45764  16.505   3.878   4.683 -0.2643  0.2003 -0.1449
36965W        W45765   5.687   2.804  23.082  0.2220  0.0405  0.1883
36966W        W45766   2.855   7.200   8.545 -0.1652 -0.0145  0.0294
36967W        W45767  18.808   5.429  21.281 -0.0280 -0.0166  0.2982
36968W        W45768  14.080   6.394  19.743 -0.3532 -0.3459  0.1877
36969W        W45769  16.767   6.633  26.073  0.1791 -0.4641 -0.0320
36970W        W45770  13.490   6.992   4.705 -0.0275  0.0376  0.0653
36971W        W45771  16.916   6.135   3.649 -0.1744  0.2653 -0.1357
36972W        W45772   3.829   2.146  21.091 -0.0554 -0.0583  0.0213
36973W        W45773   7.100   5.501  21.805  0.0580  0.1378 -0.1526
36974W        W45774  18.234   1.273  17.442 -0.0521 -0.1579  0.0751
36975W        W45775  15.237   7.188   5.786 -0.1448 -0.0650 -0.1425
36976W        W45776  27.889   7.663  16.270  0.0882 -0.2657  0.2837
36977W        W45777   6.458   1.916   7.921 -0.0238 -0.0359  0.0663
36978W        W45778  29.129   4.864  15.182  0.2578  0.1448 -0.0540
36979W        W45779  11.742   2.679  18.410  0.2864  0.0648  0.1812
36980W        W45780   4.383   6.122   8.811 -0.1324  0.2963  0.2194
36981W        W45781  23.855   1.276  17.917  0.1045 -0.0389 -0.2819
36982W        W45782  13.301   3.143   7.727  0.1811  0.1833 -0.1770
36983W        W45783   9.992   2.743  24.316 -0.1153  0.0926  0.1415
36984W        W45784  14.256   4.349  22.743 -0.0806  0.1143 -0.2039
36985W        W45785  22.943   0.390  15.515 -0.1443  0.0789  0.0706
36986W        W45786  14.761   4.586  16.334 -0.1578 -0.0759  0.0425
36987W        W45787  25.318   1.816  10.233 -0.0190  0.0712  0.0894
36988W        W45788   4.982   6.917  16.051 -0.0983  0.1960  0.0773
36989W        W45789  24.230   7.168  21.377  0.1070 -0.0580 -0.1417
36990W        W45790   7.511   1.086  22.441 -0.1403 -0.1099  0.1793
36991W        W45791  15.513   3.641   6.228 -0.0432 -0.1104 -0.2449
36992W        W45792  18.864   2.384  20.681  0.1112 -0.2764 -0.2324
36993W        W45793  10.828   3.307   6.352 -0.0078  0.0380  0.2542
36994W        W45794  19.095   2.676   9.523  0.0334 -0.0944 -0.2469
36995W        W45795   6.541   4.618  18.347  0.1100  0.0620  0.4334
36996W        W45796  13.490   5.503  15.408  0.0265  0.1068  0.2292
36997W        W45797  18.466   6.613  20.900  0.0995  0.0286  0.0429
36998W        W45798  30.835   2.523  23.465 -0.3909 -0.1300 -0.4028
36999W        W45799   5.467   7.618  20.028 -0.2498  0.0766  0.1983
37000W        W45800  14.877   3.992   6.159  0.2154  0.1444  0.1076
37001W        W45801   8.017   1.291  21.888  0.1268 -0.0037  0.1866
37002W        W45802  27.320   6.518  10.191  0.0721  0.0408  0.0227
37003W        W45803   2.329   2.734  22.275  0.0799  0.3541  0.1210
37004W        W45804  26.999   7.219  17.990  0.0437  0.1394  0.0946
37005W        W45805  12.950   1.387  16.940 -0.0278  0.3199 -0.2088
37006W        W45806  25.138   5.211  21.447 -0.0070  0.1401 -0.1357
37007W        W45807  25.427   2.778  23.098  0.1811 -0.1179  0.2848
37008W        W45808  31.081   1.897  17.909 -0.3885 -0.1137 -0.0342
37009W        W45809  10.898   7.357   1.294  0.7346  0.1224  0.0379
37010W        W45810  21.418   1.903   4.716 -0.4260 -0.1488  0.1034
37011W        W45811  16.523   6.098  10.178 -0.1448 -0.2492 -0.1667
37012W        W45812  12.084   1.565  15.414  0.2351  0.2255  0.2140
37013W        W45813  10.546   1.239  21.627 -0.1415  0.3154 -0.1742
37014W        W45814  17.293   0.464   4.694 -0.1262  0.1372  0.1573
37015W        W45815  28.728   1.245   3.383  0.1670  0.0837 -0.0780
37016W        W45816  16.052   7.623   7.515 -0.1901 -0.1696  0.1225
37017W        W45817  21.878   2.781   7.949  0.0317  0.1150 -0.0305
37018W        W45818  24.360   3.449  22.034  0.0969 -0.0977  0.0335
37019W        W45819  28.683   0.801  21.856 -0.2575  0.0811  0.0927
37020W        W45820  23.805   4.602   8.622  0.1839 -0.1969 -0.1335
37021W        W45821  23.550   4.986   8.403 -0.2819 -0.5109 -0.0044
37022W        W45822  25.967   1.029  16.121  0.2045  0.0827 -0.2383
37023W        W45823   4.318   3.512   7.789  0.2652 -0.2210  0.2840
37024W        W45824  12.333   3.139   0.403  0.0276 -0.1400 -0.3254
37025W        W45825  18.985   1.818  15.925  0.1581  0.2184 -0.0485
37026W        W45826  27.530   2.469   4.096 -0.1532 -0.0198  0.3941
37027W        W45827  12.815   7.244   1.980  0.2112 -0.0733  0.1936
37028W        W45828  16.247   4.426   9.494 -0.2047  0.0514 -0.0847
37029W        W45829  13.499   1.339  17.732 -0.1030  0.0367 -0.0883
37030W        W45830  22.595   6.554  20.109  0.0078 -0.2170 -0.0818
37031W        W45831   2.895   2.200  24.376 -0.0860 -0.0390 -0.1660
37032W        W45832  20.769   6.863   5.701 -0.0268  0.0813 -0.5605
37033W        W45833  27.601   0.580  17.912  0.2345  0.1084 -0.2096
37034W        W45834   5.319   5.631  11.231 -0.0918 -0.0135 -0.3377
37035W        W45835   3.170   4.455   8.025  0.0652  0.0292 -0.1287
37036W        W45836  25.249   1.140  18.769 -0.0480 -0.2984  0.0691
37037W        W45837   9.173   7.258   5.500  0.2106 -0.0496 -0.3124
37038W        W45838  30.588   4.936  23.488  0.0408  0.0908  0.0246
37039W        W45839  29.015   6.396  25.838  0.1583 -0.2900 -0.1424
37040W        W45840  16.900   1.263  20.846 -0.2645  0.1773 -0.1892
37041W        W45841  24.968   5.398   5.792  0.0609  0.0262  0.0643
37042W        W45842  19.151   6.407  16.798  0.2147 -0.1420  0.0882
37043W        W45843  25.968   3.521  16.879  0.2105  0.1376  0.0204
37044W        W45844   8.851   0.732  22.440 -0.1475  0.0827  0.1054
37045W        W45845  13.404   7.266  24.459 -0.0933 -0.0292  0.0223
37046W        W45846  26.541   4.912  25.945 -0.2573 -0.0673  0.2384
37047W        W45847  12.714   7.377   7.662 -0.2009 -0.1250  0.0700
37048W        W45848  24.587   2.244  10.575  0.3419 -0.0572 -0.0483
37049W        W45849  15.243   3.197  21.151 -0.3186  0.0660 -0.0274
37050W        W45850  16.803   1.251   7.422 -0.1042  0.2099  0.0923
37051W        W45851  16.945   1.612   5.189 -0.0986 -0.0515  0.0929
37052W        W45852   7.475   0.850   6.570  0.0760  0.3269  0.1126
37053W        W45853   8.431   7.447   0.307  0.1590 -0.2547 -0.1059
37054W        W45854   1.748   1.916   0.784  0.0009 -0.2738 -0.0565
37055W        W45855   6.005   0.430  16.530  0.0417 -0.3848 -0.1054
37056W        W45856  18.498   3.533  14.939 -0.0623  0.2207  0.0177
37057W        W45857   2.513   2.713  26.012  0.2965  0.0383  0.0105
37058W        W45858  11.778   4.687  20.076 -0.2031  0.2325 -0.1266
37059W        W45859  20.568   6.005  10.580 -0.0842 -0.1785 -0.1428
37060W        W45860   3.646   2.728   4.833 -0.0891  0.2631 -0.3705
37061W        W45861   0.684   7.058  25.698  0.3375  0.0064  0.1536
37062W        W45862   7.962   4.475   2.314 -0.5618 -0.0810  0.1966
37063W        W45863   2.800   0.188   3.890  0.0122 -0.0146 -0.2260
37064W        W45864  11.434   3.600  20.982 -0.0263 -0.1957  0.1986
37065W        W45865   6.758   2.113  24.990  0.0672 -0.1252 -0.1963
37066W        W45866  16.862   4.769  18.616  0.0299 -0.3839 -0.0304
37067W        W45867  14.420   2.413   7.389 -0.2253  0.2805 -0.0497
37068W        W45868   3.580   3.292   0.689  0.0403 -0.4511 -0.2998
37069W        W45869   8.351   7.152  21.861 -0.1659  0.2344 -0.0446
37070W        W45870  12.185   7.813  16.460 -0.0154  0.3142 -0.0242
37071W        W45871  24.162   7.353  10.412 -0.0971  0.2528  0.2283
37072W        W45872  13.183   3.389  15.478  0.3298 -0.1203  0.1126
37073W        W45873  26.448   7.443   8.214 -0.1422 -0.0450 -0.3053
37074W        W45874  18.406   5.072  21.364  0.2171 -0.2168  0.0895
37075W        W45875   8.217   2.215  18.828  0.1175  0.1760 -0.1251
37076W        W45876   7.320   0.244  22.908  0.4033  0.0517  0.1937
37077W        W45877   0.513   6.082   7.876  0.3422  0.0530 -0.0518
37078W        W45878   9.953   2.532  23.390 -0.1347  0.2097 -0.1763
37079W        W45879  19.430   0.437  15.041 -0.1604 -0.1435  0.1027
37080W        W45880  26.605   1.074   5.511  0.3542  0.0684  0.0547
37081W        W45881  29.585   1.895  22.608 -0.1556 -0.1049 -0.1514
37082W        W45882  16.385   7.231   0.746  0.1638 -0.2070  0.1165
37083W        W45883  27.902   4.682  18.157  0.3687 -0.0198  0.0329
37084W        W45884  19.926   6.440  24.361 -0.0510  0.3379  0.0513
37085W        W45885  20.872   6.257   6.879 -0.0478 -0.0026  0.0030
37086W        W45886  18.578   1.614   1.386 -0.1100 -0.4984 -0.1930
37087W        W45887  18.523   5.639  15.240  0.0557  0.0421 -0.1703
37088W        W45888  16.505   2.902   9.231  0.3584  0.2275 -0.1688
37089W        W45889   5.504   3.316  17.157 -0.0357  0.0482  0.0344
37090W        W45890  18.814   2.399  25.764  0.0353 -0.0603  0.1284
37091W        W45891  30.473   0.961   7.722 -0.0423  0.1430 -0.0621
37092W        W45892  20.036   7.588  19.513  0.0501 -0.3257 -0.0719
37093W        W45893  23.698   3.138   0.233 -0.1036 -0.1271 -0.2714
37094W        W45894   5.710   7.217   5.086 -0.0862  0.3140 -0.1435
37095W        W45895  29.868   3.192  10.672 -0.1731  0.0378  0.0904
37096W        W45896  14.851   1.811   5.816 -0.2709 -0.4627 -0.1048
37097W        W45897  22.120   5.662  10.550  0.1602 -0.3490  0.1576
37098W        W45898  16.924   4.562  15.326 -0.0672 -0.3026 -0.1647
37099W        W45899  18.833   1.561  21.911 -0.3205  0.3010  0.3526
37100W        W45900  10.458   4.888   8.065 -0.0680  0.1399 -0.0277
37101W        W45901   3.954   1.142   7.542  0.2023 -0.0463  0.2445
37102W        W45902  30.620   2.094  15.086 -0.0275  0.0299 -0.2012
37103W        W45903  21.246   1.382   8.602  0.1913 -0.1030 -0.1248
37104W        W45904  25.454   2.360  22.796 -0.0086 -0.0765  0.0140
37105W        W45905   6.892   1.913   0.248  0.0228  0.6200  0.2594
37106W        W45906  30.653   0.977  18.833 -0.1330 -0.1144 -0.2577
37107W        W45907   7.392   0.150  20.485 -0.0417  0.0432  0.0938
37108W        W45908   7.566   7.400   1.212  0.2468  0.0587 -0.1060
37109W        W45909  11.443   2.579   5.835 -0.2694 -0.1709  0.2108
37110W        W45910   5.012   0.551   4.678  0.0082 -0.1518 -0.0293
37111W        W45911  24.911   4.304   0.120 -0.1444 -0.1011 -0.3178
37112W        W45912   0.137   6.014   6.150 -0.0199 -0.0424 -0.0113
37113W        W45913   3.148   1.690   1.613  0.0103  0.3710 -0.0927
37114W        W45914   6.639   7.802  22.610 -0.2512  0.2436  0.1026
37115W        W45915  28.355   1.777  15.476 -0.3224  0.2277  0.1076
37116W        W45916  30.377   7.528   3.139 -0.0132  0.0259 -0.2823
37117W        W45917  20.969   4.602  16.228 -0.0036  0.3257 -0.3376
37118W        W45918   6.517   7.044  25.944  0.2911  0.1688  0.1548
37119W        W45919  28.056   0.864  18.859 -0.1186  0.2105 -0.1991
37120W        W45920   8.762   4.371   6.284 -0.0002 -0.0465 -0.1044
37121W        W45921   7.874   6.036  19.160  0.0541  0.0339 -0.0556
37122W        W45922  11.556   0.208  19.096  0.0049 -0.0570 -0.0390
37123W        W45923   9.059   3.337  18.707  0.0225  0.1357  0.2282
37124W        W45924  30.418   6.503   3.927 -0.1025 -0.0015 -0.0784
37125W        W45925  22.892   1.964  19.996 -0.2189  0.0712  0.2979
37126W        W45926  13.520   1.391  15.889  0.1662 -0.2151 -0.2935
37127W        W45927  16.537   4.804   7.673  0.1906  0.2254  0.3360
37128W        W45928   3.740   5.159  24.281 -0.1249 -0.1146 -0.0937
37129W        W45929  24.936   0.554  17.209  0.0592  0.0194 -0.0077
37130W        W45930   7.295   7.609  16.606 -0.1469 -0.0545  0.1260
37131W        W45931  26.945   3.538  24.688 -0.1819 -0.0479  0.1479
37132W        W45932   5.156   0.705  10.261  0.0333  0.0068 -0.2942
37133W        W45933   6.373   3.654   4.743  0.1951 -0.0123 -0.1100
37134W        W45934   3.543   0.124   0.748 -0.0860 -0.4553  0.1464
37135W        W45935   8.480   5.686  20.699  0.1682  0.1556 -0.1399
37136W        W45936   6.692   4.697  19.428  0.0221 -0.3041  0.0948
37137W        W45937  22.297   3.824   0.087 -0.1527  0.0057 -0.0340
37138W        W45938  26.215   3.522   9.470 -0.1746 -0.1645  0.0466
37139W        W45939  18.483   5.351   2.941 -0.0207  0.2616  0.2928
37140W        W45940  30.881   6.522  19.724 -0.0637 -0.1651 -0.1166
37141W        W45941  11.470   7.621  20.726 -0.1466 -0.0440  0.0465
37142W        W45942  25.368   3.517  17.031 -0.0202 -0.1208 -0.0068
37143W        W45943  13.234   0.207  17.358  0.1202 -0.0781 -0.2814
37144W        W45944  18.900   7.105   7.644 -0.0292  0.0885  0.1642
37145W        W45945   1.383   6.236  18.627  0.0029  0.2969 -0.0382
37146W        W45946  28.379   0.171   2.967 -0.0989  0.1238 -0.0529
37147W        W45947  10.256   2.017   5.605  0.1785  0.0645 -0.0767
37148W        W45948  20.043   6.239   3.278 -0.0284 -0.1603  0.1023
37149W        W45949  12.551   2.970   4.046  0.0007  0.0277  0.1858
37150W        W45950  10.806   0.301  10.848  0.1270 -0.0934 -0.3073
37151W        W45951  20.584   5.522  26.170 -0.2054 -0.1048  0.0559
37152W        W45952  10.714   2.699  23.121  0.1473  0.0488  0.1162
37153W        W45953  17.875   6.543   2.449 -0.2954 -0.2282 -0.3976
37154W        W45954   5.817   7.590   7.337  0.2177 -0.2936  0.1504
37155W        W45955  20.808   7.428   1.258 -0.1238 -0.1650  0.1771
37156W        W45956   7.130   2.101   6.647  0.1723  0.3013  0.0684
37157W        W45957  29.054   3.648   1.472  0.0080  0.0382  0.0128
37158W        W45958  29.592   3.941   2.779 -0.0722  0.1880 -0.1624
37159W        W45959   5.440   0.458  21.836  0.0704 -0.1160 -0.1222
37160W        W45960  15.753   2.563   3.018  0.0742 -0.0798 -0.0790
37161W        W45961  22.181   7.655   1.345 -0.3011 -0.0425  0.2780
37162W        W45962   3.187   3.156  18.730 -0.1195 -0.1102 -0.5194
37163W        W45963  11.008   4.949  17.547 -0.1550  0.3984 -0.0532
37164W        W45964   1.627   3.838  10.013  0.3243 -0.1188 -0.2172
37165W        W45965  17.217   5.242   0.650  0.0432  0.2294 -0.1990
37166W        W45966  10.958   3.106   0.728  0.0063 -0.2567 -0.0683
37167W        W45967   2.611   1.869  24.193 -0.1316  0.1575 -0.2372
37168W        W45968  30.927   7.191   8.389  0.2904  0.2869 -0.1327
37169W        W45969  27.924   1.695  23.623 -0.0804 -0.2531  0.0613
37170W        W45970  15.640   0.368   9.962 -0.0232 -0.1534 -0.0307
37171W        W45971  31.059   0.177   0.857 -0.3592 -0.1933  0.1559
37172W        W45972  29.712   5.358   6.375  0.0418 -0.2351  0.3624
37173W        W45973   6.159   1.016  19.842 -0.0970 -0.2042  0.2203
37174W        W45974   8.565   2.059   3.343  0.2377  0.1826  0.1440
37175W        W45975  19.681   7.241   8.928  0.1355  0.0599 -0.0747
37176W        W45976  14.028   7.162  20.377 -0.1740 -0.1753  0.1197
37177W        W45977  17.788   7.333   7.387  0.3579  0.3312 -0.1265
37178W        W45978   6.111   7.315   0.538 -0.0277  0.1049  0.1066
37179W        W45979  28.254   1.829   7.090  0.3071 -0.1770 -0.3084
37180W        W45980  13.867   0.570  19.096 -0.1651 -0.0887  0.0166
37181W        W45981   5.467   2.935  22.212 -0.0174  0.4846 -0.1778
37182W        W45982  19.960   5.285   2.217 -0.0310  0.0179  0.1108
37183W        W45983  14.856   3.385   7.935  0.1675 -0.0724  0.2662
37184W        W45984  25.057   7.672   5.473 -0.0816 -0.0246  0.1377
37185W        W45985  11.384   0.988  18.163  0.2115  0.0393  0.0350
37186W        W45986  10.372   4.345   9.092 -0.1176 -0.0611 -0.0448
37187W        W45987  20.937   3.962  19.055 -0.0514  0.1130 -0.0277
37188W        W45988   2.039   3.812  20.931 -0.0883  0.1093  0.0157
37189W        W45989  13.665   4.425   1.455 -0.1887  0.1752 -0.0372
37190W        W45990  27.311   0.003   8.685  0.0332 -0.1716 -0.0751
37191W        W45991  12.975   6.480  22.893  0.1845 -0.1848  0.0515
37192W        W45992   9.180   7.392  16.679 -0.1849  0.0430  0.1803
37193W        W45993   9.442   4.511  25.376  0.2495  0.0189 -0.2109
37194W        W45994   8.691   7.235   3.796  0.3012  0.1012  0.0918
37195W        W45995  16.643   1.431   4.068  0.2185  0.2085 -0.0589
37196W        W45996   5.719   2.865  23.566  0.3685  0.1531 -0.0041
37197W        W45997  29.530   1.955   2.991  0.0357 -0.0298  0.1420
37198W        W45998  22.002   3.552   5.765 -0.3901  0.2690  0.1203
37199W        W45999   9.906   3.595  23.648 -0.0202 -0.2906 -0.0014
37200W        W46000  18.060   4.165  10.547 -0.0597  0.2618  0.0320
37201W        W46001   7.343   4.508   8.584  0.0840  0.1463 -0.1885
37202W        W46002   9.521   5.816  19.135  0.3658  0.1934 -0.0860
37203W        W46003  21.873   3.850   0.500  0.2240 -0.0844 -0.1212
37204W        W46004  24.876   2.972   2.283 -0.0343 -0.0879  0.1222
37205W        W46005  16.805   4.384  22.486  0.0290  0.1720 -0.1339
37206W        W46006  21.713   7.753  18.423  0.2161 -0.0127 -0.0500
37207W        W46007  17.965   4.731  24.661 -0.2667  0.1693 -0.0849
37208W        W46008  27.689   0.504   0.795  0.2541 -0.1810  0.1126
37209W        W46009   6.426   1.935  22.261 -0.1414  0.1446  0.2329
37210W        W46010  16.711   7.037  10.348 -0.2035  0.3387  0.0584
37211W        W46011   7.309   3.358  17.223  0.0694 -0.4481 -0.0839
37212W        W46012  19.528   6.357  22.725 -0.2686  0.0106  0.0074
37213W        W46013  15.143   4.492  10.980  0.1067  0.0727 -0.2507
37214W        W46014  18.293   4.981  25.722 -0.1120 -0.0687 -0.0794
37215W        W46015  10.779   5.696  25.591  0.0743 -0.1025 -0.1056
37216W        W46016   0.092   7.656   5.245 -0.4524 -0.0461  0.0698
37217W        W46017  16.484   2.540   4.247 -0.0079  0.0593  0.2593
37218W        W46018  30.713   0.873  24.422 -0.3590 -0.1162  0.1656
37219W        W46019  18.334   4.016  19.120 -0.4753 -0.0929 -0.1318
37220W        W46020   9.238   0.582  19.089  0.1535  0.1829 -0.3014
37221W        W46021  21.368   0.217  15.934 -0.1737 -0.2624 -0.0415
37222W        W46022  15.118   0.687  15.370  0.2105 -0.2224 -0.0957
37223W        W46023   4.381   3.997  16.648 -0.1584 -0.3630  0.3457
37224W        W46024  28.098   3.366  10.874 -0.0186 -0.1781  0.0040
37225W        W46025   7.239   1.061  21.173 -0.0160 -0.0328 -0.0974
37226W        W46026  30.855   3.158   4.028 -0.1258  0.3261 -0.0228
37227W        W46027   2.211   1.247  19.655  0.0043 -0.1828  0.1644
37228W        W46028  14.905   6.003  24.056 -0.0621 -0.1507 -0.0473
37229W        W46029  12.755   3.733  17.276 -0.1039 -0.0948  0.2852
37230W        W46030   7.143   6.902  19.839 -0.0952  0.0451 -0.0469
37231W        W46031   6.668   4.687   7.074  0.0401 -0.1094  0.0390
37232W        W46032  19.205   6.423  23.559 -0.0289  0.3141  0.0604
37233W        W46033  24.202   3.247  17.594  0.2620 -0.0333 -0.1552
37234W        W46034  11.153   3.256  10.324 -0.0392  0.1035 -0.1099
37235W        W46035   5.224   5.333  15.721  0.0308  0.0306 -0.0439
37236W        W46036  19.013   5.183  23.883 -0.0745  0.1337  0.0260
37237W        W46037  11.869   1.649  18.346  0.3064  0.4077  0.2233
37238W        W46038  21.189   0.041   5.547  0.0364  0.0798 -0.0219
37239W        W46039  23.166   5.550   3.105 -0.1459 -0.1561  0.1619
37240W        W46040  27.288   5.902  21.228 -0.1681 -0.0886  0.3479
37241W        W46041  22.761   4.356   5.492 -0.0424  0.0194 -0.0126
37242W        W46042  15.656   4.941  18.239 -0.1041  0.0867 -0.2865
37243W        W46043  29.764   4.604  11.560  0.0591 -0.1701  0.1144
37244W        W46044  26.658   6.485   0.861  0.0396  0.1529 -0.2372
37245W        W46045  21.952   4.432  14.832 -0.0051 -0.0802 -0.2537
37246W        W46046   4.629   7.303  25.116 -0.2123 -0.0644  0.1695
37247W        W46047   8.213   4.475  21.194  0.0388  0.1850  0.0439
37248W        W46048  13.296   4.127   9.309  0.0686 -0.0139 -0.0611
37249W        W46049  14.222   2.353   5.663  0.0293  0.3665  0.4470
37250W        W46050  12.652   1.710  25.850  0.0635 -0.2685  0.0726
37251W        W46051  26.503   2.803  10.633 -0.0556 -0.0743 -0.1123
37252W        W46052  14.322   6.095  17.949  0.1348  0.1562 -0.1317
37253W        W46053   2.106   2.533  20.305 -0.3362 -0.0628  0.0322
37254W        W46054  22.515   4.248  16.450 -0.0244 -0.1543 -0.0940
37255W        W46055  26.807   5.825   4.026 -0.1626 -0.1821  0.0150
37256W        W46056   6.491   7.535  18.485 -0.3749  0.3725 -0.0962
37257W        W46057   6.218   7.024   3.464 -0.1235 -0.1917  0.0030
37258W        W46058   5.305   4.907  22.886  0.1233 -0.2439  0.1165
37259W        W46059   1.397   2.428  21.977 -0.0739 -0.1809  0.1218
37260W        W46060  22.971   5.972  19.296  0.1317  0.2021  0.0854
37261W        W46061   5.447   0.975   0.147 -0.0647  0.1174 -0.1393
37262W        W46062   3.875   6.671   8.507 -0.1283 -0.1754  0.0178
37263W        W46063  26.110   6.103   2.105 -0.3127 -0.0938 -0.0103
37264W        W46064   4.215   5.400   0.762 -0.0827  0.0631 -0.3076
37265W        W46065  22.256   5.758  15.303  0.0287  0.0415 -0.1659
37266W        W46066   9.647   5.600  22.965 -0.0257 -0.1099 -0.5714
37267W        W46067  13.603   0.509   9.900 -0.0790 -0.1284  0.2245
37268W        W46068  15.251   6.593  21.764  0.0859 -0.0207  0.1118
37269W        W46069  13.341   5.778  21.692  0.1457 -0.2703 -0.0389
37270W        W46070   0.936   1.524  22.043  0.0316  0.2230 -0.0472
37271W        W46071   3.432   1.215   7.533 -0.5236 -0.0944  0.2391
37272W        W46072  16.198   1.190  18.149  0.2728  0.0628  0.1386
37273W        W46073  29.407   1.543  26.087 -0.4388 -0.2783 -0.2067
37274W        W46074  28.612   5.386   9.108 -0.1761 -0.1126 -0.1086
37275W        W46075  30.412   1.607   3.144  0.0653 -0.0817  0.1865
37276W        W46076  22.039   0.095   7.999  0.2504 -0.2183  0.0289
37277W        W46077  30.767   0.420   1.204 -0.2172  0.0053  0.0880
37278W        W46078   3.074   7.734  19.360 -0.0625 -0.2205  0.1100
37279W        W46079   0.269   5.402   4.836  0.0707  0.1579  0.1667
37280W        W46080  16.732   0.878   8.562 -0.1507  0.1908 -0.0991
37281W        W46081   2.556   7.401  22.758 -0.1017 -0.1312  0.0737
37282W        W46082   9.777   3.599   3.457  0.0979  0.0637 -0.1224
37283W        W46083  30.173   6.175  20.087  0.0496 -0.1189 -0.0581
37284W        W46084  14.212   2.153   6.921 -0.0613  0.4192  0.0286
37285W        W46085   1.775   0.469  16.963  0.6370  0.3921  0.1864
37286W        W46086  12.049   1.401   2.314  0.0317 -0.3663  0.2063
37287W        W46087  30.358   2.600  16.621 -0.0348  0.2047 -0.1873
37288W        W46088   0.555   5.200  22.001 -0.2335 -0.0950  0.1422
37289W        W46089  18.218   5.697  16.622 -0.0422 -0.0804 -0.1178
37290W        W46090   9.418   4.975  15.310  0.0475 -0.2457  0.1784
37291W        W46091  19.550   5.122   0.991  0.1413 -0.0535  0.1493
37292W        W46092   8.853   0.802   5.495  0.1557 -0.0382 -0.2224
37293W        W46093  11.743   5.220  19.464  0.4579  0.2385 -0.0436
37294W        W46094  13.210   3.223   6.393 -0.0105  0.1469  0.1353
37295W        W46095  21.755   4.729  24.547 -0.2278 -0.0038  0.0755
37296W        W46096  20.457   1.227  14.871  0.2637  0.2394 -0.1190
37297W        W46097  16.618   2.743   6.190  0.2093 -0.0296  0.1161
37298W        W46098  18.297   5.415   6.563  0.0213  0.2940  0.1849
37299W        W46099   9.292   5.316   4.066 -0.0552 -0.2533 -0.2256
37300W        W46100  18.316   3.088  23.468  0.1587 -0.3515 -0.1078
37301W        W46101   1.627   3.349  17.538  0.2270  0.0345  0.1479
37302W        W46102  27.946   2.470  10.200 -0.0956  0.2628  0.0382
37303W        W46103  14.467   4.761   8.539 -0.0706  0.0406  0.0142
37304W        W46104   4.417   1.563   1.434  0.3921 -0.0269  0.2805
37305W        W46105  21.813   1.980  19.487  0.2502  0.3555 -0.1312
37306W        W46106  15.478   5.796   0.938  0.0243  0.2942  0.0205
37307W        W46107  23.354   0.260   8.042 -0.0916 -0.3039  0.0540
37308W        W46108   3.058   1.908  24.804  0.1042 -0.2112  0.2640
37309W        W46109   0.453   0.629  19.420 -0.3023 -0.0416 -0.3756
37310W        W46110  25.334   7.566   7.819 -0.1350  0.0004  0.2384
37311W        W46111   7.692   1.536  23.878  0.0139 -0.1031 -0.1274
37312W        W46112   1.341   0.714  17.950 -0.1061 -0.1695  0.1851
37313W        W46113   2.569   5.782  22.423 -0.2601 -0.1871  0.0655
37314W        W46114  11.234   2.470   3.886  0.1467 -0.1078  0.0363
37315W        W46115  24.042   6.299  14.951  0.0763 -0.0326 -0.2560
37316W        W46116  28.334   2.768  18.809  0.1139 -0.1031 -0.3304
37317W        W46117  28.456   3.351   9.322 -0.0790  0.0367  0.0991
37318W        W46118  25.396   1.473  22.572 -0.2140  0.0030  0.0910
37319W        W46119  25.463   4.835  17.426  0.0638  0.1750 -0.3029
37320W        W46120  12.108   7.815   2.329  0.0199  0.0724 -0.0714
37321W        W46121  15.035   7.007   6.686 -0.2343 -0.0482  0.1315
37322W        W46122  21.391   6.986  14.870  0.2053  0.1926 -0.0051
37323W        W46123  27.850   4.940   9.683  0.0710 -0.2006 -0.1338
37324W        W46124  28.892   7.614  22.535  0.0018  0.1682  0.1180
37325W        W46125  24.280   5.625   7.541  0.1207 -0.0850 -0.0840
37326W        W46126  24.467   6.795  21.708 -0.2708  0.0296  0.1538
37327W        W46127  22.501   0.956   6.458 -0.1518 -0.1236 -0.1632
37328W        W46128  28.340   5.601  19.871 -0.0907 -0.0081 -0.1420
37329W        W46129  28.651   6.410   1.100  0.0529 -0.1383 -0.2299
37330W        W46130   9.306   6.807  18.270  0.0274 -0.2251  0.1588
37331W        W46131  14.493   5.523   7.244 -0.1859  0.3152  0.0776
37332W        W46132  21.082   1.042   5.468  0.2420 -0.0193 -0.1053
37333W        W46133  18.324   3.561   2.854 -0.0277  0.0016 -0.2337
37334W        W46134   6.872   3.946  19.109  0.1021 -0.0684 -0.0203
37335W        W46135   1.576   1.021  17.623  0.2610  0.0405 -0.0234
37336W        W46136  13.906   0.397  24.530 -0.2423  0.2908 -0.3583
37337W        W46137   9.207   4.336   7.048 -0.0684  0.0296  0.2029
37338W        W46138  18.760   5.114  16.256  0.0962 -0.2169 -0.0223
37339W        W46139  22.844   1.632   4.104  0.2577  0.0077 -0.1216
37340W        W46140  28.096   1.332  24.457 -0.0071 -0.1980 -0.0575
37341W        W46141   6.696   3.414   0.937  0.0145  0.0678  0.0735
37342W        W46142   7.348   0.259   2.466  0.0304  0.1063 -0.1069
37343W        W46143   5.008   0.685   5.483  0.0508  0.3176  0.3946
37344W        W46144  15.756   4.162   9.309  0.1049 -0.2387  0.1057
37345W        W46145  30.926   4.761   5.089  0.2674  0.1194  0.3133
37346W        W46146   8.468   7.170   9.689 -0.1394  0.1564 -0.4932
37347W        W46147  19.344   4.829   3.152  0.1016  0.1382  0.0854
37348W        W46148  11.240   2.989   8.119  0.0127  0.0680  0.4168
37349W        W46149  19.620   7.588   9.277 -0.0195  0.1059 -0.2902
37350W        W46150   8.352   3.466  20.682  0.3206  0.3193 -0.0395
37351W        W46151  20.058   1.956  24.071 -0.0266  0.0400 -0.2827
37352W        W46152  21.300   5.944  18.745  0.2018  0.2109  0.2747
37353W        W46153  28.578   0.552   9.017  0.2782 -0.2776  0.0267
37354W        W46154   6.026   3.351   7.778  0.2311 -0.0229 -0.1838
37355W        W46155  24.279   2.191   8.529  0.2012 -0.1518 -0.3052
37356W        W46156   9.911   6.731   6.955  0.2826  0.4256 -0.2062
37357W        W46157   9.473   0.923  10.438 -0.2326  0.0287 -0.0992
37358W        W46158  25.836   5.676  24.875  0.2560 -0.1679  0.0637
37359W        W46159  27.388   3.201   6.156  0.2022 -0.0089 -0.0371
37360W        W46160  29.645   7.230   2.497  0.1600 -0.2777 -0.2406
37361W        W46161  18.176   5.047   5.975  0.2574 -0.2727  0.1492
37362W        W46162   3.336   5.353  18.170 -0.0157  0.1691  0.2914
37363W        W46163  16.918   3.050   8.663  0.3200  0.0913  0.0412
37364W        W46164  13.837   0.992  20.014 -0.0453 -0.2641 -0.4241
37365W        W46165  26.715   7.591  10.345  0.1756 -0.0698  0.0535
37366W        W46166   1.293   3.158  22.476  0.0497 -0.2954 -0.0509
37367W        W46167  28.905   6.527   4.588  0.1074  0.1715  0.4613
37368W        W46168   7.734   2.289  18.575 -0.0093 -0.2313  0.0800
37369W        W46169  16.757   3.305  24.512 -0.0711  0.0568 -0.3023
37370W        W46170  22.965   2.339  19.088  0.2484 -0.0843 -0.0237
37371W        W46171   4.246   4.992   3.520  0.1819  0.3105 -0.2928
37372W        W46172   9.034   7.257   2.851  0.1775  0.0384  0.0851
37373W        W46173  20.594   2.886  23.578 -0.0420  0.1900 -0.0948
37374W        W46174   7.320   6.118  24.592  0.1528 -0.3049  0.0655
37375W        W46175  10.570   5.853  23.252  0.2705  0.0386 -0.3077
37376W        W46176  30.884   3.303   7.952 -0.0227 -0.0024 -0.2152
37377W        W46177   3.675   1.332   6.880 -0.1540  0.0040  0.0212
37378W        W46178   2.050   5.308   2.761 -0.1244 -0.0275 -0.3015
37379W        W46179  15.566   1.076  17.089  0.1653  0.1537  0.0453
37380W        W46180  31.209   1.696  21.949 -0.1437  0.4327  0.0273
37381W        W46181  28.042   3.448  20.100 -0.1623  0.0558  0.3019
37382W        W46182  23.592   0.133   8.986  0.2564  0.4039  0.0883
37383W        W46183  30.645   1.104  17.307 -0.2530  0.2656 -0.1454
37384W        W46184  19.885   3.868   9.761 -0.3707 -0.0313 -0.1919
37385W        W46185  17.305   6.090  21.034  0.1826 -0.1656  0.0874
37386W        W46186   0.747   3.555  22.703 -0.1721 -0.1293  0.2175
37387W        W46187   8.010   3.244  20.357  0.1853 -0.0135  0.0779
37388W        W46188   6.565   3.665   3.442 -0.0961  0.1580 -0.0535
37389W        W46189  15.779   3.857  15.380 -0.3521  0.0902 -0.1272
37390W        W46190  22.163   1.715   0.058 -0.1081  0.2329  0.0199
37391W        W46191  23.921   2.784   8.270  0.0566 -0.2409 -0.1102
37392W        W46192  20.455   3.968  25.262 -0.0843 -0.2173 -0.1981
37393W        W46193  27.772   6.376   5.469  0.1238  0.0473 -0.1671
37394W        W46194  16.778   0.658  24.290  0.0650  0.1107  0.2848
37395W        W46195  10.359   4.826  18.948  0.0116  0.2765  0.2147
37396W        W46196  14.215   3.118   9.382  0.1705 -0.1151  0.2658
37397W        W46197   3.960   1.726   2.127  0.1920  0.0869  0.1079
37398W        W46198  16.828   5.618  25.900 -0.0657  0.0512  0.3940
37399W        W46199  20.834   0.947  14.624  0.4772 -0.2866 -0.2806
37400W        W46200  13.061   2.468  21.860  0.1325  0.1541  0.0661
37401W        W46201  30.693   2.533   1.425  0.2640 -0.0522  0.0920
37402W        W46202   5.862   6.223   9.369 -0.0734  0.1224  0.1174
37403W        W46203  16.332   7.477  17.312  0.1827  0.0695 -0.3345
37404W        W46204  24.488   5.310   2.687  0.2629 -0.0102 -0.1327
37405W        W46205  24.898   0.177   9.500 -0.1072  0.1141  0.0847
37406W        W46206  13.281   0.537   2.445  0.0848 -0.0623 -0.0774
37407W        W46207  30.702   6.762   6.956 -0.1016 -0.5233  0.0456
37408W        W46208  23.339   4.814   4.897  0.0504  0.0821 -0.2084
37409W        W46209  30.137   2.015   6.864 -0.1174  0.0032 -0.0112
37410W        W46210   7.355   6.174  25.430  0.1561 -0.0773  0.0025
37411W        W46211   7.235   2.472   9.909  0.1811  0.1699 -0.2184
37412W        W46212  18.446   1.868  20.604  0.0612 -0.1063 -0.1984
37413W        W46213  18.167   1.720  25.870  0.1802 -0.1180  0.0450
37414W        W46214  26.529   1.158  23.666  0.1514 -0.0459 -0.2572
37415W        W46215   8.158   2.023  16.355  0.0214 -0.0531  0.2653
37416W        W46216  25.236   1.088  24.531  0.0994 -0.0459 -0.2322
37417W        W46217  12.860   3.785  15.758  0.1049  0.1583 -0.2690
37418W        W46218  18.863   5.969   0.445  0.3042  0.0900  0.1094
37419W        W46219  29.522   7.222  20.764 -0.3406 -0.1503  0.1339
37420W        W46220  13.619   6.631   1.856  0.1916 -0.1514  0.2360
37421W        W46221  24.101   6.899  16.520  0.2735  0.0941  0.1146
37422W        W46222   1.512   7.637  22.104 -0.0585  0.0027 -0.1313
37423W        W46223  24.423   3.422  10.675 -0.3016  0.0902  0.0791
37424W        W46224   3.436   4.560  25.015  0.3288  0.0312  0.0007
37425W        W46225   0.291   5.986   4.000  0.0838 -0.2242  0.2232
37426W        W46226  24.050   3.839   9.029  0.0191  0.1935  0.3101
37427W        W46227  15.960   3.549  10.611  0.1468 -0.2263  0.0297
37428W        W46228   1.938   3.944   1.820  0.4310 -0.2250 -0.0487
37429W        W46229   2.606   6.741   7.331 -0.1699  0.2077 -0.0259
37430W        W46230  21.007   4.432  18.094  0.5418 -0.1081 -0.0720
37431W        W46231  28.693   1.598  23.908 -0.2760  0.2706  0.1183
37432W        W46232  26.497   1.399   9.910  0.1828  0.1948 -0.1894
37433W        W46233  26.983   4.957  19.125  0.0025 -0.2380 -0.2723
37434W        W46234  26.008   0.524  16.247 -0.0415 -0.2109 -0.1789
37435W        W46235  26.777   0.181  17.024  0.2806  0.0206 -0.3788
37436W        W46236  25.110   7.757   0.593 -0.4184  0.0183  0.0601
37437W        W46237  23.085   0.922   8.713  0.2297  0.2797 -0.0767
37438W        W46238  16.954   6.878  14.934  0.1012 -0.3816  0.0726
37439W        W46239  27.516   5.236  25.788 -0.0936 -0.0889 -0.3297
37440W        W46240   8.854   2.327   9.135  0.0463 -0.1472 -0.4360
37441W        W46241  24.125   3.979  23.147 -0.1420  0.1059 -0.0988
37442W        W46242  14.275   0.583   2.166  0.1238  0.1856 -0.0930
37443W        W46243  16.406   0.473  17.458  0.3175  0.0609  0.0824
37444W        W46244  25.708   1.037   1.630 -0.0732 -0.1522  0.0396
37445W        W46245   1.184   7.681  26.187 -0.1841 -0.2115 -0.1420
37446W        W46246  30.369   6.499   4.861 -0.0995  0.1745 -0.1956
37447W        W46247   1.013   6.004   9.941 -0.3040 -0.0483 -0.0221
37448W        W46248   3.138   4.399  17.333 -0.0181  0.0658  0.1305
37449W        W46249   5.231   2.554   8.650 -0.1008 -0.1359  0.0507
37450W        W46250   7.684   5.475   2.436 -0.0755  0.1617 -0.1185
37451W        W46251  15.441   0.602  17.994  0.0144 -0.0143  0.3328
37452W        W46252  14.486   1.863   0.996  0.1803  0.1205  0.0346
37453W        W46253   5.658   3.735   3.297  0.1233  0.1276  0.0796
37454W        W46254   9.703   4.757  18.462 -0.0403  0.0591  0.0805
37455W        W46255   2.075   2.656   9.317  0.1849  0.2314  0.0382
37456W        W46256   6.271   6.611   9.299  0.0101 -0.1744 -0.1853
37457W        W46257  14.852   2.271  19.893  0.2525  0.2301 -0.3888
37458W        W46258  10.971   5.750   1.182  0.1911  0.1968 -0.1065
37459W        W46259   4.788   0.006   7.452 -0.1670 -0.1264 -0.1401
37460W        W46260  20.391   1.886   0.232  0.0865  0.2107 -0.1036
37461W        W46261  26.203   3.137   7.822 -0.0955 -0.0105 -0.3429
37462W        W46262  29.062   0.755   5.335 -0.2840  0.1529  0.0787
37463W        W46263   3.336   5.386  25.391  0.0472  0.1924  0.1177
37464W        W46264   0.937   3.341   9.608 -0.3414 -0.1314  0.0261
37465W        W46265  24.004   0.945   3.581 -0.0650 -0.2424  0.3746
37466W        W46266  11.417   4.230   3.127 -0.1102 -0.1005 -0.3097
37467W        W46267   3.577   2.301   0.411 -0.0105 -0.0593  0.0551
37468W        W46268  24.755   0.996   4.276  0.0581 -0.0882  0.0461
37469W        W46269   0.972   0.976   2.877 -0.3652  0.1093  0.2045
37470W        W46270  18.176   2.464  17.323 -0.3115 -0.1478 -0.0757
37471W        W46271   4.525   5.782  17.862 -0.0993 -0.0081  0.1903
37472W        W46272  27.010   5.623   9.011  0.1274 -0.0332 -0.3562
37473W        W46273   7.083   6.743   3.798  0.1943  0.0434 -0.1811
37474W        W46274   5.444   4.290  26.014  0.0275 -0.0155 -0.1534
37475W        W46275  24.185   7.650  21.457  0.3660  0.0847 -0.0818
37476W        W46276  12.812   6.304  16.580  0.1925  0.0727 -0.2589
37477W        W46277  27.182   1.058  16.097  0.0022  0.0041 -0.1147
37478W        W46278  19.880   2.904   2.866 -0.1798  0.2544  0.1547
37479W        W46279   9.451   0.648  25.571 -0.2771  0.1734 -0.1175
37480W        W46280  30.578   4.435  16.819  0.0922  0.0238 -0.0857
37481W        W46281  28.246   1.693   0.286  0.5124  0.0403 -0.1871
37482W        W46282  13.669   7.570  21.657 -0.3530 -0.0179 -0.0631
37483W        W46283   5.121   2.931  10.089 -0.2489 -0.0061  0.1849
37484W        W46284   3.191   3.268   8.318 -0.2724 -0.2809 -0.2794
37485W        W46285  15.966   5.625  15.862 -0.0488  0.1385 -0.2536
37486W        W46286  15.574   2.822  10.273 -0.0526 -0.1456  0.2892
37487W        W46287   8.585   7.125  24.198 -0.1433  0.3325 -0.1351
37488W        W46288  17.619   1.589  19.858  0.2936  0.1922  0.3560
37489W        W46289  18.932   4.920  24.782 -0.0739 -0.0666 -0.1116
37490W        W46290  12.807   7.667   7.092 -0.1422 -0.1705 -0.0276
37491W        W46291  30.437   0.746   0.964 -0.1766 -0.0685 -0.1467
37492W        W46292   8.324   1.249   6.104  0.1760 -0.1977  0.3788
37493W        W46293  27.631   1.487   6.830  0.2404 -0.0699  0.1188
37494W        W46294   9.444   2.792  23.410  0.0050 -0.0036 -0.2891
37495W        W46295  25.082   2.499  25.046 -0.3453 -0.1043  0.0937
37496W        W46296  10.177   4.799  16.276  0.1813  0.2009 -0.2196
37497W        W46297  11.700   2.130   6.047 -0.1254  0.0686 -0.1307
37498W        W46298   7.135   3.902   7.591  0.2009  0.4111  0.1051
37499W        W46299   8.186   5.463  15.469 -0.0819  0.2160  0.1442
37500W        W46300  14.060   0.569  18.435 -0.0274  0.2664  0.2419
37501W        W46301   9.312   5.773   0.763 -0.0017 -0.0723 -0.0265
37502W        W46302  11.808   3.127   1.743  0.1836 -0.0059  0.3777
37503W        W46303   2.667   0.921   5.618  0.1561 -0.3393  0.0022
37504W        W46304  21.977   6.341  17.481  0.1710 -0.0892  0.1644
37505W        W46305  29.002   2.296  18.859 -0.0427  0.2720  0.0999
37506W        W46306  27.179   5.107  21.240 -0.0944 -0.0139 -0.1521
37507W        W46307  30.815   3.992  17.714  0.1229  0.2716  0.0423
37508W        W46308  16.466   5.603  19.629 -0.0849 -0.3563  0.0225
37509W        W46309  30.931   3.884   8.469 -0.2533 -0.0942 -0.2552
37510W        W46310  11.679   2.302  21.670 -0.2355  0.1527  0.4060
37511W        W46311  31.082   4.248  23.686  0.0151 -0.0748  0.0540
37512W        W46312   0.123   4.913   8.742  0.1293  0.2019  0.0853
37513W        W46313   2.659   6.495  25.747  0.0015  0.0845  0.0303
37514W        W46314  19.959   0.418   4.055  0.0569 -0.0698  0.0834
37515W        W46315  19.926   3.361  18.402 -0.0187 -0.1272  0.2419
37516W        W46316  30.865   2.879   8.271  0.0161  0.0218 -0.2346
37517W        W46317   8.108   5.766  18.342 -0.0383 -0.1683  0.1539
37518W        W46318  15.169   1.252  10.335 -0.0330  0.0486 -0.0848
37519W        W46319  21.579   0.895  23.195 -0.1067 -0.0823  0.1080
37520W        W46320   0.617   0.631   7.701  0.1210 -0.2657  0.2433
37521W        W46321  15.130   6.373   7.412 -0.1304 -0.2608 -0.1189
37522W        W46322  16.685   3.428   9.311  0.4672 -0.1541  0.3691
37523W        W46323   8.474   6.562  22.650  0.1022 -0.2884  0.0564
37524W        W46324   5.584   7.119  22.383  0.0302 -0.1151  0.3383
37525W        W46325  11.177   4.980   9.322 -0.0262 -0.1443 -0.3113
37526W        W46326  21.423   7.161   9.744  0.2033  0.1998 -0.1788
37527W        W46327  22.033   0.876   4.266 -0.1395 -0.0456  0.0452
37528W        W46328  24.273   1.081  20.678  0.4011  0.0742  0.0388
37529W        W46329  13.893   4.206  22.301  0.2483 -0.2823  0.0704
37530W        W46330  28.106   3.744   5.212  0.0327 -0.3020  0.0449
37531W        W46331  11.621   4.936  18.401  0.4359 -0.0672 -0.0219
37532W        W46332  13.208   6.452  19.914 -0.1068 -0.2662 -0.2417
37533W        W46333  27.481   6.125   7.382 -0.0489 -0.0827  0.1515
37534W        W46334  17.887   4.686  21.719 -0.0757 -0.1866 -0.0254
37535W        W46335  28.386   1.942   8.271  0.0914 -0.0393 -0.1360
37536W        W46336   1.404   1.651   0.453 -0.0169  0.1466  0.0229
37537W        W46337   9.978   6.708  23.463 -0.0154 -0.1256 -0.0043
37538W        W46338  27.370   4.799  21.595 -0.2201  0.0252  0.2006
37539W        W46339  30.972   0.724  23.973  0.0559  0.2971 -0.3608
37540W        W46340  22.452   2.652  15.102 -0.0294  0.0347 -0.0585
37541W        W46341  28.431   4.917  22.929 -0.0421  0.0871  0.1203
37542W        W46342  14.897   2.387  14.885  0.2120 -0.0719 -0.0006
37543W        W46343  16.504   2.186  19.544  0.1953 -0.2283  0.2048
37544W        W46344   6.415   1.773  11.350 -0.1549  0.2104 -0.0861
37545W        W46345   7.888   4.481  14.623  0.0172  0.0532  0.0663
37546W        W46346  20.558   1.177  25.454 -0.2205 -0.0811 -0.2837
37547W        W46347  25.964   4.374  10.723 -0.0282 -0.1372  0.0257
37548W        W46348   1.578   6.834  24.208  0.3125 -0.0470 -0.1805
37549W        W46349  12.912   3.334   6.843 -0.1609 -0.0907 -0.1046
37550W        W46350  17.788   7.038   9.117  0.0057  0.1323  0.0523
37551W        W46351   3.492   0.994  17.095  0.0185  0.0824  0.0097
37552W        W46352  29.335   4.200  10.149  0.4144 -0.0121  0.0338
37553W        W46353  16.054   4.862   8.386 -0.0730 -0.1634 -0.4630
37554W        W46354  19.890   5.655  15.569 -0.2125 -0.3492  0.0213
37555W        W46355  14.330   2.485  17.390  0.2855 -0.1129 -0.1046
37556W        W46356   3.466   0.571  24.965 -0.3939 -0.1566 -0.0244
37557W        W46357  12.449   0.910  22.556 -0.1270 -0.1299 -0.2291
37558W        W46358   7.642   2.161   3.195  0.0627 -0.0519 -0.1826
37559W        W46359  20.344   7.292   1.106  0.2187  0.4134  0.0305
37560W        W46360  23.760   6.699  21.920 -0.2918  0.0494  0.0885
37561W        W46361  22.482   4.256  19.618  0.0299  0.3691  0.0929
37562W        W46362  12.453   5.160  24.871 -0.1869 -0.0318 -0.1195
37563W        W46363   8.416   0.802   4.183  0.0539 -0.1267  0.2207
37564W        W46364  13.079   6.262  18.100 -0.2698 -0.1601 -0.0126
37565W        W46365  29.135   5.393  21.014  0.0153 -0.1848  0.2896
37566W        W46366   4.355   3.392  23.083 -0.2487  0.2030  0.1154
37567W        W46367  14.780   6.311   5.803  0.1124 -0.1697 -0.3368
37568W        W46368   4.641   0.844   9.519  0.4240 -0.2656  0.1188
37569W        W46369   1.329   5.536   2.447 -0.2614 -0.0589  0.0139
37570W        W46370  28.319   0.572  20.894  0.0194 -0.0529 -0.0837
37571W        W46371  12.248   1.689  20.314 -0.3723  0.0306 -0.1093
37572W        W46372  25.434   1.918   0.921 -0.1653  0.1255  0.0662
37573W        W46373   2.562   0.829  19.418 -0.2591  0.0132 -0.0402
37574W        W46374   6.551   7.297  21.549 -0.2298  0.1745  0.0972
37575W        W46375  11.417   7.448  22.469  0.1741  0.1963  0.0304
37576W        W46376  30.404   3.212   1.025 -0.0958  0.2222 -0.0932
37577W        W46377  25.760   7.090   8.075  0.0908  0.0883  0.3063
37578W        W46378   9.624   5.358   2.723  0.1333 -0.2286 -0.0521
37579W        W46379  29.428   4.057   0.372 -0.3445 -0.1006 -0.0760
37580W        W46380  18.231   6.877   3.417 -0.1105  0.0684 -0.0598
37581W        W46381   0.156   2.876  17.854 -0.1732 -0.1659  0.1653
37582W        W46382  19.703   5.481   6.694  0.0169  0.0942  0.3683
37583W        W46383  26.148   1.280   1.666  0.1921  0.2094 -0.0338
37584W        W46384  22.849   6.935   3.111  0.1596  0.0278 -0.0890
37585W        W46385  22.135   5.771  23.123  0.0457 -0.1502  0.0061
37586W        W46386  21.262   0.596  18.623 -0.1877 -0.1063  0.1480
37587W        W46387   1.478   6.664   0.402  0.0551  0.0328 -0.2296
37588W        W46388  27.217   6.733   1.010 -0.2660  0.0686  0.0415
37589W        W46389  23.188   7.583  20.529 -0.1268  0.1924 -0.0897
37590W        W46390  15.457   7.606   2.860  0.1836 -0.0170  0.0172
37591W        W46391   4.482   2.560   5.937 -0.0784  0.1146 -0.1412
37592W        W46392  23.460   0.227   3.931  0.0890 -0.1071  0.1836
37593W        W46393  21.556   0.760  24.682  0.0078  0.0214 -0.1307
37594W        W46394   0.321   6.874  20.750  0.0073 -0.1349 -0.1129
37595W        W46395  30.402   2.430  25.235  0.1536 -0.0255 -0.0884
37596W        W46396   5.371   7.368  25.800 -0.1709 -0.0723  0.0814
37597W        W46397   1.388   2.963   1.751  0.0473  0.1449 -0.0570
37598W        W46398  20.635   1.990  23.470  0.1028  0.2950 -0.0225
37599W        W46399  21.922   6.123  20.533  0.1374 -0.0794 -0.0185
37600W        W46400  20.033   2.671  21.309 -0.0416  0.0790 -0.1793
37601W        W46401  11.467   1.657   1.923  0.1728 -0.1637 -0.0773
37602W        W46402  15.671   2.232   0.429  0.1025  0.1499  0.1630
37603W        W46403  13.944   6.889  23.032  0.1690  0.3080 -0.0724
37604W        W46404  22.116   3.098  22.413  0.1473  0.0209  0.1171
37605W        W46405   3.944   0.132  21.265  0.0734  0.1431 -0.0822
37606W        W46406  20.156   7.153   4.216  0.3397  0.2370  0.2722
37607W        W46407  17.102   5.774  24.385  0.1265 -0.0599  0.1230
37608W        W46408  20.106   0.406   7.176  0.0718  0.0470 -0.0773
37609W        W46409   0.024   5.034  16.845 -0.3037 -0.1881  0.1889
37610W        W46410  20.969   2.508   8.060 -0.1544 -0.0800  0.2279
37611W        W46411  10.984   7.526   9.043 -0.2825  0.2978 -0.2536
37612W        W46412   6.940   3.827   0.069  0.2759  0.0580 -0.0152
37613W        W46413  10.387   6.048   0.479  0.1003 -0.0311  0.0859
37614W        W46414  24.875   1.557   8.961  0.1196  0.2266 -0.2420
37615W        W46415  29.601   4.837   3.469  0.2641  0.1060  0.2947
37616W        W46416   9.075   0.256   9.402  0.1633  0.0164  0.1109
37617W        W46417   7.133   6.931   5.750 -0.2956 -0.2344  0.2586
37618W        W46418  17.358   3.493  15.520 -0.3116  0.0209 -0.0534
37619W        W46419  13.607   5.520  10.478  0.3364  0.0167  0.0354
37620W        W46420  11.085   3.443   7.274  0.0128 -0.2220  0.0368
37621W        W46421  10.927   3.251   7.782 -0.0323 -0.0187  0.0633
37622W        W46422  13.101   0.558  24.935  0.2889 -0.1790  0.0199
37623W        W46423  28.643   2.169   6.983 -0.1046  0.2476  0.0379
37624W        W46424   0.582   0.306  19.800 -0.0283  0.1824  0.0943
37625W        W46425  14.376   7.153  19.537 -0.0695  0.2750  0.0361
37626W        W46426   2.109   6.107  24.754 -0.4722  0.1093  0.2545
37627W        W46427  10.478   5.671  22.708 -0.0555 -0.0276  0.1021
37628W        W46428  16.196   0.168   6.527  0.4079  0.0107 -0.0220
37629W        W46429   4.762   5.549  21.881 -0.0192  0.0054 -0.4999
37630W        W46430  14.677   4.678   3.563 -0.1033  0.2546  0.2907
37631W        W46431  29.849   6.120   1.563 -0.3151 -0.1322  0.1689
37632W        W46432  27.854   0.594  21.778  0.2528  0.2197  0.3877
37633W        W46433   7.590   0.002   8.070  0.1444  0.2425  0.2725
37634W        W46434   7.533   2.060   8.684 -0.1016  0.0400 -0.1237
37635W        W46435  13.117   0.956   9.191  0.1545  0.2613  0.1051
37636W        W46436  18.650   7.233   0.702 -0.1729 -0.2499 -0.0503
37637W        W46437   7.598   2.956  20.189 -0.1273 -0.0735 -0.5466
37638W        W46438  27.510   1.303  22.578 -0.0006  0.0909  0.1091
37639W        W46439  27.032   2.415   2.750 -0.1753 -0.1092 -0.0357
37640W        W46440  29.772   4.907  19.486 -0.0029  0.0739  0.0612
37641W        W46441  23.000   4.762  10.420  0.0532 -0.2072 -0.1023
37642W        W46442  21.018   0.466  15.554  0.1175 -0.1905  0.0752
37643W        W46443  16.448   4.663  19.509 -0.2042 -0.1149  0.1553
37644W        W46444  19.478   2.104   3.197 -0.0117  0.0255 -0.0082
37645W        W46445  21.277   4.946   9.431 -0.2380 -0.1087  0.1362
37646W        W46446   6.062   5.944  15.110  0.2459 -0.0562 -0.0339
37647W        W46447   9.637   7.377   6.613  0.2186 -0.1303  0.1058
37648W        W46448  24.958   6.729   6.404  0.0343  0.2018 -0.0141
37649W        W46449  15.650   1.786  19.407 -0.3567 -0.2941  0.0819
37650W        W46450   2.611   6.660   1.251  0.2150  0.1649 -0.0845
37651W        W46451   2.432   0.441  10.208 -0.0947  0.0971 -0.1106
37652W        W46452  25.563   4.373  21.139 -0.0407 -0.2180 -0.0376
37653W        W46453   2.974   0.943  18.628  0.2432  0.2393 -0.0055
37654W        W46454   8.587   1.684  18.191  0.2381  0.1730 -0.0264
37655W        W46455   1.380   0.167  15.753  0.0587  0.1201  0.3114
37656W        W46456  28.350   1.740   4.426  0.0289  0.0201 -0.0889
37657W        W46457   9.398   6.673   8.393 -0.1614 -0.0807 -0.0782
37658W        W46458  23.347   4.795   1.226  0.0511  0.1156  0.3068
37659W        W46459  17.924   3.477   1.868  0.1561  0.2746  0.1051
37660W        W46460  25.870   3.381   1.136  0.1655  0.2844 -0.1662
37661W        W46461  22.626   5.154   4.763  0.0165  0.1690  0.0438
37662W        W46462  28.365   0.091  15.169 -0.1255 -0.0967 -0.2637
37663W        W46463  13.098   5.333   5.006 -0.0150 -0.0628  0.1886
37664W        W46464   7.336   3.481  20.918  0.2286  0.2173  0.0196
37665W        W46465   4.649   2.329  20.185 -0.1078 -0.1393  0.2396
37666W        W46466  27.833   0.341  17.438 -0.0184 -0.0804  0.0082
37667W        W46467   4.903   5.249  20.109 -0.1700  0.0147 -0.0780
37668W        W46468  22.348   3.710  17.010 -0.1001  0.2093 -0.0603
37669W        W46469  30.976   5.789  15.781 -0.0985 -0.1273 -0.0225
37670W        W46470  14.270   1.940  18.606 -0.0845  0.2107 -0.0734
37671W        W46471   2.084   3.311   6.894  0.1385 -0.1296  0.2966
37672W        W46472  26.917   5.457  15.318  0.1377 -0.1374 -0.0527
37673W        W46473   2.426   3.533  24.858 -0.1903 -0.1445 -0.0954
37674W        W46474  13.715   0.558  23.678  0.1363 -0.1721  0.0607
37675W        W46475  22.415   7.243  15.645  0.1833 -0.1759  0.1289
37676W        W46476  12.393   4.329  21.055  0.2320  0.1369  0.3348
37677W        W46477  27.002   2.859  16.621 -0.0882 -0.0185  0.3445
37678W        W46478  15.990   5.623   7.991 -0.0075 -0.2925 -0.2855
37679W        W46479  17.892   7.361  18.197 -0.2858 -0.0764  0.1392
37680W        W46480  22.172   5.440   1.920 -0.0109 -0.0785 -0.0806
37681W        W46481  26.977   6.603  16.666 -0.0700 -0.0718  0.3055
37682W        W46482  28.372   1.146  18.619 -0.0255 -0.0825 -0.1522
37683W        W46483   5.433   1.650  22.068  0.0811  0.0832 -0.0515
37684W        W46484   0.739   6.851  11.304  0.1572  0.0089  0.4446
37685W        W46485  21.493   6.143  23.736  0.2197  0.1533  0.1887
37686W        W46486  17.264   4.120  16.872  0.1673  0.2760 -0.1122
37687W        W46487   4.775   7.076  21.334  0.0756  0.4286 -0.1153
37688W        W46488  12.834   2.615  17.375  0.0571  0.0767  0.0686
37689W        W46489  18.438   0.720  23.453  0.2780 -0.3704 -0.1841
37690W        W46490  14.672   6.590  14.973 -0.0340  0.2839 -0.1081
37691W        W46491  20.102   6.030  18.543  0.1602  0.1148  0.1378
37692W        W46492   2.290   4.790  19.414  0.2973 -0.1147 -0.1948
37693W        W46493  28.635   0.005   6.270 -0.3519  0.2150 -0.0052
37694W        W46494  16.814   5.107  10.290 -0.0844 -0.1335  0.0813
37695W        W46495  11.485   5.941  15.718  0.0209  0.1833 -0.2260
37696W        W46496  24.315   3.032   5.076 -0.0544  0.5290 -0.1005
37697W        W46497   5.362   0.301   5.235  0.2890  0.0114 -0.2605
37698W        W46498  29.516   3.384   3.379  0.0332 -0.1904 -0.1023
37699W        W46499  23.897   0.233  15.242  0.0306  0.4153  0.0288
37700W        W46500  18.309   0.852  17.036  0.0526 -0.2947  0.1540
37701W        W46501   9.087   5.650   9.771  0.5108  0.2978  0.1424
37702W        W46502  17.264   1.829   8.787  0.0379 -0.0207 -0.0931
37703W        W46503  15.151   4.771  15.289 -0.1317  0.0713 -0.1333
37704W        W46504  10.858   7.086   0.834 -0.4203  0.1009  0.0310
37705W        W46505  28.784   3.276  20.853  0.2903  0.0211 -0.2876
37706W        W46506  26.104   4.621   4.631  0.0710  0.0863  0.0176
37707W        W46507   0.249   2.443   0.508  0.0816 -0.0117 -0.1720
37708W        W46508   5.972   5.905  18.584  0.2893 -0.2170 -0.2692
37709W        W46509  20.416   0.037   8.553 -0.1930  0.1658  0.1410
37710W        W46510  28.079   2.345   7.224 -0.1131 -0.1334  0.2056
37711W        W46511  23.884   3.811  21.013 -0.0938  0.0937  0.2876
37712W        W46512   6.506   6.693   6.702  0.2738 -0.0427  0.0367
37713W        W46513  19.512   4.824  15.660  0.1895  0.0171 -0.0910
37714W        W46514  24.180   7.066   1.889 -0.1963  0.2076 -0.1668
37715W        W46515  24.800   6.434   0.203 -0.1641  0.1549  0.1395
37716W        W46516  22.349   0.983  17.987  0.0544  0.1542 -0.1306
37717W        W46517   5.716   5.920   8.991 -0.0288 -0.4293 -0.0839
37718W        W46518  29.091   2.943   6.905 -0.2365  0.1758  0.0563
37719W        W46519  30.792   1.573  17.592  0.0983 -0.0327  0.3192
37720W        W46520   2.112   6.959  22.104 -0.0513  0.1979  0.1613
37721W        W46521  19.120   5.012   1.340  0.4075 -0.3207  0.5457
37722W        W46522  25.086   0.618  21.668  0.1941  0.2226 -0.3115
37723W        W46523  29.242   2.654  25.547  0.1615  0.0932 -0.3371
37724W        W46524  22.345   0.732   3.859 -0.1590 -0.2164 -0.0214
37725W        W46525   9.943   0.723  20.984  0.2042 -0.2643  0.1739
37726W        W46526  31.227   6.457   0.385  0.1376  0.3207  0.0819
37727W        W46527  11.814   4.581   1.499 -0.2789  0.0297 -0.0748
37728W        W46528  30.915   7.671   1.442  0.1043  0.0150  0.0702
37729W        W46529   6.505   3.085  20.515 -0.0732 -0.5257  0.1096
37730W        W46530  10.254   7.065  19.807 -0.2134  0.3686  0.1478
37731W        W46531  18.283   4.820  24.220 -0.0001  0.0509  0.1075
37732W        W46532  20.667   1.486  18.881  0.0931  0.3255 -0.0035
37733W        W46533  22.987   4.735   3.362  0.1305  0.0454 -0.0313
37734W        W46534   0.704   6.072  18.254 -0.1653 -0.0051  0.0056
37735W        W46535  22.871   6.734  21.963 -0.1077 -0.0943  0.2630
37736W        W46536  26.790   1.638  10.375 -0.2047  0.1652  0.0988
37737W        W46537  23.809   1.047  23.953 -0.0203  0.1557 -0.1358
37738W        W46538  19.167   4.914  18.249  0.1265  0.0385 -0.3461
37739W        W46539   2.704   0.416  20.121  0.0194 -0.1580 -0.2280
37740W        W46540  10.318   6.450  21.977  0.2251  0.0169  0.2092
37741W        W46541   8.751   5.343  24.831 -0.1467  0.0162 -0.1362
37742W        W46542  26.809   4.023  20.439 -0.2973  0.0733 -0.2110
37743W        W46543   7.224   6.843   4.367 -0.0213 -0.0051  0.0169
37744W        W46544  17.635   0.383   5.057  0.3003 -0.2431  0.1777
37745W        W46545  16.686   7.752   3.893 -0.2560  0.0777 -0.0758
37746W        W46546  27.316   4.687   6.951  0.0067 -0.1258 -0.1828
37747W        W46547  12.856   1.079  24.260 -0.0212 -0.1909  0.2492
37748W        W46548  19.444   0.024  17.870  0.1547  0.0670 -0.0244
37749W        W46549  19.133   4.741   9.069 -0.0481  0.1310 -0.1512
37750W        W46550  30.346   4.600  15.176  0.2321  0.1632  0.1880
37751W        W46551   1.707   0.188  19.827 -0.0524  0.0926 -0.2464
37752W        W46552   6.536   2.223  18.856 -0.4653  0.1511  0.4951
37753W        W46553   1.127   4.148   5.535  0.0760 -0.1872  0.0984
37754W        W46554   1.692   6.062   9.832  0.2251 -0.1292  0.0063
37755W        W46555  19.695   2.852  17.978 -0.0590  0.2390 -0.2675
37756W        W46556  25.117   6.389   4.601 -0.2506 -0.4519 -0.1550
37757W        W46557  21.500   6.345   7.158 -0.1329 -0.3442 -0.1617
37758W        W46558  21.320   1.531  25.775 -0.1372 -0.0509 -0.0743
37759W        W46559  29.938   6.019  23.383  0.1817 -0.4116 -0.4544
37760W        W46560  30.411   5.349  11.161  0.1183 -0.0631 -0.3272
37761W        W46561  29.004   5.474  18.065 -0.1325  0.1970 -0.1131
37762W        W46562  15.640   2.353  24.409 -0.1971 -0.2032  0.1544
37763W        W46563  25.719   5.911   3.890  0.0317  0.3238  0.1011
37764W        W46564   7.637   4.439  19.196  0.0589  0.3677  0.2765
37765W        W46565  26.265   3.899  22.886 -0.3273  0.0284 -0.2674
37766W        W46566  18.063   5.203  17.661 -0.0264  0.2908 -0.0884
37767W        W46567  11.978   6.086   7.595 -0.0882  0.0184 -0.0261
37768W        W46568  28.259   3.969   6.234 -0.1721  0.0917  0.1746
37769W        W46569  18.575   4.744   4.110  0.0306  0.4968  0.0809
37770W        W46570  12.450   5.525  22.257 -0.0010  0.4567 -0.0256
37771W        W46571  16.346   4.987  25.067 -0.2611  0.0823  0.3058
37772W        W46572   6.532   4.466   1.324  0.2243 -0.2487 -0.1236
37773W        W46573  22.890   3.955   2.772 -0.1540 -0.0638 -0.2907
37774W        W46574  22.500   0.315  24.378  0.0490 -0.0206 -0.1489
37775W        W46575  20.740   4.569   9.991 -0.0393 -0.0613 -0.0919
37776W        W46576  27.060   1.979   4.802  0.4587  0.0067  0.1017
37777W        W46577   0.435   4.800   4.049 -0.5055 -0.0407 -0.0978
37778W        W46578  13.262   6.361   6.684  0.3033 -0.3478  0.0349
37779W        W46579  21.232   6.711  22.383 -0.0521  0.2186 -0.4950
37780W        W46580  10.625   7.028   5.584  0.0670 -0.0038 -0.0026
37781W        W46581  22.056   2.618  10.562 -0.3308  0.2916  0.4709
37782W        W46582  20.430   4.461   5.508  0.0261  0.0307  0.2627
37783W        W46583  18.451   7.047   9.015 -0.2704  0.1028  0.1216
37784W        W46584  18.703   4.904  25.330  0.1716 -0.2122 -0.1256
37785W        W46585   5.035   6.904  25.170  0.0657  0.0853  0.3231
37786W        W46586   9.762   3.202   7.431  0.2083 -0.2482 -0.1285
37787W        W46587  30.951   3.242   2.575 -0.1799 -0.0961 -0.1394
37788W        W46588  27.024   6.838   2.921 -0.1292 -0.1175 -0.2429
37789W        W46589   8.878   0.888  24.511  0.1118  0.1076  0.1156
37790W        W46590  13.081   0.704   8.279  0.1880 -0.0283 -0.5896
37791W        W46591  19.730   3.667  15.323  0.0846  0.3498  0.2606
37792W        W46592  29.173   7.454   6.595  0.0445 -0.0863 -0.1778
37793W        W46593  16.421   2.163   5.290  0.3201  0.2073 -0.0126
37794W        W46594  29.141   5.309  15.853 -0.0659 -0.4113  0.0977
37795W        W46595  11.339   2.569  21.350 -0.1364  0.2274  0.1724
37796W        W46596  28.505   2.986   3.721 -0.1967 -0.1061 -0.0444
37797W        W46597  14.876   4.504   2.286 -0.3489  0.0530 -0.1147
37798W        W46598  22.796   5.831  18.811  0.0969 -0.1991 -0.2265
37799W        W46599  17.838   3.215  23.421  0.0073 -0.3239 -0.0483
37800W        W46600   8.188   5.280  16.689  0.0455  0.1211 -0.2293
37801W        W46601  22.413   7.152   0.829 -0.0744 -0.0759  0.1051
37802W        W46602  26.622   3.728  22.527 -0.0616  0.0710  0.1800
37803W        W46603  13.711   7.301   6.444 -0.1775  0.0219  0.1794
37804W        W46604  19.214   2.785  10.017  0.0404 -0.0858 -0.2180
37805W        W46605  17.274   1.934  18.734 -0.2994  0.2519 -0.0587
37806W        W46606  25.123   3.552  25.856  0.0328  0.2325  0.0432
37807W        W46607  20.332   4.536   8.238 -0.1901  0.0233  0.0340
37808W        W46608  15.499   6.355  17.171  0.0932 -0.0098  0.3898
37809W        W46609   7.721   2.755  21.028  0.1976  0.3933 -0.1866
37810W        W46610   6.134   5.251  17.971 -0.2158  0.1117  0.0928
37811W        W46611  10.491   4.858   4.603  0.2618  0.1752 -0.1615
37812W        W46612  22.452   1.099  23.930  0.1820 -0.0482 -0.0438
37813W        W46613  20.617   7.263  20.918 -0.0050 -0.3309  0.0956
37814W        W46614  15.723   6.799   1.234 -0.0540 -0.3120  0.0723
37815W        W46615  23.218   1.446   1.654  0.3950 -0.3176 -0.0214
37816W        W46616  13.187   7.006  18.835  0.3576 -0.3808  0.1848
37817W        W46617  29.170   0.391   5.704  0.1819  0.1619  0.1793
37818W        W46618  16.075   2.356   6.620 -0.1393 -0.1509 -0.1422
37819W        W46619   2.583   5.348   0.285 -0.1455 -0.1562  0.0477
37820W        W46620  30.045   6.099   9.708 -0.3320  0.0835 -0.3326
37821W        W46621  12.950   4.235  22.500 -0.1373 -0.0528 -0.3646
37822W        W46622  14.762   1.492  19.385  0.3274  0.1523 -0.1356
37823W        W46623  21.302   5.481   0.524 -0.1702  0.1065  0.2097
37824W        W46624  25.063   3.433   0.166  0.1650 -0.0456  0.1153
37825W        W46625   5.070   0.295  11.635 -0.0522  0.1134  0.1618
37826W        W46626   3.933   0.114   9.033  0.0139 -0.1164 -0.0934
37827W        W46627   8.698   2.187   2.148 -0.1109 -0.1691  0.0519
37828W        W46628  18.904   6.207  22.396  0.0166 -0.2267 -0.0866
37829W        W46629   2.397   2.365  21.942 -0.2177  0.2078  0.2669
37830W        W46630   7.507   4.009   3.702  0.1279 -0.2267  0.0518
37831W        W46631   1.158   5.865  21.481  0.0615  0.1096 -0.2765
37832W        W46632  16.309   7.016   4.026 -0.1713 -0.1177 -0.1888
37833W        W46633  14.509   7.020  24.081 -0.1178 -0.0775  0.1326
37834W        W46634  22.652   7.546  22.449 -0.0974  0.1584  0.1464
37835W        W46635  10.426   3.535  19.479 -0.2659 -0.0777 -0.0684
37836W        W46636   8.610   3.891   6.127  0.1107  0.1351  0.1719
37837W        W46637  25.814   6.890  16.033  0.0973  0.1815  0.0412
37838W        W46638  31.248   5.708  25.042 -0.1680  0.0791  0.3302
37839W        W46639   1.697   1.908  20.095 -0.0307  0.2212  0.2406
37840W        W46640   9.977   5.010  24.613  0.1426 -0.1022 -0.1382
37841W        W46641  29.518   5.562  22.747 -0.0756  0.0328 -0.1967
37842W        W46642  25.586   3.443   1.790  0.2314  0.1613  0.2384
37843W        W46643  10.827   7.294  15.527  0.2034 -0.1878 -0.1519
37844W        W46644  17.890   0.037  14.810  0.0891 -0.0881  0.0295
37845W        W46645  28.664   1.741   6.104 -0.0926 -0.0884 -0.1922
37846W        W46646   4.924   0.880  18.045 -0.1272 -0.0942 -0.1542
37847W        W46647  30.776   1.679  22.223 -0.0311  0.4853 -0.2666
37848W        W46648   0.920   2.762  23.224  0.0099 -0.2515 -0.0660
37849W        W46649  10.627   2.427  15.747  0.0153  0.0369 -0.1643
37850W        W46650  15.731   2.982   6.798  0.0912  0.2773  0.1706
37851W        W46651   7.641   4.179  23.292 -0.1700  0.1764  0.0955
37852W        W46652   1.184   0.848  15.460  0.0862 -0.0962  0.1685
37853W        W46653  28.519   6.404   9.731  0.0340  0.0125  0.4148
37854W        W46654  11.219   4.957   6.545  0.1989  0.0051  0.0238
37855W        W46655   4.905   4.789   1.788  0.3351 -0.0294 -0.0025
37856W        W46656  11.422   1.868   0.109 -0.1129 -0.0510 -0.2032
37857W        W46657  29.679   7.289   6.778  0.0539  0.2892  0.0221
37858W        W46658  11.413   3.746  25.325  0.3016 -0.0460  0.4526
37859W        W46659  10.614   4.249   1.621  0.0691  0.0042 -0.3471
37860W        W46660  23.334   6.618   9.043  0.0313 -0.1146  0.3669
37861W        W46661   8.435   4.917  19.592  0.0621 -0.2048 -0.0435
37862W        W46662   3.362   6.593  10.255 -0.2627  0.1246 -0.0896
37863W        W46663  29.224   4.496  10.559 -0.0740 -0.0415 -0.0542
37864W        W46664  25.217   6.524  19.376  0.1735  0.1092 -0.1989
37865W        W46665   8.068   1.663  11.144 -0.1399 -0.0500 -0.1541
37866W        W46666  25.084   7.598   9.254 -0.1805  0.4728 -0.2138
37867W        W46667   2.112   2.559   8.010 -0.0473 -0.3573 -0.2318
37868W        W46668  11.802   1.185  18.263 -0.0937  0.0047 -0.2448
37869W        W46669  24.576   3.989  25.318  0.2175 -0.0174  0.3590
37870W        W46670  11.060   1.737   1.382  0.0544 -0.0585 -0.0863
37871W        W46671  18.553   2.121   4.698 -0.0210  0.2192  0.2145
37872W        W46672  20.528   3.889   1.542 -0.1359 -0.1690  0.3039
37873W        W46673  21.529   3.802  21.749 -0.0289 -0.0112  0.2289
37874W        W46674  22.430   2.520   6.666 -0.1329 -0.0195 -0.0479
37875W        W46675  24.489   4.299   0.888 -0.0589  0.4538  0.2087
37876W        W46676  25.884   2.452  17.627  0.0673  0.0317  0.1620
37877W        W46677   9.799   3.481   8.296 -0.0335  0.2836  0.2366
37878W        W46678  14.280   7.118   1.139 -0.0515  0.2232  0.1608
37879W        W46679  14.739   3.267  17.177  0.1287 -0.0375  0.0376
37880W        W46680   0.713   6.292  18.709 -0.0908 -0.0788  0.2551
37881W        W46681   1.464   6.916  20.002 -0.1525 -0.0081 -0.0965
37882W        W46682  11.055   0.846  22.194 -0.2428  0.0202  0.0478
37883W        W46683  16.002   1.398  15.136 -0.0184  0.1762 -0.0026
37884W        W46684   2.780   3.950  23.331 -0.0003  0.1777  0.1220
37885W        W46685  23.793   5.303  21.564 -0.2993 -0.1179 -0.0113
37886W        W46686  19.306   7.267  18.193  0.1566  0.2700 -0.2394
37887W        W46687  11.183   3.237  23.456  0.0432 -0.0330  0.3775
37888W        W46688  30.441   3.079  19.310  0.2669 -0.1394  0.0086
37889W        W46689  29.536   5.481  16.709 -0.0644  0.1407  0.3692
37890W        W46690  23.223   6.974   3.430 -0.0574 -0.1945  0.3165
37891W        W46691  28.316   6.461   5.852 -0.2044 -0.1915 -0.0522
37892W        W46692  20.408   2.616   9.114  0.1631  0.2639 -0.0474
37893W        W46693  14.218   4.260  18.773 -0.0880 -0.0567 -0.0544
37894W        W46694  15.803   4.327   1.839  0.0877 -0.0232  0.0816
37895W        W46695  10.420   4.842  20.223  0.1482  0.3252 -0.1122
37896W        W46696   0.081   7.743  17.960  0.3632  0.2808 -0.1341
37897W        W46697  17.123   0.300  24.173 -0.3431 -0.2133  0.3504
37898W        W46698  30.360   0.129   9.919  0.2345  0.1452  0.1431
37899W        W46699  22.134   6.809   0.577 -0.1593  0.1769  0.0589
37900W        W46700   5.111   1.241  22.177 -0.0605 -0.0040 -0.0427
37901W        W46701   0.021   3.955   3.000  0.1122 -0.1167  0.0621
37902W        W46702  11.859   2.943   3.145 -0.3605 -0.0638 -0.0283
37903W        W46703  15.291   4.596   1.945  0.1939  0.0804 -0.0649
37904W        W46704  19.732   3.646  24.299  0.0228  0.1388 -0.2032
37905W        W46705  29.642   6.267  22.452 -0.0138  0.0679 -0.0394
37906W        W46706  13.776   6.810  20.708  0.3154  0.1868 -0.0599
37907W        W46707  26.494   5.901  18.072  0.2555 -0.0594 -0.3393
37908W        W46708   9.068   2.907   0.576  0.0479 -0.1527  0.0674
37909W        W46709  23.517   0.303  22.107  0.0138  0.3460  0.0037
37910W        W46710  20.095   3.532  20.191 -0.1913  0.2003 -0.0675
37911W        W46711  12.826   0.572  22.849  0.1095  0.0442  0.0847
37912W        W46712   1.450   3.874   0.605  0.0547  0.1564 -0.1187
37913W        W46713  27.694   5.317   8.473  0.1883 -0.0291 -0.2335
37914W        W46714  29.269   4.472   6.067 -0.0460  0.0763  0.0167
37915W        W46715   7.112   7.555  22.701  0.2651 -0.0829 -0.0166
37916W        W46716  21.955   0.328   1.756 -0.2689 -0.1926 -0.1108
37917W        W46717   3.690   1.031  24.103 -0.0470  0.0135  0.1476
37918W        W46718  12.173   7.465   7.913 -0.1889 -0.0028  0.0385
37919W        W46719  16.427   4.599  24.209  0.1761 -0.0325 -0.2011
37920W        W46720  23.313   3.068  17.475 -0.0440  0.0494 -0.2327
37921W        W46721  21.145   6.861  10.094  0.1337  0.0235  0.1330
37922W        W46722  11.758   6.758  10.343  0.0912  0.1142 -0.0195
37923W        W46723  30.530   5.851  19.133  0.1434  0.1852 -0.1832
37924W        W46724  29.078   2.036  22.561 -0.0587  0.0570 -0.1365
37925W        W46725  20.957   5.039   6.104 -0.0233  0.0981  0.0466
37926W        W46726  17.234   0.786  24.166  0.0701 -0.0381 -0.0371
37927W        W46727   1.783   7.306   2.444  0.1748 -0.5472 -0.1009
37928W        W46728   5.932   1.573  10.540 -0.1062 -0.1481  0.1292
37929W        W46729  10.480   2.815   8.634 -0.0983  0.0000  0.0996
37930W        W46730  19.189   7.366   0.053 -0.0162  0.2610  0.1539
37931W        W46731  23.031   3.707  19.357 -0.2024  0.1698  0.0462
37932W        W46732  24.630   1.618  18.134 -0.1248 -0.1642 -0.0709
37933W        W46733  13.187   2.749   3.583 -0.1128 -0.1565 -0.1843
37934W        W46734  23.343   1.462   6.759 -0.1137  0.1667 -0.0041
37935W        W46735  16.596   1.321  15.838 -0.2673 -0.1078  0.2863
37936W        W46736  15.177   4.309  19.096 -0.0986  0.0687  0.0642
37937W        W46737  18.496   7.198   1.158  0.1915  0.0380 -0.0618
37938W        W46738  30.846   5.247  17.897  0.2192 -0.3432 -0.0833
37939W        W46739   3.379   0.718   2.176  0.3514  0.1167 -0.1473
37940W        W46740  26.563   1.752  24.874 -0.3491 -0.0384  0.1515
37941W        W46741   8.601   2.483   7.087 -0.1842 -0.1729  0.1467
37942W        W46742   4.546   3.842  22.334  0.2912  0.0002 -0.3098
37943W        W46743   8.259   0.190   0.806  0.1413  0.1607  0.2033
37944W        W46744  19.293   0.855  18.478  0.4004  0.0642 -0.0696
37945W        W46745   6.644   2.410   0.046  0.3615 -0.0974 -0.1468
37946W        W46746  30.814   5.363  25.297  0.2185  0.0746  0.0023
37947W        W46747   7.200   1.826   3.176 -0.3119  0.3016 -0.3028
37948W        W46748  29.849   1.253   2.368  0.1741 -0.0270 -0.0649
37949W        W46749  16.465   4.960  16.445  0.1112  0.0816  0.0443
37950W        W46750  18.954   7.058   6.650 -0.0508  0.0466  0.2320
37951W        W46751  26.691   4.720   9.961  0.2202  0.1096  0.2830
37952W        W46752  11.651   1.189  17.098 -0.2409  0.2818 -0.0059
37953W        W46753   2.106   5.796  25.409  0.0290  0.1273 -0.1324
37954W        W46754  27.391   2.291  21.670 -0.0469 -0.0834 -0.3666
37955W        W46755   5.216   1.609  17.856 -0.1075  0.0232 -0.0751
37956W        W46756  16.810   0.830  22.741 -0.0016  0.1169 -0.0495
37957W        W46757  15.562   6.786   2.822 -0.0092  0.0425 -0.2430
37958W        W46758  15.967   0.085  18.725  0.2499 -0.0743 -0.0573
37959W        W46759   0.956   5.702   5.548 -0.1105 -0.4186  0.0657
37960W        W46760  18.882   1.184  18.389  0.1171  0.1302 -0.0114
37961W        W46761   4.341   3.399   2.817 -0.1153  0.1224 -0.1229
37962W        W46762  22.497   7.028   5.786  0.0165  0.2169 -0.2412
37963W        W46763  21.681   4.658   1.543  0.0318  0.1302 -0.0731
37964W        W46764  13.902   6.587   4.803 -0.2086 -0.1942  0.0647
37965W        W46765  16.096   0.525  15.679 -0.0049  0.2878  0.0603
37966W        W46766  22.890   0.791   6.925 -0.1058 -0.0728  0.1560
37967W        W46767   1.005   3.772   5.891  0.1433 -0.1041  0.1162
37968W        W46768   1.653   4.098   6.869  0.0634  0.1906  0.0415
37969W        W46769  30.526   2.553  24.067  0.3087  0.1972  0.0913
37970W        W46770  22.097   4.035  18.484 -0.0660 -0.0601 -0.0389
37971W        W46771  23.848   7.516  16.694 -0.2100 -0.1061 -0.1818
37972W        W46772  23.390   2.984  19.345  0.0270 -0.1907  0.1711
37973W        W46773  26.853   2.060  18.486 -0.2041  0.3041 -0.1474
37974W        W46774  14.144   6.242   9.995  0.0504 -0.1446  0.0495
37975W        W46775  11.927   2.658   8.227 -0.1477  0.1954 -0.0131
37976W        W46776   0.505   3.067  22.738  0.2977 -0.2911 -0.0121
37977W        W46777  14.347   1.686  23.943  0.0471 -0.1485  0.1204
37978W        W46778  29.239   5.609   5.892  0.3975 -0.0338 -0.1911
37979W        W46779  28.495   4.684  11.005  0.2032  0.1149 -0.1564
37980W        W46780  21.364   2.369  19.631  0.1562 -0.0988  0.1521
37981W        W46781  10.620   6.970  24.204  0.0899 -0.2753  0.0507
37982W        W46782   9.466   0.865   0.535 -0.0602  0.3422  0.0456
37983W        W46783   5.816   1.155   7.773 -0.1182  0.2534 -0.0909
37984W        W46784   9.964   5.096  20.464 -0.0687  0.2714  0.1736
37985W        W46785   1.118   7.259   7.996  0.3877  0.0988  0.2255
37986W        W46786  22.295   5.887  24.677 -0.0616  0.2494  0.3133
37987W        W46787  23.081   0.358   3.704 -0.1921  0.2469  0.2178
37988W        W46788   1.080   6.930  20.443  0.1834 -0.2713  0.0794
37989W        W46789  26.698   0.600   1.739 -0.2224 -0.0715  0.1561
37990W        W46790  30.677   7.552   8.650 -0.0098 -0.1284 -0.0614
37991W        W46791  27.956   6.448  19.238  0.0268  0.0773 -0.3673
37992W        W46792  14.510   0.596   0.789 -0.0932  0.1049 -0.0658
37993W        W46793  10.585   5.891  21.463  0.0821 -0.1561 -0.1809
37994W        W46794  18.959   7.427  15.478  0.1966 -0.2029  0.3750
37995W        W46795  15.151   5.457  15.910 -0.0685 -0.0559  0.1139
37996W        W46796  10.346   4.340  20.211  0.0431  0.0263 -0.0691
37997W        W46797   9.725   7.640   8.233 -0.1020  0.0485 -0.0298
37998W        W46798  19.340   1.953  10.223  0.1219 -0.2816 -0.1344
37999W        W46799  27.421   1.484  23.925 -0.0537  0.0974  0.0140
38000W        W46800  31.114   7.356  11.064 -0.1012 -0.0848  0.1263
38001W        W46801  18.879   0.136  19.980 -0.0465  0.2530 -0.0195
38002W        W46802   7.135   0.269  25.252 -0.0605  0.0923 -0.1278
38003W        W46803  27.832   0.839   7.649  0.0834  0.1134 -0.1158
38004W        W46804   5.940   3.605   5.076  0.1769  0.1112 -0.4003
38005W        W46805  11.075   0.934  14.908 -0.1104  0.1218 -0.2369
38006W        W46806  18.213   6.325   3.299 -0.0990  0.1592  0.1022
38007W        W46807  27.088   2.461  15.806  0.1582 -0.0680  0.0179
38008W        W46808  26.951   2.857   8.421  0.1263 -0.0292  0.2304
38009W        W46809  13.906   0.812   6.518 -0.1113 -0.1140  0.0911
38010W        W46810  21.388   5.261  10.292 -0.2045 -0.1385  0.0560
38011W        W46811  29.183   1.149   3.131 -0.1149  0.0527  0.1812
38012W        W46812  24.551   3.762  23.934 -0.1141  0.5176  0.4285
38013W        W46813  27.071   4.344  18.459  0.0183  0.0438  0.0225
38014W        W46814  28.541   5.734  10.115  0.0463  0.1350  0.3043
38015W        W46815   5.615   4.441  17.172  0.0921  0.0144 -0.1740
38016W        W46816  24.671   2.793  20.162  0.0561 -0.0266 -0.2350
38017W        W46817   7.127   5.478   5.091 -0.0008  0.1937 -0.2922
38018W        W46818   2.279   6.024  22.792 -0.0803 -0.0108  0.1574
38019W        W46819  10.053   0.914  24.802  0.2340  0.3628 -0.0750
38020W        W46820  19.035   4.367   6.853 -0.1893  0.1312  0.0685
38021W        W46821   8.749   7.626  26.176  0.4695  0.0914  0.0967
38022W        W46822  27.083   4.843  15.435  0.3676  0.0924  0.2924
38023W        W46823  23.453   5.802  19.892  0.0330 -0.5088  0.0671
38024W        W46824  17.087   1.074  16.707 -0.2141  0.1698  0.2206
38025W        W46825  24.387   1.904   3.585  0.0616 -0.3804 -0.0113
38026W        W46826   4.858   5.817  22.705  0.0204  0.1423 -0.0423
38027W        W46827  26.586   7.569   9.195 -0.0660 -0.0941  0.2106
38028W        W46828   1.202   6.090   8.138 -0.3094  0.3049  0.2742
38029W        W46829  25.543   2.973  24.356  0.4928  0.0759 -0.1746
38030W        W46830  25.652   7.603   9.309 -0.2353 -0.1622 -0.0479
38031W        W46831  10.873   2.498   8.947 -0.0682 -0.0685 -0.0155
38032W        W46832   3.782   2.276   6.516  0.0387  0.1165  0.1199
38033W        W46833   7.337   6.324   1.789 -0.1721 -0.1927  0.1176
38034W        W46834  19.561   2.260   2.544  0.0105  0.0170  0.2645
38035W        W46835  23.251   4.325  19.286 -0.0523  0.0305 -0.1741
38036W        W46836  15.516   5.858  17.021 -0.1257 -0.1810 -0.0673
38037W        W46837  11.571   5.125   0.683 -0.0875 -0.1701 -0.5596
38038W        W46838   8.742   0.333  20.505 -0.0873  0.1645  0.1374
38039W        W46839   4.944   7.185  17.917 -0.0046  0.0115  0.0137
38040W        W46840  20.752   5.762  20.855 -0.1184 -0.0995  0.1670
38041W        W46841  16.831   4.766  23.078 -0.0706  0.0054 -0.0938
38042W        W46842  19.415   0.192   4.676  0.2168 -0.2519  0.0965
38043W        W46843  10.914   5.109   0.030 -0.1709 -0.1166  0.3681
38044W        W46844  24.145   4.046   7.535  0.1055 -0.0046 -0.0432
38045W        W46845  24.319   1.791  17.259  0.3952  0.1429 -0.0172
38046W        W46846  30.271   7.439  19.689 -0.1895  0.0969  0.0263
38047W        W46847   0.918   6.513  15.583  0.3753 -0.1340  0.0591
38048W        W46848   7.993   6.528  22.541  0.0593 -0.1878  0.1060
38049W        W46849   6.879   1.551   1.773 -0.0494 -0.0474  0.0457
38050W        W46850  23.219   5.552  19.111 -0.2313 -0.1410  0.1673
38051W        W46851  23.191   2.767  18.983 -0.0915  0.2817 -0.1941
38052W        W46852  17.887   4.411   0.118  0.5243  0.2808  0.0300
38053W        W46853  25.865   0.758  17.093  0.2389  0.1007  0.0813
38054W        W46854  25.613   3.925   4.300 -0.2681  0.1046 -0.1658
38055W        W46855  23.077   7.194  22.332  0.1815 -0.0374 -0.2386
38056W        W46856  21.792   4.886  16.523 -0.0769 -0.0525 -0.1691
38057W        W46857  13.806   1.980  16.284 -0.2200  0.0385 -0.0570
38058W        W46858   5.450   2.909   8.924 -0.0445  0.0347 -0.3187
38059W        W46859  10.093   0.732   0.116  0.1282 -0.0650  0.2716
38060W        W46860   9.786   0.334  25.911 -0.0206  0.1691  0.1469
38061W        W46861  27.497   3.624   1.543 -0.0259  0.0042 -0.1095
38062W        W46862  13.741   2.016  18.494  0.0139 -0.0262  0.0483
38063W        W46863  14.235   0.711   3.912  0.2018 -0.2367 -0.0201
38064W        W46864  16.291   1.620  23.219  0.0697  0.0349 -0.0795
38065W        W46865  21.681   1.119  16.156 -0.0557  0.0650 -0.3408
38066W        W46866   3.337   6.363   1.175 -0.0925  0.3444  0.0061
38067W        W46867  14.673   0.700   4.934  0.1352  0.2097 -0.1145
38068W        W46868  25.520   4.895   8.186  0.1797  0.0339 -0.1993
38069W        W46869  14.570   2.171  15.457 -0.1453  0.2144 -0.1363
38070W        W46870  24.327   4.184  22.311  0.0030  0.3582  0.1635
38071W        W46871  23.670   5.467  25.418  0.0201  0.2215 -0.1922
38072W        W46872   6.702   3.882   2.029  0.4187  0.0644  0.2046
38073W        W46873   6.547   3.386  24.660 -0.0198  0.1856  0.0334
38074W        W46874   9.673   4.650  24.410  0.0205  0.1566 -0.6014
38075W        W46875   0.638   4.349   4.864  0.1557 -0.0034  0.2349
38076W        W46876   1.333   4.324   2.030  0.2463  0.1822  0.3054
38077W        W46877  13.209   0.489   4.288 -0.0494 -0.4321  0.0129
38078W        W46878  18.863   5.014   8.707  0.2068  0.0636 -0.2334
38079W        W46879   8.476   7.001  18.206 -0.1167  0.2122 -0.1146
38080W        W46880  20.013   3.793   1.592 -0.0863 -0.0507  0.2953
38081W        W46881  21.778   0.188   5.800 -0.0661 -0.0219 -0.2370
38082W        W46882  24.480   1.837  22.524  0.0105  0.3982  0.2018
38083W        W46883   1.792   4.361   6.377 -0.1892  0.0035  0.1666
38084W        W46884   6.487   5.142  23.679 -0.2217  0.2197  0.0236
38085W        W46885  26.270   4.627  19.793  0.1557  0.2786 -0.1289
38086W        W46886  29.096   1.769  20.071 -0.3412 -0.3383  0.0760
38087W        W46887   2.438   2.900   3.433  0.1093 -0.0557  0.2456
38088W        W46888  25.722   4.234   2.123 -0.1898 -0.2048 -0.1857
38089W        W46889  14.616   0.075   7.640  0.0598 -0.1142  0.0839
38090W        W46890  25.157   5.824  25.718 -0.1150  0.0809 -0.1703
38091W        W46891   6.130   5.031  18.886  0.2365  0.1287 -0.2817
38092W        W46892  22.783   2.543  17.643  0.0490 -0.0684  0.0502
38093W        W46893  14.371   2.842  19.451  0.1109  0.1462 -0.0094
38094W        W46894  18.651   5.646   0.796  0.0841 -0.2096 -0.3865
38095W        W46895  10.596   3.544  24.729  0.0445  0.2098 -0.1478
38096W        W46896  16.336   6.968  17.373  0.3120 -0.0814 -0.0940
38097W        W46897   6.581   1.143   1.592 -0.2409  0.0512 -0.2644
38098W        W46898   3.280   7.747   5.604  0.0357 -0.2177  0.0076
38099W        W46899   3.394   3.622   9.662 -0.2197  0.0247 -0.0269
38100W        W46900  24.419   1.631  23.453  0.2112 -0.2487 -0.2021
38101W        W46901  20.938   2.126  14.950  0.0298  0.0592 -0.3352
38102W        W46902  11.020   2.273  20.001 -0.1856  0.0044  0.1177
38103W        W46903  10.264   1.204  22.891 -0.2200  0.2184 -0.1606
38104W        W46904   4.950   2.926   8.863  0.3881  0.1431  0.2559
38105W        W46905   9.208   1.094   4.800  0.0272  0.0049 -0.0886
38106W        W46906   7.730   3.742  23.556 -0.1192  0.0874 -0.0870
38107W        W46907  27.981   3.857   6.689  0.0023  0.2580  0.0196
38108W        W46908  30.736   6.026  21.604  0.0937 -0.4647 -0.0568
38109W        W46909  26.168   7.230  25.807  0.2952  0.0037  0.1775
38110W        W46910   9.576   3.167  17.838 -0.0803 -0.1607 -0.0276
38111W        W46911   1.748   4.608   9.240  0.2147 -0.1864 -0.1036
38112W        W46912  25.727   1.057  23.339  0.2173 -0.2739  0.3501
38113W        W46913   3.932   4.110  16.417 -0.3110 -0.1520  0.3068
38114W        W46914   4.208   1.232   2.474 -0.0362 -0.0179 -0.0017
38115W        W46915  29.710   3.277  21.101 -0.1513 -0.0336  0.0284
38116W        W46916   3.608   2.555  24.559 -0.0949  0.0162  0.0233
38117W        W46917  20.973   6.259  18.975 -0.0215  0.3616 -0.1812
38118W        W46918   9.884   2.938  15.248 -0.4083  0.0951  0.0025
38119W        W46919  25.470   0.997  22.358  0.0221  0.0850 -0.1587
38120W        W46920  11.169   2.118  21.523 -0.1758  0.1459 -0.0078
38121W        W46921  28.406   7.377   2.160  0.1263 -0.2251  0.3055
38122W        W46922  12.942   4.906  20.829  0.1917  0.1231 -0.2671
38123W        W46923   3.282   5.165  21.593 -0.1505  0.0104  0.1142
38124W        W46924  26.796   5.850  21.002 -0.1718  0.0193 -0.2950
38125W        W46925  12.115   7.695  23.690 -0.0297 -0.1971  0.1607
38126W        W46926  18.062   5.872   4.141  0.1441  0.0897 -0.0326
38127W        W46927  19.646   7.401   3.455  0.2492  0.1599 -0.2707
38128W        W46928  19.985   4.827   0.975  0.0341 -0.2518  0.1379
38129W        W46929   5.726   1.988   2.146  0.0767 -0.1444 -0.0671
38130W        W46930  29.820   3.697  17.550  0.1033  0.0224  0.2305
38131W        W46931  16.012   2.484  23.174  0.4246 -0.0365 -0.2136
38132W        W46932  27.272   5.658  18.365 -0.2729  0.0622  0.3331
38133W        W46933  27.589   0.974  18.234  0.3129 -0.0758  0.0088
38134W        W46934  16.971   4.836   8.919  0.0073 -0.2275  0.0859
38135W        W46935  13.831   1.848  10.446 -0.1791 -0.0729  0.1471
38136W        W46936   6.266   1.044   8.777  0.0329 -0.3715 -0.0489
38137W        W46937  31.170   3.912   0.495  0.0813 -0.1513  0.0587
38138W        W46938  13.458   2.098  21.549 -0.0564  0.0960  0.3612
38139W        W46939  29.783   5.564   1.404 -0.1951 -0.3164 -0.2675
38140W        W46940   8.917   7.526  25.322  0.0689 -0.2873  0.1269
38141W        W46941   6.686   6.266  10.343 -0.2395 -0.2434 -0.1425
38142W        W46942   2.926   1.251   3.907  0.0439 -0.3873 -0.2947
38143W        W46943  23.928   5.059  25.529  0.3223  0.1439  0.0736
38144W        W46944  21.065   1.609   7.623  0.4329  0.2605 -0.2697
38145W        W46945   8.190   2.639   8.351 -0.0679 -0.3205 -0.0062
38146W        W46946  17.404   4.630  22.951  0.3843 -0.1965  0.2107
38147W        W46947  17.035   3.975   9.208  0.4107  0.1852  0.0599
38148W        W46948  28.925   2.042  23.566 -0.2216  0.3613 -0.0928
38149W        W46949  15.188   3.165   9.530  0.2516  0.1714  0.3426
38150W        W46950  26.991   5.402   3.064 -0.0697  0.0758  0.1725
38151W        W46951  13.662   4.110  25.902 -0.2128 -0.3924 -0.5152
38152W        W46952   8.459   4.504  18.856  0.2698  0.1267 -0.0969
38153W        W46953   8.985   2.306  22.222  0.4440  0.0397 -0.1603
38154W        W46954  15.839   5.945  16.654 -0.1012  0.2398  0.0956
38155W        W46955   6.363   2.552   3.197 -0.3441  0.4081  0.1258
38156W        W46956  15.656   4.141  25.472  0.0790  0.0923 -0.2174
38157W        W46957  21.246   5.772   0.962  0.1401  0.1728 -0.1750
38158W        W46958   5.420   0.450  22.427  0.2321 -0.2372  0.1613
38159W        W46959  22.339   7.418   6.116 -0.1493 -0.1238 -0.1549
38160W        W46960   7.503   6.597  21.057 -0.0523 -0.0147  0.0237
38161W        W46961   5.411   5.691  16.802 -0.0400  0.1913 -0.0147
38162W        W46962  14.200   7.669   1.073  0.0835 -0.0452 -0.2221
38163W        W46963  20.731   0.218   8.194 -0.0100  0.0890  0.0092
38164W        W46964   6.071   1.923  25.501 -0.0012  0.1010 -0.0653
38165W        W46965  29.509   1.972  24.345  0.0019  0.0126  0.0075
38166W        W46966  21.248   4.385   1.437  0.0063 -0.0707  0.1441
38167W        W46967   1.687   6.906   0.063 -0.3169 -0.2908  0.0297
38168W        W46968  28.648   4.762   8.359  0.0919 -0.0259 -0.2189
38169W        W46969  25.029   2.173  18.961 -0.3103  0.2481 -0.1444
38170W        W46970  30.604   1.467   7.671 -0.0184 -0.0196  0.0528
38171W        W46971  26.525   4.300  22.662  0.0766  0.3509  0.3624
38172W        W46972   5.566   0.066  22.124 -0.0120  0.2307 -0.1516
38173W        W46973   1.816   3.722   1.352  0.1257 -0.1675  0.2404
38174W        W46974  24.236   0.633   7.005 -0.0811 -0.0117 -0.2108
38175W        W46975  28.424   4.363  17.333 -0.0989  0.1508 -0.4010
38176W        W46976   0.744   2.575  21.789  0.0352 -0.0257  0.0975
38177W        W46977  20.642   0.453   4.752  0.1000 -0.0164 -0.2697
38178W        W46978   3.762   5.922  21.557  0.1447  0.1549  0.1682
38179W        W46979   5.494   6.594  23.067  0.0007  0.1463  0.1953
38180W        W46980  28.642   3.163   1.027 -0.2148  0.0327 -0.0687
38181W        W46981  17.111   0.925  11.029 -0.3355  0.0027  0.4110
38182W        W46982   0.059   6.695   9.202 -0.0490  0.1786 -0.0404
38183W        W46983  13.846   1.313   1.131  0.0477 -0.0859  0.0731
38184W        W46984  22.150   6.203   5.986  0.1209  0.0361  0.4124
38185W        W46985  18.290   1.204   1.610  0.0266  0.1334  0.1238
38186W        W46986  15.800   6.977  20.837 -0.2392 -0.2217  0.1059
38187W        W46987  14.272   5.188  17.093 -0.1535  0.1670 -0.1674
38188W        W46988  21.749   4.239  21.604 -0.0392 -0.0673  0.2118
38189W        W46989   2.931   4.382   5.380 -0.1717  0.2793  0.0050
38190W        W46990   7.301   2.140   7.633  0.1691  0.0321 -0.2574
38191W        W46991  24.554   3.196  19.920 -0.1452  0.0284  0.3323
38192W        W46992  18.285   6.297   4.790 -0.0676 -0.0356 -0.2130
38193W        W46993  26.677   6.922  23.993 -0.0696  0.4618  0.0153
38194W        W46994  24.585   1.903   6.090 -0.0955 -0.3401  0.0622
38195W        W46995  30.790   3.362  16.149 -0.1033  0.3094 -0.2670
38196W        W46996  23.801   5.995   8.549  0.1708 -0.2504 -0.0041
38197W        W46997   8.347   0.753  17.279 -0.0689 -0.0125  0.4472
38198W        W46998  30.522   1.159  21.131 -0.2404 -0.1572  0.3900
38199W        W46999   6.702   6.312   3.827 -0.3099 -0.1753  0.1974
38200W        W47000   3.683   2.617  18.523  0.2034 -0.0710  0.1198
38201W        W47001  14.712   1.998  19.295  0.0648 -0.1696  0.0554
38202W        W47002   1.941   4.236   1.393 -0.2325 -0.0258 -0.3916
38203W        W47003  16.001   6.605  24.396  0.0471 -0.0751 -0.0791
38204W        W47004  13.275   0.601   0.834 -0.2487  0.0363 -0.1260
38205W        W47005  21.845   4.937  14.607 -0.0668  0.2814  0.0833
38206W        W47006   1.702   0.561   4.804 -0.0722 -0.3444  0.1841
38207W        W47007   5.811   3.034   5.118 -0.3204 -0.1057  0.0739
38208W        W47008  13.750   6.010  19.549 -0.1300 -0.1735 -0.1180
38209W        W47009  11.157   6.328  15.670 -0.0411 -0.0567  0.1207
38210W        W47010  10.510   4.270   3.462 -0.1453  0.0681  0.0565
38211W        W47011   0.917   3.345  19.417  0.0532  0.1608 -0.1097
38212W        W47012   9.489   3.453   6.251 -0.1114  0.1710 -0.0630
38213W        W47013  14.026   7.804   4.561 -0.0395 -0.1524 -0.0221
38214W        W47014  20.496   6.876   3.878  0.1082  0.0699 -0.0067
38215W        W47015  24.405   6.981   9.653  0.0063  0.1695 -0.1457
38216W        W47016  14.909   5.421   2.453  0.0211 -0.2392 -0.1953
38217W        W47017  20.572   3.268  24.585 -0.2207 -0.1392  0.1342
38218W        W47018   2.668   3.168  24.155 -0.0747 -0.2943 -0.0825
38219W        W47019  22.360   7.376  20.685 -0.2066  0.0183  0.1934
38220W        W47020   7.721   0.846  21.990 -0.1223  0.2172 -0.0648
38221W        W47021  26.218   7.013  22.266 -0.1103  0.2387 -0.1224
38222W        W47022  21.656   5.560   1.747 -0.2350  0.1616 -0.0496
38223W        W47023   7.693   1.968  25.836 -0.1187  0.0047 -0.2098
38224W        W47024   5.216   5.047   2.557 -0.1615  0.2580 -0.1348
38225W        W47025   5.115   7.663  18.743 -0.2507  0.1809 -0.1481
38226W        W47026  22.220   3.372  25.070  0.0478  0.0810  0.0686
38227W        W47027  28.861   1.110   7.429 -0.2808  0.2439  0.2015
38228W        W47028  24.400   2.066   7.146  0.1470 -0.0823 -0.1409
38229W        W47029  23.570   3.954  23.557 -0.0314 -0.0321 -0.2322
38230W        W47030  28.666   2.695   5.725 -0.1662 -0.1407  0.2102
38231W        W47031  19.598   6.302   9.265 -0.1406  0.0675 -0.1912
38232W        W47032  13.319   2.295  25.306  0.0929 -0.0153  0.1101
38233W        W47033   5.602   6.152  18.293  0.0762  0.2816  0.0418
38234W        W47034   3.844   2.069   9.941  0.0037  0.3063 -0.0265
38235W        W47035  15.280   5.829   7.361 -0.1336 -0.1216  0.0198
38236W        W47036  14.663   3.627   4.833 -0.1878 -0.6664  0.2706
38237W        W47037  17.951   3.241  23.890 -0.2190  0.2580  0.1050
38238W        W47038  24.147   0.875   4.134 -0.0394 -0.3646  0.0441
38239W        W47039   1.439   1.548   6.367  0.2155  0.0248 -0.0047
38240W        W47040   9.775   4.438  10.265  0.2968 -0.0966  0.2943
38241W        W47041   8.627   5.539  15.798  0.0969 -0.0264 -0.0500
38242W        W47042  19.622   6.201  25.648 -0.0969  0.4590 -0.2878
38243W        W47043  12.625   0.940  21.012  0.0961  0.0792  0.0130
38244W        W47044  14.690   1.372  20.468  0.1869 -0.1573  0.1956
38245W        W47045  26.227   2.986   9.191 -0.0927 -0.0908 -0.0268
38246W        W47046   2.230   0.102   8.438  0.3051 -0.0788 -0.2756
38247W        W47047   5.962   5.723  16.770 -0.5424 -0.0607 -0.1057
38248W        W47048  30.408   0.126  16.846 -0.0268 -0.0429  0.0111
38249W        W47049  14.285   7.565  16.678 -0.0997  0.1741  0.1625
38250W        W47050  17.210   7.669  20.307 -0.0757 -0.1007  0.0511
38251W        W47051   6.040   1.160   2.720 -0.2976 -0.1100 -0.2552
38252W        W47052  22.216   5.712  24.169  0.2486  0.2396 -0.1239
38253W        W47053  23.816   5.436  23.701 -0.0231 -0.3670 -0.1695
38254W        W47054  10.094   7.285   7.592 -0.2708  0.1051 -0.0948
38255W        W47055   9.584   2.177  24.934  0.3729  0.0628  0.0290
38256W        W47056   1.454   1.369   5.914  0.1601 -0.0346 -0.0375
38257W        W47057  15.443   1.423  18.808  0.1216 -0.1604 -0.0955
38258W        W47058  16.921   3.005   1.425  0.2746  0.0305 -0.0975
38259W        W47059   5.347   2.021   9.438 -0.1746 -0.1391  0.0250
38260W        W47060  24.337   7.486   2.203  0.0333  0.0210  0.2124
38261W        W47061  13.402   1.224  10.488  0.0128  0.0486  0.0302
38262W        W47062  21.277   6.705  20.841 -0.1994 -0.2149  0.3482
38263W        W47063   1.890   1.449  23.559 -0.0301  0.0680 -0.1963
38264W        W47064   0.325   7.388  22.046 -0.2610  0.0715  0.1322
38265W        W47065  10.427   6.343   9.361  0.0517 -0.0709  0.0147
38266W        W47066   3.584   4.079   3.744 -0.2915 -0.0901 -0.1363
38267W        W47067   9.063   4.420  19.511  0.1058 -0.0733 -0.3060
38268W        W47068   7.006   0.762   8.557 -0.1316  0.1188  0.0831
38269W        W47069   5.031   5.450   0.999  0.3200 -0.1250  0.0033
38270W        W47070   9.080   2.660  24.665 -0.0492 -0.0736  0.0139
38271W        W47071  30.130   5.527  12.100  0.0959  0.1828  0.1596
38272W        W47072  17.450   3.682   8.617 -0.3179 -0.0402 -0.2024
38273W        W47073  13.035   6.257  18.891 -0.0552 -0.3146 -0.1154
38274W        W47074  26.388   6.170   4.136 -0.2644 -0.0420 -0.2091
38275W        W47075   2.379   1.751  18.494 -0.1279  0.0363  0.3768
38276W        W47076  29.650   3.284  10.133 -0.1191  0.1071  0.1478
38277W        W47077  27.556   2.908   3.864  0.0221 -0.4579 -0.1536
38278W        W47078   3.023   4.857  20.820 -0.0679  0.3060 -0.3707
38279W        W47079  13.998   3.839  19.929  0.0693 -0.0900  0.0688
38280W        W47080   2.745   0.379   7.826 -0.0815  0.0431  0.0086
38281W        W47081   4.921   5.618  18.141 -0.0512 -0.2232 -0.0247
38282W        W47082  24.650   5.597   9.064  0.1472 -0.2529  0.0812
38283W        W47083  21.323   5.362   8.985  0.0713 -0.1240 -0.1330
38284W        W47084  22.776   4.749   0.171  0.0896  0.0320 -0.0070
38285W        W47085   9.831   1.333   9.034  0.2744  0.1997 -0.0110
38286W        W47086   6.729   3.917   4.974  0.1052 -0.1103 -0.1571
38287W        W47087  28.175   2.868  10.541  0.0897 -0.1577  0.0743
38288W        W47088  23.252   7.218  24.043 -0.0137  0.1454  0.0597
38289W        W47089  22.547   0.428  19.584 -0.4851 -0.2081  0.0373
38290W        W47090  21.069   4.195  24.161  0.1173  0.0543 -0.1918
38291W        W47091   9.428   3.533   9.200  0.1846  0.2884  0.0955
38292W        W47092   7.549   5.375   3.266  0.0778 -0.1601  0.0322
38293W        W47093  20.605   1.779  10.274  0.0985 -0.1391 -0.2377
38294W        W47094  28.841   3.144  15.089  0.0430  0.2239 -0.1028
38295W        W47095  18.110   6.744   2.970 -0.0425  0.2085 -0.1465
38296W        W47096  23.101   2.715  23.262 -0.0076  0.2969  0.2793
38297W        W47097   8.604   7.754   6.140 -0.2842 -0.1155 -0.1515
38298W        W47098  30.248   4.934   9.531 -0.2170  0.0689 -0.0541
38299W        W47099  30.785   3.402  19.510 -0.2235  0.0936  0.2499
38300W        W47100  24.130   5.554  22.505  0.2732  0.1986  0.1220
38301W        W47101  27.548   0.620   0.305 -0.0157  0.0558  0.1233
38302W        W47102   9.867   6.232  21.169  0.1972 -0.0007  0.1437
38303W        W47103  19.630   7.449  10.176 -0.2569 -0.0832 -0.2935
38304W        W47104  15.913   1.719  10.834 -0.1367  0.0846 -0.0576
38305W        W47105   8.123   2.445  16.698  0.1863 -0.0751 -0.1061
38306W        W47106  27.649   4.646  17.637  0.0211  0.0622  0.0705
38307W        W47107  22.343   5.309   9.418 -0.0430 -0.1826 -0.3562
38308W        W47108  12.188   7.545   1.895 -0.1092 -0.0607 -0.2773
38309W        W47109  26.459   1.663   8.815  0.0259 -0.0006 -0.1586
38310W        W47110  28.214   4.076  24.939 -0.0181  0.2178 -0.3669
38311W        W47111  21.375   4.304  10.642 -0.0042 -0.2466 -0.1398
38312W        W47112  17.264   2.758   2.787 -0.0979 -0.1198  0.0272
38313W        W47113   1.595   1.190  24.410 -0.2115  0.3007  0.0283
38314W        W47114  17.800   6.587   3.494 -0.0153  0.0536 -0.1733
38315W        W47115  29.013   5.885   2.298  0.1439  0.3901  0.1774
38316W        W47116  22.646   1.250  23.155  0.1294  0.0074 -0.0235
38317W        W47117  12.057   2.124   7.735 -0.0294 -0.0703  0.1621
38318W        W47118  20.630   2.404   6.357 -0.0933  0.0077  0.0911
38319W        W47119  13.894   3.387  20.642  0.0174 -0.0456 -0.0338
38320W        W47120  29.842   0.706  21.319 -0.0183  0.0944 -0.1082
38321W        W47121  24.660   2.576   9.608 -0.1988 -0.0171 -0.0844
38322W        W47122  17.074   2.621  25.622  0.2248  0.1415  0.0448
38323W        W47123  28.749   1.042  10.130 -0.2106 -0.0117  0.0920
38324W        W47124   0.700   3.635  16.243 -0.1030 -0.1070  0.1072
38325W        W47125  15.870   0.113  18.112 -0.3407 -0.0665  0.1395
38326W        W47126  24.060   7.107   6.146  0.0334  0.2311  0.1431
38327W        W47127  23.873   1.615  18.922 -0.0439 -0.1674  0.1049
38328W        W47128   3.795   0.139   2.926  0.1227 -0.3088  0.0729
38329W        W47129  26.119   6.529  15.173 -0.1398  0.3104 -0.1986
38330W        W47130   7.914   4.963   1.947 -0.3324  0.2040  0.2180
38331W        W47131  18.546   1.111   6.062  0.0131  0.0509 -0.0190
38332W        W47132   7.289   4.785  24.799  0.3059 -0.2307  0.2261
38333W        W47133  29.094   0.274  10.201  0.4303  0.0366 -0.1914
38334W        W47134   6.421   6.271  15.592 -0.1005  0.0226 -0.2735
38335W        W47135  21.832   6.460  16.142  0.2951  0.0196  0.2076
38336W        W47136   1.408   0.313  16.201  0.1137  0.0858 -0.1375
38337W        W47137  28.287   7.467   6.062 -0.3734  0.1655 -0.4820
38338W        W47138  19.526   5.802  21.903  0.1408  0.2530 -0.0404
38339W        W47139   3.078   4.134   9.240 -0.0421  0.0205  0.1917
38340W        W47140  23.028   5.814  25.708 -0.0561 -0.0495  0.0214
38341W        W47141  27.038   2.456   7.257 -0.2990  0.0524  0.0819
38342W        W47142  26.759   3.361  23.483 -0.0426 -0.0965  0.2486
38343W        W47143   5.640   7.306   8.948  0.0598 -0.1731 -0.0832
38344W        W47144  20.854   4.574   0.949  0.1627 -0.1307 -0.3415
38345W        W47145   9.138   1.560   8.853 -0.0809 -0.2363 -0.1033
38346W        W47146  10.621   1.850   9.689  0.0330  0.0168  0.1319
38347W        W47147  23.929   2.683  23.288  0.0955  0.1988  0.2682
38348W        W47148   7.222   2.138   2.722 -0.1362  0.2070 -0.0055
38349W        W47149  13.790   3.643   0.039 -0.0252  0.0360  0.0667
38350W        W47150  11.525   5.592   1.124  0.1186 -0.0921 -0.2900
38351W        W47151  11.669   5.102   1.393 -0.0621 -0.0765  0.1381
38352W        W47152  17.076   2.651  17.576  0.0030  0.0173 -0.1011
38353W        W47153   8.513   7.484  21.078  0.1140  0.0380  0.0808
38354W        W47154  30.974   0.256  25.230  0.1938 -0.1037 -0.0107
38355W        W47155  28.164   6.595  25.809 -0.0497  0.1694 -0.0661
38356W        W47156  21.823   2.252  25.645  0.1262  0.1032  0.4136
38357W        W47157   3.328   3.188  17.667  0.0249  0.0826 -0.0753
38358W        W47158   0.857   7.608   2.541  0.1143  0.1996 -0.1618
38359W        W47159  16.599   3.597  22.391  0.0598  0.0099 -0.3272
38360W        W47160  28.557   4.348   2.531 -0.2345 -0.0493 -0.2233
38361W        W47161   5.907   3.759  22.620  0.1025  0.0703  0.1490
38362W        W47162   3.985   0.976  18.331 -0.3151 -0.0058  0.4214
38363W        W47163   7.067   6.072   7.134 -0.0637  0.2114  0.0896
38364W        W47164   3.399   7.536   9.506 -0.1204 -0.0250  0.0215
38365W        W47165   9.734   0.056   8.731 -0.0178 -0.1547  0.3859
38366W        W47166  12.403   0.475  24.410 -0.0752 -0.4167 -0.0569
38367W        W47167  25.909   2.503  22.119  0.1785 -0.2210 -0.0106
38368W        W47168   6.642   6.629  26.152 -0.1453  0.1198  0.1054
38369W        W47169  22.983   5.163  15.216 -0.0433  0.0537 -0.1304
38370W        W47170  19.023   4.832   3.674 -0.0941  0.0286 -0.0196
38371W        W47171   1.355   4.842   4.008 -0.1023  0.1554 -0.2557
38372W        W47172   1.333   2.314  16.271 -0.3103 -0.0506 -0.0788
38373W        W47173  28.865   1.330  17.056 -0.2213 -0.2762  0.0891
38374W        W47174  17.728   4.357  23.932 -0.0006 -0.1497 -0.0613
38375W        W47175  31.126   3.273  17.213 -0.2608  0.3357 -0.0024
38376W        W47176  20.798   5.074  16.434  0.0944  0.2300  0.3632
38377W        W47177  22.618   5.677   3.220 -0.3362  0.1476  0.0108
38378W        W47178   9.386   2.349  23.141 -0.1234  0.0739 -0.0471
38379W        W47179   4.859   2.732   5.626  0.0042  0.0817 -0.0142
38380W        W47180   7.634   4.801   0.915  0.4056 -0.5131 -0.1370
38381W        W47181   0.897   7.760  17.431  0.0256 -0.0620  0.1582
38382W        W47182   1.640   4.299   8.831  0.0755  0.0653  0.2974
38383W        W47183  20.299   4.732  10.088 -0.1264  0.0610  0.0135
38384W        W47184  10.538   7.547   9.344 -0.0561  0.0345 -0.1559
38385W        W47185  29.279   2.688   3.210 -0.2236  0.0008 -0.0448
38386W        W47186  12.211   2.083  14.759 -0.0285 -0.2047 -0.1795
38387W        W47187  26.126   4.216  23.618 -0.1431 -0.1888  0.6040
38388W        W47188   5.105   1.448  21.721 -0.1639  0.0807  0.3240
38389W        W47189   1.918   4.773  10.738  0.2079 -0.0345 -0.2042
38390W        W47190  16.187   3.923  23.268  0.1520 -0.1167 -0.1982
38391W        W47191  27.998   3.309  18.534 -0.0517 -0.2238  0.1761
38392W        W47192   7.428   2.303  26.115  0.2614  0.0799 -0.0195
38393W        W47193  30.841   3.560   0.832 -0.0138 -0.1448  0.0379
38394W        W47194  25.311   7.039   7.914 -0.1577 -0.1879  0.0196
38395W        W47195  13.260   0.224  19.572 -0.0389 -0.2835  0.1370
38396W        W47196  11.239   1.792  15.578 -0.0430  0.1007 -0.2484
38397W        W47197  16.605   5.639   8.002 -0.0151  0.2434  0.0692
38398W        W47198  14.204   4.430   8.967 -0.0107 -0.1398  0.1138
38399W        W47199  31.162   5.466  10.266  0.1850 -0.2016 -0.0643
38400W        W47200  27.913   3.399   3.390 -0.0029 -0.1067 -0.1825
38401W        W47201  28.746   4.296  20.718  0.3158  0.1707  0.2562
38402W        W47202  29.377   0.787  18.724  0.1122  0.0047  0.4659
38403W        W47203   0.687   3.438   4.442 -0.0766  0.1605  0.1916
38404W        W47204   0.829   7.472   8.444  0.0587  0.0628 -0.0237
38405W        W47205  31.274   6.497  25.142 -0.0318 -0.1867  0.3568
38406W        W47206  29.983   1.641  22.288 -0.0919  0.0027  0.0236
38407W        W47207  19.323   1.645   0.083  0.0400  0.1051  0.1697
38408W        W47208  25.401   0.889  21.151  0.1310 -0.0581 -0.2082
38409W        W47209  16.196   0.582  18.214  0.2964  0.0296 -0.0919
38410W        W47210  20.000   4.628  17.521 -0.2091  0.0154  0.1364
38411W        W47211  26.641   0.676  24.926 -0.0262 -0.2897  0.1140
38412W        W47212  23.777   2.722  10.563 -0.0323 -0.0305  0.1870
38413W        W47213   6.307   0.598   2.377  0.5762 -0.1496 -0.3947
38414W        W47214   8.286   7.501  10.120  0.2353  0.1113 -0.3946
38415W        W47215  12.229   7.504   6.331  0.0085  0.2242  0.2223
38416W        W47216  29.896   4.374   8.519 -0.1067  0.1303 -0.2447
38417W        W47217  23.071   2.872  10.958 -0.0453 -0.2238 -0.0875
38418W        W47218  24.246   5.810  18.997  0.0702 -0.1666 -0.3873
38419W        W47219  12.031   7.122  25.618 -0.0504  0.1595  0.1454
38420W        W47220  21.505   3.539   4.482 -0.2175  0.2036  0.1164
38421W        W47221  28.345   7.730   1.561 -0.2468  0.0384  0.2313
38422W        W47222  17.016   1.261  22.810  0.2718  0.0437  0.0416
38423W        W47223   8.523   4.191  16.205 -0.1888  0.1654  0.2678
38424W        W47224  12.428   6.421  23.237 -0.1442  0.2040 -0.1555
38425W        W47225   0.722   4.972   0.197 -0.0037  0.2469 -0.1429
38426W        W47226  14.572   7.778  10.061 -0.2057 -0.1778  0.0392
38427W        W47227   4.377   6.842   6.016 -0.0334 -0.0873  0.0032
38428W        W47228  19.054   3.393  10.334 -0.0691  0.1378 -0.0014
38429W        W47229  13.509   5.317  23.396  0.1782  0.0294 -0.2614
38430W        W47230   6.967   2.339   9.158  0.0711  0.0893 -0.0110
38431W        W47231  15.583   0.507   5.447 -0.1575  0.1711  0.1469
38432W        W47232  13.103   6.037  22.783  0.1616  0.3074 -0.0239
38433W        W47233   3.688   6.134  18.379  0.3005  0.3355 -0.0568
38434W        W47234   9.198   4.072  10.690 -0.1646 -0.1968 -0.1088
38435W        W47235  12.682   5.346   4.320  0.0885  0.1346 -0.0454
38436W        W47236  10.168   6.310  17.965 -0.1790  0.0999  0.2448
38437W        W47237  27.181   0.815   9.445  0.0079 -0.1261 -0.0318
38438W        W47238   7.739   2.933  22.881 -0.2991 -0.1180 -0.0114
38439W        W47239  27.075   7.076   6.072 -0.1358  0.0030 -0.0128
38440W        W47240  10.490   2.556   7.493 -0.2996  0.0652 -0.3316
38441W        W47241   0.231   3.157   9.862  0.0789 -0.0620  0.0445
38442W        W47242  18.861   7.328  16.977 -0.0859 -0.1299  0.1626
38443W        W47243  18.411   3.763  26.065  0.1045  0.1200 -0.0538
38444W        W47244  30.940   1.307   9.601  0.2274  0.1504 -0.0860
38445W        W47245  27.458   2.026  17.241 -0.0354  0.1773 -0.1980
38446W        W47246  21.631   5.564  21.401 -0.1756 -0.0027 -0.0002
38447W        W47247  20.279   2.746   6.227  0.0141 -0.2075 -0.2218
38448W        W47248  27.554   5.061  20.700  0.0221 -0.0094  0.1614
38449W        W47249  24.656   4.408   8.766  0.4270  0.1072 -0.2502
38450W        W47250  31.022   0.128  16.002 -0.0152 -0.1496  0.1427
38451W        W47251  26.753   1.572  24.336  0.1033 -0.0857  0.0364
38452W        W47252   7.436   2.108  25.012 -0.0591 -0.3741 -0.3185
38453W        W47253   4.672   1.797  10.564 -0.0162  0.0689  0.1218
38454W        W47254  24.326   3.583   8.693  0.0645  0.0193  0.0990
38455W        W47255  16.861   1.554   0.867 -0.1065  0.0712 -0.0470
38456W        W47256  25.063   3.602   9.638  0.0543  0.0754  0.0243
38457W        W47257  12.306   1.425  26.078 -0.0841  0.2825  0.0043
38458W        W47258  10.914   1.637   3.717  0.0533 -0.1942 -0.0537
38459W        W47259  11.918   6.931   9.859 -0.2423 -0.1184 -0.0266
38460W        W47260  18.310   0.032  15.044 -0.0134 -0.3651  0.0959
38461W        W47261  17.692   2.763   0.606 -0.0269  0.2309  0.2655
38462W        W47262  25.085   6.843   5.870 -0.1283  0.1182 -0.2132
38463W        W47263  26.324   0.876   5.027 -0.2971  0.1581  0.3558
38464W        W47264  24.889   1.985  18.492  0.0858 -0.0415 -0.0987
38465W        W47265  15.175   4.733  21.109  0.1320 -0.0688 -0.0365
38466W        W47266   7.954   1.721  19.154 -0.1899 -0.1416 -0.4882
38467W        W47267   6.366   3.126  18.767 -0.1634  0.0960 -0.0496
38468W        W47268  21.954   7.229  22.927  0.0019 -0.0478  0.0649
38469W        W47269  11.745   1.440  22.722  0.2412  0.5409  0.1585
38470W        W47270   1.732   6.605  17.090 -0.1453  0.0387  0.0230
38471W        W47271  11.233   2.133  24.686 -0.0207  0.2324  0.1720
38472W        W47272  19.741   7.684   8.560  0.1155 -0.0730  0.0071
38473W        W47273   1.178   1.096  18.217 -0.0289 -0.0440 -0.1159
38474W        W47274   9.020   4.614  22.779  0.0725  0.3006  0.0480
38475W        W47275  23.183   0.114  23.004  0.2023 -0.0243 -0.0089
38476W        W47276  29.433   3.234   8.519  0.0687  0.0375  0.0215
38477W        W47277  14.311   1.623  10.363 -0.1233  0.0921  0.0794
38478W        W47278  11.953   3.248  11.335  0.1269  0.3094 -0.0905
38479W        W47279   9.076   2.177   9.558 -0.0165  0.0453 -0.0933
38480W        W47280  23.150   1.731   5.677 -0.3274  0.2142 -0.0154
38481W        W47281  31.135   3.852   4.707 -0.1119  0.1194  0.0163
38482W        W47282  30.039   7.551  24.438  0.0196  0.1447  0.3391
38483W        W47283  11.970   0.426  21.216  0.1050  0.0300  0.0418
38484W        W47284   9.255   1.977  16.331  0.0965 -0.2032 -0.3006
38485W        W47285  28.944   5.220   4.673  0.1814 -0.3743 -0.0099
38486W        W47286  17.502   2.613  25.368  0.1708  0.5494 -0.1916
38487W        W47287   8.013   6.691  18.324 -0.3654  0.0114 -0.1020
38488W        W47288  22.962   4.697   8.245  0.0608  0.0752  0.2213
38489W        W47289  18.411   5.817   3.248 -0.1422  0.0661  0.3569
38490W        W47290  21.510   1.330  18.834 -0.1129  0.1044  0.0890
38491W        W47291  21.958   4.721  18.451 -0.0406  0.2269  0.3285
38492W        W47292  19.338   7.388   5.741  0.1278  0.0248  0.0784
38493W        W47293  21.235   2.659   9.542  0.1799  0.2208  0.0608
38494W        W47294   5.216   4.985   5.326  0.1102 -0.0350 -0.0504
38495W        W47295  18.138   3.233  15.177  0.0728  0.0858 -0.0117
38496W        W47296  13.752   1.002  25.315 -0.0556  0.2465 -0.4227
38497W        W47297  29.325   4.582  21.564  0.0395 -0.1361  0.0260
38498W        W47298   7.323   7.610  20.077  0.0545 -0.2253  0.2257
38499W        W47299   2.209   1.368   8.960  0.1901  0.2234  0.0676
38500W        W47300  20.277   0.466   1.367 -0.0081 -0.1474  0.1539
38501W        W47301  13.584   2.468   7.618 -0.0733  0.2086 -0.2376
38502W        W47302  29.513   1.378   7.423  0.3678  0.0260 -0.0793
38503W        W47303  17.933   5.923  16.937  0.0401  0.1762  0.1742
38504W        W47304  28.473   3.330  20.483  0.2968 -0.0209  0.3546
38505W        W47305  18.424   6.287  24.903 -0.1086  0.1500  0.1355
38506W        W47306  19.251   3.782   9.198  0.0147 -0.1463 -0.2592
38507W        W47307  12.203   7.333  11.073 -0.2550  0.3200  0.2801
38508W        W47308  10.031   4.711  20.875  0.0639 -0.0625  0.0116
38509W        W47309  25.485   2.797  21.876 -0.1999 -0.0281  0.1723
38510W        W47310  10.274   3.142  16.644 -0.4211 -0.1705 -0.5210
38511W        W47311  25.038   0.736  23.666  0.0966  0.0280  0.0459
38512W        W47312  11.366   7.553  18.542  0.0308 -0.2161 -0.1888
38513W        W47313  22.615   4.270   4.543 -0.1680 -0.0847 -0.0198
38514W        W47314   7.859   0.220  17.933  0.0409  0.1359  0.0160
38515W        W47315  24.187   6.980  19.376  0.2807 -0.2948 -0.3696
38516W        W47316  13.161   4.355  17.341  0.0762  0.0211 -0.0240
38517W        W47317  19.666   6.542  10.309 -0.0984 -0.3554  0.0324
38518W        W47318   2.706   1.263  18.366 -0.1166  0.1463  0.2288
38519W        W47319   2.543   2.182   7.861  0.1392  0.1055  0.2005
38520W        W47320   4.244   5.617  10.307  0.3278  0.1816 -0.1710
38521W        W47321  16.034   7.809   5.646 -0.0825 -0.0363  0.1007
38522W        W47322   9.347   0.184  25.683  0.1373  0.2403 -0.0689
38523W        W47323  12.777   2.044   8.337  0.0659  0.0425  0.2437
38524W        W47324   1.776   7.786   4.113  0.0041  0.1499  0.4006
38525W        W47325  23.992   6.107  10.363 -0.2035  0.1635 -0.0192
38526W        W47326  29.053   5.511   1.406  0.0475 -0.2020 -0.0036
38527W        W47327  25.787   5.904   7.324  0.1318  0.1817  0.1223
38528W        W47328  30.880   6.036  18.831 -0.3093 -0.0340 -0.1747
38529W        W47329   0.203   2.701   5.920  0.0118  0.3539 -0.0014
38530W        W47330  29.727   6.710  21.367 -0.2692 -0.4141 -0.2178
38531W        W47331   6.164   2.783  25.215 -0.0357 -0.0523  0.0273
38532W        W47332  22.937   5.161  19.024  0.0156 -0.1244  0.1231
38533W        W47333   6.890   5.636  24.826  0.0238 -0.0813 -0.4513
38534W        W47334  21.832   1.611   1.809 -0.0292 -0.2523  0.3290
38535W        W47335  11.152   6.220   2.035 -0.0447  0.3272  0.1112
38536W        W47336  26.026   6.030   1.589 -0.0390  0.3110 -0.0500
38537W        W47337  11.510   5.932   4.619  0.0621  0.0444  0.0328
38538W        W47338   0.106   6.684   7.374 -0.0093 -0.1451 -0.1346
38539W        W47339  13.778   6.014   4.147  0.2266 -0.1083 -0.2524
38540W        W47340  27.571   3.058   7.705  0.0864  0.0081  0.2996
38541W        W47341   0.604   6.576   7.625  0.0087 -0.1352  0.1739
38542W        W47342  15.232   6.274   5.207 -0.1255  0.0086 -0.2175
38543W        W47343  31.163   3.491  20.812  0.0189 -0.0824  0.0855
38544W        W47344   0.240   6.153  17.472  0.0791  0.0745  0.0612
38545W        W47345   6.331   3.856   5.881  0.2073 -0.0418 -0.2376
38546W        W47346  12.404   6.219   0.176 -0.2689 -0.2571 -0.1393
38547W        W47347  16.112   1.571   3.088  0.2835  0.1544 -0.1097
38548W        W47348  24.818   6.423   9.145  0.1092 -0.1658 -0.2921
38549W        W47349  20.983   3.102   6.707  0.1593 -0.1757  0.0344
38550W        W47350  14.171   0.233  25.561 -0.0291  0.3750 -0.2333
38551W        W47351   6.230   2.981  24.767  0.1080  0.4419  0.0215
38552W        W47352   2.745   6.293   6.109 -0.0068  0.0383  0.0616
38553W        W47353  11.886   3.151  19.469  0.0326  0.0855 -0.0907
38554W        W47354  12.510   3.747   7.636 -0.1717  0.3815 -0.0941
38555W        W47355   1.119   0.426   2.927  0.0197 -0.0155 -0.3322
38556W        W47356   8.629   3.101  23.610 -0.1198 -0.1366 -0.0125
38557W        W47357  16.123   1.918  21.850  0.0835 -0.0127 -0.0580
38558W        W47358  15.857   5.953  22.853 -0.0130  0.0557  0.1458
38559W        W47359  23.440   1.637  10.537  0.0683 -0.0684 -0.0897
38560W        W47360  22.719   3.729  20.657  0.0416  0.1630 -0.0728
38561W        W47361  18.092   5.692  19.971 -0.1364  0.0097 -0.1181
38562W        W47362  10.912   2.139  25.533 -0.0730 -0.0116 -0.0735
38563W        W47363   8.463   6.005  15.629 -0.1966  0.0783  0.2009
38564W        W47364  18.880   7.181   4.032  0.1557  0.0949 -0.0955
38565W        W47365  22.406   5.718  15.948  0.0066 -0.1952  0.2497
38566W        W47366  17.847   0.178   9.169  0.0003 -0.0708  0.0662
38567W        W47367  20.655   5.063  10.256  0.2954  0.0216 -0.2158
38568W        W47368  21.489   7.585   8.727  0.1005  0.2712 -0.1757
38569W        W47369  16.955   6.604  21.733  0.0212 -0.1069 -0.0746
38570W        W47370  30.588   5.791   9.680  0.1042  0.0889 -0.2420
38571W        W47371   0.638   4.089   3.226  0.2247 -0.0522 -0.0940
38572W        W47372   2.426   4.157   8.090  0.1127 -0.1396  0.0925
38573W        W47373  14.351   0.348  15.900 -0.0276  0.0085  0.1219
38574W        W47374  29.077   1.507   5.565  0.1391  0.0878 -0.3381
38575W        W47375  30.485   2.551  25.933  0.2041 -0.2014 -0.3432
38576W        W47376   2.261   1.394  17.883  0.0469 -0.1544 -0.0126
38577W        W47377  23.323   0.194   3.323  0.0247  0.0418 -0.3329
38578W        W47378   5.407   4.571  25.554 -0.0678  0.1216 -0.0272
38579W        W47379   2.273   6.323   7.438 -0.1471  0.0195 -0.2130
38580W        W47380  17.733   2.115   0.614  0.3133  0.0684 -0.2076
38581W        W47381  22.857   6.032   9.759  0.1597  0.3006  0.0046
38582W        W47382  16.562   2.159   4.614  0.1649 -0.2536 -0.1094
38583W        W47383   8.128   5.596   9.692  0.1364 -0.3193  0.0009
38584W        W47384   7.814   5.008   3.634  0.1428  0.1200 -0.0856
38585W        W47385  11.926   6.933  20.291  0.1239 -0.0436 -0.1788
38586W        W47386   7.679   3.820  25.682  0.1006 -0.2667 -0.2476
38587W        W47387   4.326   4.558   4.766 -0.0182 -0.1573  0.0875
38588W        W47388  28.936   3.609   5.817 -0.3183  0.1196  0.2166
38589W        W47389  14.384   1.770   4.458  0.1364 -0.3001 -0.0812
38590W        W47390   2.839   6.010   4.233 -0.2403 -0.0793  0.1120
38591W        W47391   1.882   7.450   5.908  0.1608  0.1308  0.0290
38592W        W47392   6.993   4.875   7.339  0.0506 -0.0509  0.2138
38593W        W47393  14.053   3.295  18.339  0.1469 -0.4658 -0.0407
38594W        W47394  28.474   6.579  17.773 -0.0499  0.1367  0.2021
38595W        W47395  10.680   2.314   0.491 -0.0349 -0.0520  0.0619
38596W        W47396  13.961   1.959   4.118  0.2126 -0.0317 -0.1063
38597W        W47397   7.049   5.714  19.092  0.0477 -0.1201 -0.2755
38598W        W47398  29.039   6.928   4.893  0.0799 -0.0485  0.0319
38599W        W47399  25.644   6.045   2.370  0.0595 -0.0497 -0.1238
38600W        W47400   0.691   4.074   7.611  0.0439  0.2431 -0.1148
38601W        W47401   3.761   7.273  25.761 -0.0401 -0.0812 -0.2544
38602W        W47402   6.279   4.839  19.921  0.2145 -0.1854 -0.1156
38603W        W47403  30.711   4.676   5.513  0.2150  0.1452 -0.0246
38604W        W47404  23.455   3.833  25.971 -0.1013  0.0772  0.2479
38605W        W47405  24.512   2.830   5.819  0.3497  0.1514 -0.1108
38606W        W47406  29.256   6.462   2.957 -0.0547 -0.2042  0.2536
38607W        W47407   2.402   2.820  18.988  0.0477 -0.0289 -0.2509
38608W        W47408   6.402   5.988  19.032  0.0320 -0.1358 -0.1086
38609W        W47409   2.622   4.945  16.661 -0.1531  0.0089  0.0553
38610W        W47410  17.007   6.301   4.965 -0.0754  0.0324 -0.2947
38611W        W47411  22.762   0.501   2.218 -0.0484  0.2070  0.2527
38612W        W47412  22.616   2.630   9.129 -0.0574 -0.1588 -0.0679
38613W        W47413   3.116   1.371   4.574 -0.0431 -0.2734  0.1101
38614W        W47414  17.379   1.129   9.262 -0.0271  0.0063  0.0613
38615W        W47415  26.898   4.111   7.766 -0.3078  0.3081 -0.1277
38616W        W47416  21.042   2.731  10.556 -0.0928 -0.1416 -0.2741
38617W        W47417  20.017   1.640   1.675  0.1449  0.0887  0.0238
38618W        W47418  19.941   4.000  23.146  0.0342  0.2277 -0.1652
38619W        W47419  27.490   1.957   9.719  0.3142  0.1814  0.3969
38620W        W47420  11.369   7.060   8.201 -0.1231 -0.1507  0.1909
38621W        W47421  25.894   7.163  23.061 -0.1061  0.0168  0.1370
38622W        W47422  13.772   3.022  18.695  0.2384 -0.2520 -0.2395
38623W        W47423  26.943   7.624  22.511  0.2777  0.1830 -0.0910
38624W        W47424  15.129   5.928  25.889 -0.1347  0.0956 -0.0526
38625W        W47425  14.132   4.093  23.352  0.1631 -0.0074 -0.1948
38626W        W47426  23.634   3.026  18.896  0.0289 -0.0229 -0.0478
38627W        W47427   4.899   7.520  18.299  0.1124 -0.0671 -0.2744
38628W        W47428  18.618   5.917  21.249 -0.0717  0.0262  0.1221
38629W        W47429  19.155   6.157  18.815 -0.0704  0.0641 -0.1499
38630W        W47430  31.120   0.945  19.913 -0.0008 -0.2381 -0.1450
38631W        W47431   9.006   3.690   5.144 -0.0661  0.2517 -0.0771
38632W        W47432  17.340   3.016  25.238 -0.4001 -0.2073 -0.0373
38633W        W47433  29.831   0.912   4.335  0.1891  0.1234 -0.1361
38634W        W47434  28.881   6.581  11.823  0.1316  0.2507 -0.0094
38635W        W47435   2.295   6.307  23.746  0.0680  0.1572  0.0834
38636W        W47436  11.627   7.772   3.709 -0.0559  0.1273  0.0215
38637W        W47437  25.406   0.935  16.259  0.0933 -0.1879  0.0947
38638W        W47438  27.110   7.049  16.110 -0.1471  0.2564 -0.2155
38639W        W47439  22.791   5.086   8.829  0.0129 -0.3632  0.1754
38640W        W47440  12.818   0.720   0.682  0.1130  0.1023 -0.1260
38641W        W47441  10.333   5.055  10.704 -0.0522 -0.1962  0.4139
38642W        W47442  29.183   7.072   2.238  0.1172  0.0988 -0.1299
38643W        W47443  20.407   2.056  22.540  0.2155 -0.3046 -0.2777
38644W        W47444  15.653   5.509  14.668  0.1839 -0.0740  0.4236
38645W        W47445   6.248   0.745  20.348  0.2112  0.1128 -0.0547
38646W        W47446  10.151   5.680   1.216  0.0400 -0.0925  0.1871
38647W        W47447  24.237   5.596  17.717  0.4464 -0.0846 -0.0300
38648W        W47448  10.749   0.164   4.185 -0.2417  0.2388  0.2831
38649W        W47449  17.107   2.599   1.606 -0.0261 -0.1020 -0.0408
38650W        W47450  31.168   2.983   4.380 -0.0736 -0.3127 -0.2221
38651W        W47451   6.515   4.418  24.741 -0.0394  0.0442 -0.1634
38652W        W47452  24.683   7.750   1.445  0.1766 -0.1036  0.1596
38653W        W47453  30.901   0.854   2.957 -0.0633 -0.0396  0.0339
38654W        W47454   1.767   4.416   8.344 -0.0125  0.2017  0.0039
38655W        W47455   9.502   3.689  17.839 -0.1453 -0.2291 -0.1677
38656W        W47456   0.722   3.690   3.515 -0.2882  0.1539  0.0098
38657W        W47457  19.938   0.854   8.846 -0.0162 -0.0744  0.0797
38658W        W47458  27.145   5.232   3.523 -0.1235 -0.0281  0.1692
38659W        W47459  31.035   1.901  18.521  0.1530 -0.1100 -0.3175
38660W        W47460  23.311   0.869  16.983 -0.0294 -0.1833  0.2587
38661W        W47461  20.029   5.990  21.830 -0.1580 -0.3142 -0.2198
38662W        W47462  20.446   6.396   1.468  0.0914  0.0731 -0.2459
38663W        W47463   5.124   4.492  22.978  0.0547 -0.0250  0.0052
38664W        W47464  12.588   2.467   4.793  0.0097 -0.0054 -0.0701
38665W        W47465   1.433   0.292  23.224 -0.1262 -0.0140 -0.1393
38666W        W47466  30.459   3.293   7.706 -0.0667 -0.0757  0.1861
38667W        W47467   7.968   2.167  10.887 -0.1230 -0.1129 -0.1761
38668W        W47468  17.921   7.610  10.113 -0.0702 -0.0143 -0.1824
38669W        W47469  15.947   2.153   5.374  0.0625 -0.1466  0.0144
38670W        W47470   6.486   4.813   8.639 -0.2393 -0.1915  0.0468
38671W        W47471  29.203   5.851   7.137 -0.1941 -0.0836 -0.1718
38672W        W47472  27.190   2.960   2.705  0.1776  0.2021 -0.1846
38673W        W47473  25.722   5.781   3.434  0.2037  0.1181  0.3558
38674W        W47474   4.488   5.508  21.018  0.0242  0.1145  0.0846
38675W        W47475   5.499   2.023  25.511 -0.0397  0.2636 -0.0636
38676W        W47476  22.091   1.263   0.228  0.2875  0.2430 -0.1250
38677W        W47477  11.843   5.258   0.271  0.1076 -0.0809 -0.0737
38678W        W47478   4.316   4.005  19.230 -0.3415  0.1425  0.2083
38679W        W47479   9.373   4.516   9.994  0.0859 -0.3559  0.1788
38680W        W47480  17.443   4.690   2.626  0.0860 -0.0817 -0.0451
38681W        W47481  19.599   6.038  24.406  0.0052 -0.3244  0.1551
38682W        W47482  20.613   2.840  25.458 -0.1637 -0.1425 -0.3248
38683W        W47483   9.343   5.985  17.817  0.0364 -0.3427 -0.2685
38684W        W47484  21.185   2.993  16.775 -0.0899 -0.0374  0.2247
38685W        W47485  18.636   3.426   1.112 -0.0802  0.3000  0.0705
38686W        W47486   5.051   4.367  23.925  0.2553  0.0259  0.0089
38687W        W47487   5.008   7.204   1.696  0.1469  0.0821 -0.2004
38688W        W47488  29.891   7.784   0.500 -0.1234 -0.0102  0.1224
38689W        W47489  28.526   3.926  20.259  0.0717  0.2905 -0.1645
38690W        W47490   2.204   0.254   2.743 -0.1956 -0.0028 -0.0264
38691W        W47491   7.429   0.856   5.151  0.1043 -0.1866  0.0195
38692W        W47492  22.735   4.316  21.660  0.0662 -0.0138  0.0380
38693W        W47493  11.439   1.331   1.574 -0.2470  0.2440 -0.1050
38694W        W47494   4.665   1.937   6.532 -0.0843 -0.1149  0.0779
38695W        W47495  26.019   6.975  18.210 -0.0988  0.2944 -0.3677
38696W        W47496  10.413   3.780   8.951 -0.0566 -0.1016  0.2418
38697W        W47497  28.024   3.536   9.490  0.2809 -0.1976  0.0134
38698W        W47498  11.564   4.723  15.525  0.2911 -0.0325 -0.1449
38699W        W47499  10.957   3.360   1.189  0.3010  0.0502 -0.0553
38700W        W47500  17.300   6.380  25.870 -0.2054  0.0287 -0.0680
38701W        W47501  26.642   6.811  22.568  0.1923 -0.1095 -0.2918
38702W        W47502  13.622   0.692   8.431 -0.0617 -0.2776 -0.0546
38703W        W47503  14.617   6.683   4.126  0.0564 -0.0955 -0.0548
38704W        W47504  25.649   6.009  18.651 -0.0386 -0.1763  0.1620
38705W        W47505   3.636   5.413   8.960  0.1669 -0.0256  0.0112
38706W        W47506   4.442   2.826   8.510  0.2592  0.0561  0.2482
38707W        W47507   4.373   4.414  20.629  0.0102  0.0365 -0.2997
38708W        W47508  10.879   2.406   4.381  0.1245 -0.2433  0.0075
38709W        W47509   3.666   0.851   7.828 -0.0396 -0.1971 -0.2194
38710W        W47510  19.681   4.833   7.855 -0.0583  0.0503 -0.1404
38711W        W47511  11.888   1.099  24.043  0.0180 -0.1044  0.3275
38712W        W47512  27.959   7.057  15.392  0.1633 -0.0063 -0.4069
38713W        W47513   5.933   0.967  24.062 -0.0106  0.0469  0.0955
38714W        W47514  29.235   1.165  16.752  0.1661 -0.1378  0.0410
38715W        W47515  18.761   5.623  23.158  0.0695  0.2744  0.1625
38716W        W47516  16.541   4.598  15.754  0.1936  0.2559 -0.4437
38717W        W47517  19.374   6.966   3.679  0.2804  0.0470  0.2070
38718W        W47518  17.086   5.263  22.169  0.4071  0.0179 -0.0276
38719W        W47519   5.719   7.162   0.128 -0.0253  0.2376 -0.1517
38720W        W47520  24.359   7.340   2.702  0.0212  0.0825  0.1079
38721W        W47521   1.703   3.830   9.442 -0.0117  0.0837  0.1627
38722W        W47522   6.542   1.314   2.795  0.0616  0.1205  0.1643
38723W        W47523  21.856   0.280  25.542 -0.0852 -0.2895  0.3562
38724W        W47524  13.199   1.844  18.465  0.1581  0.1436  0.2339
38725W        W47525  29.365   5.166  19.929 -0.1739 -0.2442 -0.0425
38726W        W47526  27.790   6.923  10.731 -0.4817  0.1597  0.0927
38727W        W47527   3.936   5.995  18.801 -0.1100 -0.2741  0.0287
38728W        W47528   2.805   1.963   9.129  0.3191  0.0533  0.0539
38729W        W47529  12.238   4.706   0.896 -0.2675 -0.2421  0.0733
38730W        W47530  19.682   6.585   8.013 -0.0631 -0.0486  0.3057
38731W        W47531  11.170   1.926  15.061  0.0988 -0.0246 -0.2259
38732W        W47532  25.331   7.725  17.169  0.0774 -0.1142 -0.1425
38733W        W47533   8.055   3.119   0.129  0.1573 -0.1006  0.0799
38734W        W47534   9.450   6.445  22.202 -0.5266 -0.0251 -0.1379
38735W        W47535  13.314   1.993  24.838 -0.1778  0.0190  0.0819
38736W        W47536  11.974   2.455   6.557 -0.0074 -0.1766  0.1235
38737W        W47537   9.029   3.549  22.410  0.0799 -0.0534  0.0183
38738W        W47538  27.409   0.663  21.414 -0.2816  0.0973 -0.0468
38739W        W47539   0.543   6.686   9.327 -0.1161  0.1203  0.0071
38740W        W47540  29.418   2.995  23.347 -0.0915 -0.2412  0.2342
38741W        W47541  18.667   1.616   3.233  0.0882  0.0510 -0.0068
38742W        W47542  24.844   7.241   2.124 -0.2443  0.0207  0.3493
38743W        W47543  17.052   5.117  24.780 -0.0884  0.1418 -0.0915
38744W        W47544  25.614   0.542  19.823  0.0458  0.1919  0.1043
38745W        W47545  27.272   2.992  19.538 -0.1364 -0.1349 -0.0277
38746W        W47546  22.273   5.250  10.301 -0.0486 -0.0050 -0.0966
38747W        W47547   5.775   5.035   2.220 -0.3588 -0.2562  0.3917
38748W        W47548   1.061   2.202  19.419 -0.0672 -0.0647 -0.2923
38749W        W47549  10.349   4.749  22.455  0.1093 -0.2463 -0.1635
38750W        W47550  24.064   6.733   9.461  0.0705  0.0553  0.0240
38751W        W47551  17.675   0.043  24.878 -0.2887  0.0249 -0.0533
38752W        W47552   8.879   6.427  22.978  0.0730 -0.0901 -0.1806
38753W        W47553  29.037   6.876  23.198 -0.5449 -0.2641  0.0208
38754W        W47554   0.540   2.054  25.508  0.1391  0.1046 -0.4971
38755W        W47555  21.083   3.280   1.318 -0.0615  0.2199  0.0152
38756W        W47556  17.905   1.916  18.577 -0.1197 -0.2849 -0.0184
38757W        W47557  23.770   5.664  18.947 -0.1042  0.2264  0.0883
38758W        W47558  14.177   7.363   4.790  0.2227  0.1271 -0.2012
38759W        W47559  15.957   0.489  26.152 -0.3732  0.3792 -0.1142
38760W        W47560  11.573   6.189   3.372  0.1120 -0.0855 -0.2115
38761W        W47561   6.377   0.148  16.267 -0.0177  0.1142 -0.1166
38762W        W47562  15.621   4.130  15.743  0.0703  0.0232 -0.1883
38763W        W47563   2.298   4.482  18.430 -0.0148  0.0412  0.0675
38764W        W47564  14.445   6.484  10.890 -0.3085 -0.2934 -0.2078
38765W        W47565   7.193   3.405  16.352  0.1514 -0.0113 -0.3687
38766W        W47566  13.115   0.451   3.449  0.0619  0.0247  0.2663
38767W        W47567  28.837   0.792  16.588 -0.1621 -0.1153  0.3015
38768W        W47568   7.543   0.623  17.681  0.2146  0.1706  0.0453
38769W        W47569  20.466   3.466   1.911 -0.0977 -0.0352  0.2644
38770W        W47570  20.504   7.095  18.761 -0.1072  0.1121 -0.1925
38771W        W47571   9.463   7.060   0.436  0.2008 -0.0841  0.1164
38772W        W47572  21.004   6.462  23.429  0.2437 -0.1263  0.4585
38773W        W47573   2.897   7.128   6.340 -0.0893 -0.2661 -0.0109
38774W        W47574  21.371   6.741   8.932 -0.1765  0.4224 -0.2582
38775W        W47575  16.281   3.910  10.538 -0.0500 -0.0986  0.1622
38776W        W47576  13.711   6.062  16.822  0.2783  0.0024 -0.1874
38777W        W47577   9.830   5.322   8.445 -0.1372  0.0502  0.1672
38778W        W47578  26.987   6.956   9.286 -0.0556 -0.1225  0.1925
38779W        W47579   3.318   5.029  24.609 -0.1473  0.1005 -0.0581
38780W        W47580  11.069   7.593  17.014  0.1464 -0.1932  0.0277
38781W        W47581  18.531   7.194  10.788 -0.2440 -0.1646 -0.0205
38782W        W47582  15.093   6.757  15.334  0.2053  0.0399 -0.1060
38783W        W47583  10.389   6.620  16.655 -0.0176 -0.1630  0.0762
38784W        W47584  23.645   5.187  21.092 -0.0791 -0.1338 -0.0193
38785W        W47585  10.479   7.432  15.193  0.1280 -0.0543  0.1624
38786W        W47586   9.347   5.881   5.847 -0.0740 -0.0791 -0.1916
38787W        W47587  20.564   0.305  17.465 -0.1612  0.2600  0.1854
38788W        W47588   7.604   2.684  25.234  0.1634  0.4377  0.0833
38789W        W47589  17.805   2.807   8.730  0.2285  0.1353  0.2321
38790W        W47590  19.287   4.642   0.073 -0.0717 -0.0581 -0.1314
38791W        W47591  22.865   2.473   4.594 -0.1247  0.0931  0.0728
38792W        W47592  22.767   0.693  17.549 -0.0821 -0.3324  0.1795
38793W        W47593  25.740   2.200   7.109  0.0991  0.0406  0.0857
38794W        W47594   9.757   7.789   0.269 -0.0130  0.0605 -0.2443
38795W        W47595  19.339   1.475   4.993 -0.1068  0.1214  0.3321
38796W        W47596  28.207   1.906  10.260  0.0727  0.1925  0.2723
38797W        W47597   1.571   6.946   5.337  0.0983 -0.0055  0.0777
38798W        W47598  23.221   6.194  25.507 -0.1221  0.1065  0.2401
38799W        W47599  19.730   1.242   9.874  0.0252 -0.0572 -0.0165
38800W        W47600   8.802   2.528   0.295  0.0679  0.1493  0.1822
38801W        W47601  15.933   7.369  10.274 -0.1365  0.0455  0.0896
38802W        W47602   3.470   3.537  17.244  0.0389  0.1611 -0.0583
38803W        W47603  27.568   6.217   7.918  0.1140  0.3526  0.0722
38804W        W47604  18.389   3.353   7.522 -0.0212  0.5069 -0.1348
38805W        W47605  13.005   2.793   1.065 -0.1472 -0.3166 -0.2342
38806W        W47606  13.889   7.478   9.065 -0.1264 -0.2589 -0.3032
38807W        W47607  25.428   1.146  18.157 -0.0133  0.1867 -0.2598
38808W        W47608  29.738   2.484  21.638  0.0678 -0.0370  0.2338
38809W        W47609  17.525   2.277   8.791  0.0656  0.3595  0.1180
38810W        W47610   9.087   1.790   7.964  0.1030 -0.2304  0.3237
38811W        W47611  17.587   4.148  19.671 -0.2321 -0.0760  0.0941
38812W        W47612  22.750   3.126  25.501  0.1222 -0.0613 -0.3098
38813W        W47613   1.518   3.172  25.784 -0.2247 -0.0041 -0.2178
38814W        W47614  22.963   7.086  20.716 -0.2718 -0.0437  0.3705
38815W        W47615   5.518   3.305  11.236  0.1975 -0.0447  0.4103
38816W        W47616  13.345   4.610  24.452 -0.1443 -0.0721 -0.0396
38817W        W47617  28.780   1.103  15.639  0.1448  0.0205  0.0157
38818W        W47618   4.289   3.894  20.705 -0.0458 -0.1037 -0.3641
38819W        W47619  19.127   6.219  25.432 -0.0623  0.1244  0.0289
38820W        W47620   4.140   2.513  25.714  0.2066 -0.4602 -0.0201
38821W        W47621  30.052   7.814   4.772 -0.1908 -0.1752  0.2071
38822W        W47622  24.315   6.535  10.417 -0.0590 -0.0003  0.2317
38823W        W47623  27.473   2.583  24.494 -0.1741 -0.1524 -0.1509
38824W        W47624   0.456   6.434   3.771  0.2239  0.2177 -0.0462
38825W        W47625   6.799   1.576   3.331  0.2487 -0.1160  0.3502
38826W        W47626  21.141   7.579   4.268 -0.1214  0.0597 -0.0688
38827W        W47627  22.436   1.111   3.511 -0.0211  0.0827  0.1157
38828W        W47628  28.472   3.521  21.121  0.1727 -0.0807  0.3428
38829W        W47629  21.424   4.801  10.460  0.1978  0.0872 -0.0244
38830W        W47630  12.581   2.752   5.746  0.1694 -0.1179 -0.1669
38831W        W47631   7.147   5.576   7.738 -0.2469  0.0197  0.2229
38832W        W47632  15.304   3.366   9.944  0.1466 -0.2730  0.0844
38833W        W47633  19.615   4.204   5.438 -0.1602 -0.0780 -0.3042
38834W        W47634  26.192   0.754   5.519 -0.2183  0.1913  0.2459
38835W        W47635  10.476   5.714  19.334 -0.0462  0.1062 -0.0571
38836W        W47636   7.363   6.027  10.668  0.2248 -0.0205  0.1305
38837W        W47637  24.585   1.392  22.254 -0.0798  0.0762 -0.0133
38838W        W47638  15.343   5.961   9.986 -0.0403 -0.3309  0.1390
38839W        W47639  14.279   1.254   9.415  0.0331 -0.2111  0.0858
38840W        W47640   6.785   5.479  18.703 -0.0560 -0.0110  0.0482
38841W        W47641  12.909   0.266   5.185  0.2118  0.0854  0.1426
38842W        W47642   3.236   4.085   0.211 -0.2617  0.0861  0.1425
38843W        W47643  26.018   7.380  18.579  0.0393  0.1076 -0.0801
38844W        W47644  13.314   2.891  23.463 -0.1467  0.1502 -0.0042
38845W        W47645  20.470   1.880   9.438  0.1822 -0.0989  0.1959
38846W        W47646   8.634   6.050  25.415 -0.1854  0.0740  0.2660
38847W        W47647   9.692   1.770   9.296  0.0275 -0.1052  0.4642
38848W        W47648  15.439   0.315  16.472 -0.2843  0.0809 -0.3320
38849W        W47649  17.183   0.670  23.266 -0.1400  0.0391  0.1377
38850W        W47650  19.574   5.304  18.790  0.2619 -0.2930 -0.1849
38851W        W47651   8.357   7.055  23.550  0.0617  0.0959 -0.0082
38852W        W47652  13.032   1.549  15.783  0.2416  0.0188  0.1692
38853W        W47653  30.145   4.134   3.392  0.1648  0.1016  0.5752
38854W        W47654   8.481   3.541   0.129  0.0621  0.2142  0.0327
38855W        W47655   0.269   0.948  20.373  0.0671 -0.0621  0.1491
38856W        W47656  26.684   5.977   8.007 -0.1148  0.0141  0.2234
38857W        W47657  22.030   4.984  17.015  0.0087 -0.1258  0.0127
38858W        W47658  19.340   5.451  17.239  0.0312  0.4672 -0.1144
38859W        W47659   2.888   6.679  19.601  0.1343 -0.0028 -0.2122
38860W        W47660  22.199   4.813  22.890  0.0976  0.0028  0.3128
38861W        W47661  22.596   4.195   2.406  0.1011  0.1095 -0.1328
38862W        W47662  19.259   5.581   9.362  0.0454 -0.1711  0.2753
38863W        W47663  28.587   0.402  26.135 -0.2123 -0.2642  0.0580
38864W        W47664  19.853   3.795  21.207  0.2429 -0.1732 -0.0538
38865W        W47665  27.169   3.223   0.950 -0.1597 -0.1682 -0.0314
38866W        W47666   3.081   7.691   8.394 -0.1111  0.0039 -0.1309
38867W        W47667   8.724   2.245  25.961 -0.0380  0.0224  0.2123
38868W        W47668  15.331   7.043  19.613 -0.1238 -0.2156 -0.1274
38869W        W47669  18.644   4.236  22.544  0.2558 -0.2390 -0.1581
38870W        W47670   1.217   7.334  19.854  0.5130  0.0616  0.0425
38871W        W47671   3.810   1.021   2.749 -0.0434 -0.1540  0.1590
38872W        W47672  15.669   4.824  24.462 -0.2935  0.1161  0.6354
38873W        W47673  11.892   7.789  21.044 -0.0473  0.0032 -0.1947
38874W        W47674  22.243   0.090   6.195 -0.3612  0.1630  0.0129
38875W        W47675   1.079   6.871  23.652  0.0931  0.0738 -0.2308
38876W        W47676  10.761   1.889   3.290  0.1106 -0.0592 -0.0664
38877W        W47677  15.920   0.486  17.770  0.0337 -0.2832  0.1592
38878W        W47678  24.192   0.304  20.024 -0.3954 -0.0900  0.1722
38879W        W47679  27.533   2.687   1.351  0.5463 -0.0449  0.2709
38880W        W47680  20.089   7.627  23.154  0.0302  0.0053  0.1547
38881W        W47681  24.492   0.507  22.976 -0.3053  0.1209 -0.0021
38882W        W47682  11.365   2.661  17.505 -0.0425 -0.0452 -0.1091
38883W        W47683  14.311   0.366   4.700  0.1123 -0.2864  0.0684
38884W        W47684  20.727   4.733   0.437  0.0470 -0.4820 -0.3546
38885W        W47685  19.956   2.998  17.552  0.2165  0.0096 -0.3751
38886W        W47686   8.386   1.393  19.402 -0.3964 -0.0790 -0.0153
38887W        W47687  30.197   1.194  20.686  0.1049 -0.2157 -0.2234
38888W        W47688  27.636   4.730  15.389 -0.1783 -0.0276  0.1515
38889W        W47689  11.004   4.490   5.702  0.1761 -0.0330 -0.2689
38890W        W47690  19.953   1.474  23.666 -0.2054 -0.2307 -0.0530
38891W        W47691  28.480   1.675  19.879  0.2471 -0.0159  0.0445
38892W        W47692  12.247   0.648  20.433  0.2309 -0.0879 -0.0669
38893W        W47693  16.552   6.367   7.154  0.0201  0.1707  0.2979
38894W        W47694  30.267   4.749   4.629 -0.0786 -0.2336  0.0020
38895W        W47695   7.244   3.524  22.506  0.1126 -0.0232  0.0537
38896W        W47696  29.749   4.257  25.296  0.0064  0.1398 -0.1950
38897W        W47697  26.883   2.362  19.395 -0.0465 -0.0161 -0.0581
38898W        W47698   6.650   1.465   7.984 -0.1092  0.1589  0.2204
38899W        W47699   0.125   1.543   9.370 -0.1630  0.4421  0.0477
38900W        W47700  24.036   0.349   9.452  0.3106 -0.1050 -0.0462
38901W        W47701  26.546   2.893   5.995  0.3767 -0.2740  0.0532
38902W        W47702  11.834   3.179  14.921 -0.1553  0.4376  0.0793
38903W        W47703  11.492   2.915  20.531  0.1931  0.0736  0.0341
38904W        W47704   4.409   3.340   3.592  0.0481 -0.3304 -0.1163
38905W        W47705   6.232   0.627  24.251 -0.1790 -0.1548 -0.1039
38906W        W47706   7.017   0.007  23.830  0.1885  0.2472 -0.1215
38907W        W47707   6.037   4.636   2.215  0.0151 -0.2206  0.0144
38908W        W47708   5.295   2.980  11.544 -0.3965  0.0796 -0.1269
38909W        W47709  29.606   6.477   8.490 -0.0573 -0.0703 -0.0699
38910W        W47710  28.249   0.971   6.511  0.2257 -0.2065  0.2103
38911W        W47711  11.134   3.189   9.713 -0.2453 -0.0695  0.1580
38912W        W47712  26.064   5.808   4.224  0.2691 -0.0559  0.0333
38913W        W47713  28.223   0.083  10.507  0.2711 -0.0006 -0.0162
38914W        W47714  20.712   0.842  11.070 -0.2127 -0.1929 -0.1844
38915W        W47715  28.921   7.047  21.385  0.0608  0.0306  0.1170
38916W        W47716  30.500   1.727   0.975  0.0011 -0.0247  0.2585
38917W        W47717  13.349   2.881   2.741  0.2610 -0.0141  0.0433
38918W        W47718  29.906   0.690  22.425 -0.0231 -0.0061 -0.1151
38919W        W47719  26.362   7.007  18.642  0.0021 -0.1462 -0.2568
38920W        W47720   3.784   2.144  16.755 -0.3188  0.0203 -0.0926
38921W        W47721  24.047   5.481  15.213  0.1996  0.4546  0.0120
38922W        W47722  30.138   6.801   8.085 -0.1064  0.2203  0.2158
38923W        W47723  11.602   0.037  23.034  0.0698  0.3425  0.0462
38924W        W47724   1.269   6.298  21.088  0.1331  0.0293 -0.1880
38925W        W47725   6.802   0.426  23.585 -0.3331 -0.2241  0.0171
38926W        W47726  18.826   1.471  25.404 -0.1398 -0.0498  0.0050
38927W        W47727   8.511   1.933  21.633  0.2783  0.0048  0.0708
38928W        W47728  19.959   6.506   7.407  0.1021  0.0417 -0.1709
38929W        W47729  13.171   2.862  22.389  0.1137 -0.0483  0.0103
38930W        W47730  28.733   4.739  23.391 -0.1166  0.1169  0.2870
38931W        W47731  21.837   6.372  23.261 -0.3809 -0.2666 -0.4252
38932W        W47732  27.480   7.104   2.795  0.0324 -0.0178 -0.0529
38933W        W47733  24.729   7.300  22.607 -0.3028  0.1024 -0.0933
38934W        W47734   9.873   4.518   5.506 -0.1273 -0.0270 -0.1775
38935W        W47735  14.803   7.402   0.823 -0.0592  0.0319 -0.0871
38936W        W47736   3.403   7.819   4.236  0.0345 -0.2478 -0.1078
38937W        W47737  21.852   3.061  16.426  0.1924  0.1565  0.1362
38938W        W47738   6.896   5.485  25.787  0.3273  0.1825  0.1555
38939W        W47739  19.583   2.052   8.147 -0.1917 -0.4023  0.0010
38940W        W47740  14.381   0.790   6.499  0.1236 -0.3021 -0.0543
38941W        W47741  23.634   2.537  14.739  0.0620  0.3149  0.1674
38942W        W47742   3.881   3.289   2.955  0.0545 -0.0717  0.4165
38943W        W47743  21.920   6.113  21.429 -0.1486  0.1680  0.0815
38944W        W47744  19.977   5.133  19.078 -0.1310 -0.0883 -0.2077
38945W        W47745   4.381   3.018   0.542 -0.3027  0.4601  0.0250
38946W        W47746  11.746   7.371  10.181 -0.2638  0.0680  0.1274
38947W        W47747  13.562   3.127  17.646  0.1412 -0.0095 -0.1246
38948W        W47748   4.427   4.409  10.612 -0.1436 -0.3054 -0.1199
38949W        W47749  23.756   1.084   2.243 -0.3159 -0.0333  0.0883
38950W        W47750   3.718   7.013   8.799 -0.2484 -0.0283  0.2209
38951W        W47751  29.396   2.418  18.364  0.0134 -0.1238 -0.5440
38952W        W47752  23.196   4.829   3.960 -0.2827  0.0371  0.1424
38953W        W47753  22.193   1.067  15.727  0.1387 -0.0237 -0.2498
38954W        W47754   9.158   3.608  22.995 -0.1233  0.0269 -0.3429
38955W        W47755   6.047   6.785   0.414  0.0960 -0.2435 -0.0452
38956W        W47756  20.735   7.732   3.980  0.0371  0.2207  0.0067
38957W        W47757   6.091   0.514  15.954 -0.2364  0.1350 -0.0530
38958W        W47758  21.691   2.863  22.384  0.0245  0.2928  0.0235
38959W        W47759   3.612   6.467  17.878 -0.1327  0.0305  0.0139
38960W        W47760  30.405   4.302  17.880  0.0578 -0.0364 -0.0355
38961W        W47761  14.311   4.932  18.122  0.3298  0.0303  0.1507
38962W        W47762   3.471   3.736   4.103  0.0736  0.2984  0.0029
38963W        W47763  18.145   4.886   0.610  0.0928 -0.2268  0.0159
38964W        W47764  18.090   3.490   0.984  0.1960 -0.0879  0.0183
38965W        W47765  22.419   6.142  20.307 -0.2095 -0.2277  0.0872
38966W        W47766  23.330   0.843  19.117  0.0436  0.0643  0.1266
38967W        W47767  13.230   0.465  23.727 -0.2309 -0.0504 -0.1100
38968W        W47768  15.844   0.112   9.277  0.0187 -0.0423 -0.1783
38969W        W47769   4.924   0.296   7.052  0.1469 -0.1166  0.1103
38970W        W47770  28.665   5.912   1.157 -0.0277  0.2139  0.0271
38971W        W47771  20.348   1.512  16.136 -0.0940 -0.2504  0.3683
38972W        W47772  19.474   4.983  23.314  0.0338 -0.0841 -0.1686
38973W        W47773   6.741   1.290   8.697 -0.0130  0.2366 -0.1589
38974W        W47774  30.113   1.921   8.957  0.2367  0.0746  0.0382
38975W        W47775  19.467   4.219   4.844  0.1606  0.2343 -0.0386
38976W        W47776  22.208   1.183   2.537 -0.2370  0.0651 -0.0347
38977W        W47777  28.101   0.628   6.178  0.0751 -0.3008 -0.0457
38978W        W47778  17.123   1.595  20.575 -0.0117  0.0697  0.0461
38979W        W47779  24.585   4.222  18.432  0.1009  0.0655 -0.3523
38980W        W47780  20.260   4.001  20.161 -0.0755 -0.0847 -0.1597
38981W        W47781   1.696   6.134  20.313 -0.1096 -0.0245 -0.0500
38982W        W47782   6.087   3.684   2.487 -0.3042 -0.2231 -0.0916
38983W        W47783  30.514   0.938  16.318 -0.0699 -0.1352 -0.0243
38984W        W47784   0.649   5.927  21.525 -0.1411 -0.0484  0.1673
38985W        W47785   0.266   3.736  10.272  0.0644  0.3843  0.0581
38986W        W47786  23.364   6.909  10.327  0.1391  0.0317 -0.0268
38987W        W47787  24.451   5.362   1.341 -0.0179  0.0148  0.0285
38988W        W47788  13.441   0.729  17.019 -0.1596  0.0398 -0.0189
38989W        W47789  14.444   4.757   4.133  0.0876  0.0691  0.0888
38990W        W47790  16.371   1.453  22.007 -0.0844  0.2764  0.0457
38991W        W47791   4.173   7.177  17.825 -0.0581  0.0024 -0.0020
38992W        W47792  29.296   0.668  20.134  0.0606 -0.0419  0.2390
38993W        W47793  21.050   3.818   2.669 -0.0185  0.0444  0.0305
38994W        W47794   8.506   7.752  17.358  0.0924  0.0002 -0.1074
38995W        W47795  15.074   6.359   3.868 -0.3172 -0.2425  0.0313
38996W        W47796   6.922   0.241   6.382 -0.0303  0.1589 -0.0507
38997W        W47797   1.185   2.869   5.033  0.1200  0.0849  0.1060
38998W        W47798  23.857   0.290  20.392 -0.0004  0.0089  0.0067
38999W        W47799  12.059   6.009   6.983  0.0960  0.0580  0.1694
39000W        W47800  23.389   3.126   9.095  0.2843 -0.2097 -0.2504
39001W        W47801  24.506   1.316   7.836  0.1017  0.0701 -0.0358
39002W        W47802  24.371   5.307   0.850 -0.2507  0.0577  0.2102
39003W        W47803   9.621   7.619  21.884 -0.0809  0.0004 -0.0266
39004W        W47804  24.251   4.579   6.385  0.1948 -0.3435 -0.1813
39005W        W47805  16.583   2.525  24.295 -0.0622 -0.0008 -0.3530
39006W        W47806   3.333   6.993   5.975  0.2468  0.0309  0.0669
39007W        W47807  11.898   2.112  24.070  0.4388  0.1423  0.0530
39008W        W47808  23.205   1.441   4.436  0.2175  0.1342 -0.0009
39009W        W47809   1.364   3.300  17.078  0.2760 -0.0586 -0.0735
39010W        W47810   5.451   6.547  16.664  0.0273  0.1404 -0.0868
39011W        W47811   3.211   1.676  23.712  0.2587 -0.0122  0.0437
39012W        W47812  10.159   5.337   0.867  0.2429 -0.0388 -0.0278
39013W        W47813  25.478   3.447   4.542 -0.0796 -0.4242 -0.2556
39014W        W47814  12.852   3.443  15.094  0.2452  0.1202  0.1837
39015W        W47815  20.206   2.958   9.544 -0.4191 -0.1296  0.3425
39016W        W47816  24.241   6.640   6.469 -0.0195 -0.2708 -0.0669
39017W        W47817   1.211   7.226  20.809 -0.1736  0.0852  0.0372
39018W        W47818   1.495   5.614   3.970  0.0467  0.3915  0.1172
39019W        W47819  30.804   5.099  17.417  0.0127  0.1296 -0.0346
39020W        W47820  29.299   7.434   1.099 -0.0381  0.1415  0.1234
39021W        W47821   3.844   3.237   6.994 -0.0833  0.1871 -0.1243
39022W        W47822  30.362   6.741  26.035  0.2826 -0.2868  0.1227
39023W        W47823  19.522   7.522  25.112 -0.0448  0.4128 -0.0940
39024W        W47824  20.757   2.932   6.184  0.1615  0.1591 -0.1360
39025W        W47825  18.505   3.734  16.948  0.0026  0.0739 -0.2588
39026W        W47826   1.325   2.362   4.957 -0.0634 -0.0330 -0.0553
39027W        W47827  24.186   6.098   0.058  0.1469  0.1061 -0.1994
39028W        W47828  11.345   6.689   5.189  0.0451 -0.2575  0.0314
39029W        W47829   0.369   0.806   0.320 -0.1332 -0.1576  0.0651
39030W        W47830  30.344   2.907   0.223  0.0776  0.1460 -0.0512
39031W        W47831  29.661   4.826   8.520  0.0813 -0.1438  0.0706
39032W        W47832  25.776   2.223   2.752  0.3289  0.0881 -0.0827
39033W        W47833  12.855   2.752  24.477 -0.2892  0.0422  0.4546
39034W        W47834  29.261   2.993   4.092 -0.0772  0.0454  0.3062
39035W        W47835  11.660   5.308  17.986  0.1423 -0.1453  0.1536
39036W        W47836   2.730   2.163   4.173 -0.0447 -0.0409  0.0629
39037W        W47837  13.302   6.373   2.200  0.0327 -0.0402  0.1435
39038W        W47838  14.059   4.462  18.357 -0.1355 -0.0869  0.1065
39039W        W47839   0.161   7.727   1.735  0.0540  0.1725  0.0892
39040W        W47840   5.521   4.961   4.754 -0.4127  0.1425 -0.2491
39041W        W47841  21.395   1.895   5.305 -0.0851 -0.3624  0.2237
39042W        W47842  18.121   3.723   7.793  0.3267 -0.0733 -0.0995
39043W        W47843  25.496   2.639   6.158 -0.0372 -0.0511 -0.1743
39044W        W47844  10.159   7.092   9.814  0.0903 -0.1888  0.3413
39045W        W47845   0.312   3.698   0.345 -0.0745 -0.0450  0.0827
39046W        W47846  13.093   6.864   5.096  0.2719 -0.1825 -0.1919
39047W        W47847  22.761   2.879  24.630 -0.0757  0.3131 -0.0182
39048W        W47848  10.111   2.601   8.892  0.2207 -0.1054 -0.0410
39049W        W47849  27.774   3.711   7.186 -0.1574 -0.0442 -0.1494
39050W        W47850  28.001   5.552  20.402  0.0574 -0.0747  0.0441
39051W        W47851  26.890   4.467  16.486 -0.2327  0.0181  0.3662
39052W        W47852  14.154   1.300  19.692 -0.0794  0.0505  0.0147
39053W        W47853  21.493   3.865   2.430  0.3577 -0.0581  0.1892
39054W        W47854  11.318   7.624  10.059  0.0200 -0.2629  0.0767
39055W        W47855  14.309   4.220   8.532 -0.0544  0.0636  0.1645
39056W        W47856  14.003   6.402  22.861  0.0762 -0.2282 -0.0249
39057W        W47857  11.828   7.297   8.253  0.0488 -0.1994 -0.1484
39058W        W47858   4.239   2.125  19.685  0.2694 -0.0436  0.0851
39059W        W47859  13.928   6.296  24.037 -0.3435  0.0512 -0.0941
39060W        W47860  21.012   4.312  19.500 -0.1146  0.1429 -0.1018
39061W        W47861   7.597   7.418  15.826  0.0666 -0.3116  0.2055
39062W        W47862   3.496   2.226   8.506 -0.1265 -0.1749  0.0144
39063W        W47863  25.067   1.694   6.151  0.0038 -0.1537 -0.0074
39064W        W47864  15.413   0.581   1.022 -0.2222  0.2569 -0.2827
39065W        W47865   6.411   5.924   3.017 -0.0253 -0.1467  0.0751
39066W        W47866  16.473   6.379   9.751  0.0543  0.2713 -0.2479
39067W        W47867  31.265   4.881  19.248  0.4655  0.3178 -0.0100
39068W        W47868  13.616   2.973  24.212 -0.0395  0.3377 -0.0346
39069W        W47869   9.085   4.340   0.385  0.1369  0.3118  0.1710
39070W        W47870  15.535   0.127  23.215  0.0317 -0.1328  0.0267
39071W        W47871  12.649   0.742   3.320  0.0315 -0.0075  0.0849
39072W        W47872  24.873   0.700  25.928 -0.0682 -0.1864 -0.0600
39073W        W47873   7.529   0.253   3.825  0.1952 -0.0464  0.1287
39074W        W47874  14.812   3.650  22.258  0.0296 -0.2220 -0.0734
39075W        W47875   5.786   6.577  22.046 -0.3420 -0.0292  0.1826
39076W        W47876  20.145   2.853  25.699 -0.0812 -0.0530  0.1787
39077W        W47877   9.634   7.191   1.283 -0.2748 -0.0209  0.2773
39078W        W47878  22.248   4.722   0.270 -0.2414 -0.1735 -0.0045
39079W        W47879   2.868   6.525  11.911 -0.0664 -0.1803  0.2255
39080W        W47880  25.866   2.693   1.097  0.0906 -0.1169 -0.1100
39081W        W47881  21.313   0.206  18.359 -0.0731 -0.0895 -0.1330
39082W        W47882   4.918   0.190   5.431 -0.1441 -0.1237 -0.0370
39083W        W47883  22.984   3.264   4.674  0.1384  0.2693  0.3813
39084W        W47884   5.777   5.377  26.125  0.1198 -0.2568  0.1246
39085W        W47885   7.283   6.261  18.534  0.2291  0.1270  0.0852
39086W        W47886  25.558   2.749  15.675 -0.0888  0.1742  0.0898
39087W        W47887   5.664   7.219  17.347  0.2630  0.0181  0.1551
39088W        W47888  22.305   6.309   0.361  0.1832 -0.0141 -0.0987
39089W        W47889   1.237   1.947  23.292  0.1535 -0.0447 -0.2889
39090W        W47890  23.543   2.548   5.257  0.2506  0.0198 -0.1510
39091W        W47891  25.527   5.998  23.932  0.2404  0.2593  0.0198
39092W        W47892   0.831   4.920   3.551 -0.1274  0.0583  0.3290
39093W        W47893   5.865   2.446   1.739  0.0003 -0.0670  0.0538
39094W        W47894  24.758   1.872  21.822  0.2455  0.0309 -0.4665
39095W        W47895   7.818   0.882   7.842  0.1861 -0.0796 -0.2749
39096W        W47896  23.225   4.444  20.357 -0.2106  0.1735 -0.0251
39097W        W47897  21.483   0.719  18.164  0.0799  0.4102 -0.1226
39098W        W47898  27.399   5.737   3.302  0.0089  0.1488  0.0746
39099W        W47899   2.660   4.634   3.256 -0.0705 -0.0084 -0.0655
39100W        W47900  16.848   1.180  24.038  0.2481  0.0436  0.0761
39101W        W47901   5.289   0.870  24.140  0.0659  0.0147 -0.0561
39102W        W47902  19.012   0.138   2.507 -0.1447  0.0026 -0.0270
39103W        W47903   7.958   4.670  10.116 -0.3178  0.2905  0.0810
39104W        W47904  12.451   5.336   1.104  0.2906  0.0042  0.3507
39105W        W47905   5.421   6.088  10.942  0.1060  0.1250 -0.1904
39106W        W47906  13.924   0.724   7.968 -0.0868  0.3432  0.2739
39107W        W47907  26.342   5.294   6.997 -0.0624  0.0921  0.0052
39108W        W47908   2.895   6.410  11.128  0.3223 -0.0221  0.1022
39109W        W47909   3.364   7.789  17.396 -0.2605 -0.0054 -0.0590
39110W        W47910  21.684   7.570   1.144 -0.3251 -0.2028 -0.0459
39111W        W47911   8.064   0.786  16.888  0.0976  0.2290  0.2566
39112W        W47912   4.124   4.065  23.775 -0.1177  0.1415 -0.2304
39113W        W47913   7.911   2.082  16.927  0.2022 -0.1156  0.0987
39114W        W47914  15.469   2.305  25.279 -0.1194  0.3038  0.1268
39115W        W47915   9.925   1.317  15.519  0.0922 -0.0784 -0.2420
39116W        W47916  29.599   3.298  17.748 -0.1616 -0.2467 -0.0692
39117W        W47917  30.056   0.119  19.568 -0.0881 -0.1117 -0.4647
39118W        W47918  18.773   7.350  23.257  0.1287 -0.0392 -0.1616
39119W        W47919  28.417   1.802   6.615 -0.0135 -0.1411  0.2899
39120W        W47920  22.656   5.592  20.277 -0.2311  0.0832  0.2547
39121W        W47921  11.469   7.639  24.346  0.1304 -0.2038  0.3084
39122W        W47922  13.065   2.158  10.746 -0.2357  0.1458 -0.1407
39123W        W47923   5.002   5.772  10.708 -0.0892  0.0862 -0.5513
39124W        W47924   0.894   3.652  18.107 -0.2137  0.0080  0.0631
39125W        W47925  16.367   5.575   1.063 -0.0852  0.2183  0.2412
39126W        W47926   8.677   4.613  16.466  0.0532  0.1702  0.1544
39127W        W47927  24.208   5.597   5.393  0.2677  0.1612  0.0684
39128W        W47928  22.381   7.359  20.192 -0.0623  0.1136  0.0915
39129W        W47929   3.174   1.084  11.796  0.1019 -0.3307  0.0144
39130W        W47930   4.064   1.449  19.218  0.0569  0.1171 -0.1924
39131W        W47931   5.649   6.096  21.939  0.0888  0.1456 -0.0142
39132W        W47932  22.108   5.821  17.261 -0.2360 -0.1414  0.2119
39133W        W47933  13.978   2.867  10.116 -0.4244  0.1849  0.0384
39134W        W47934  10.906   4.546   4.290  0.0062  0.1137 -0.1319
39135W        W47935   7.329   5.899   9.413 -0.2190 -0.0441 -0.0125
39136W        W47936  18.726   4.758   9.916 -0.0651 -0.3335 -0.1481
39137W        W47937  13.597   5.128   0.833  0.0867 -0.1524  0.1082
39138W        W47938   9.550   2.641  25.075 -0.3091 -0.1592  0.0302
39139W        W47939  18.265   5.461  19.339  0.1771  0.2228 -0.0618
39140W        W47940   4.529   4.040   4.413  0.3678  0.0048 -0.3009
39141W        W47941  10.882   1.341   9.154  0.4893  0.0899  0.2051
39142W        W47942   7.645   3.943   5.600  0.1790 -0.0965 -0.0610
39143W        W47943  18.091   6.096   1.217  0.1052 -0.1361 -0.0999
39144W        W47944  14.973   5.251  25.341  0.1397  0.0593 -0.0375
39145W        W47945   0.536   5.069   9.665  0.1492  0.0612  0.2823
39146W        W47946  13.860   1.575   5.874 -0.0108 -0.3239 -0.5433
39147W        W47947   9.309   4.524  15.586  0.1562  0.3474 -0.2234
39148W        W47948  26.319   1.339   8.264  0.0432 -0.1919 -0.1006
39149W        W47949  25.886   2.775  19.554 -0.0889  0.3870 -0.1258
39150W        W47950  13.321   6.704   7.095 -0.1716 -0.4032  0.1000
39151W        W47951  13.237   5.839   9.578 -0.1187 -0.0500  0.0304
39152W        W47952   4.613   4.054  10.347 -0.1915  0.1788  0.1986
39153W        W47953  15.139   3.962   3.612 -0.1958 -0.3836  0.0043
39154W        W47954  21.437   2.080  21.170  0.2421 -0.1210  0.0006
39155W        W47955  16.991   2.786   2.315  0.2133  0.0718 -0.0286
39156W        W47956  30.306   2.670  24.611  0.2863  0.0996 -0.1685
39157W        W47957   9.849   5.825   9.173  0.4382  0.0515 -0.0065
39158W        W47958  27.902   5.848  19.932 -0.0659  0.1167  0.1491
39159W        W47959  22.765   0.721   3.592  0.2109  0.0188  0.1492
39160W        W47960  20.072   3.832  23.934 -0.1193  0.1481  0.2070
39161W        W47961   1.057   0.047  18.373  0.0284  0.0886 -0.5640
39162W        W47962   2.473   4.325  19.642  0.0379  0.2345  0.0805
39163W        W47963  16.858   2.898  15.994  0.0377 -0.2493  0.1481
39164W        W47964   4.011   6.665  17.696  0.2888  0.2105  0.2075
39165W        W47965  28.136   0.793   2.112 -0.2925  0.0281 -0.1737
39166W        W47966   0.453   1.418  23.846  0.3139 -0.2406 -0.1939
39167W        W47967  25.035   7.545  22.206  0.2648 -0.2194  0.1878
39168W        W47968  14.187   5.927   3.792 -0.2640  0.0459  0.1285
39169W        W47969   8.217   2.384   7.855 -0.2412  0.2577 -0.1308
39170W        W47970   3.394   7.621   1.561 -0.1389 -0.3262 -0.0707
39171W        W47971  28.343   2.357   2.807 -0.0768 -0.1571 -0.0428
39172W        W47972  21.087   3.870  23.768  0.2254  0.2050  0.1945
39173W        W47973   8.500   4.322  22.018  0.0575  0.0531  0.2215
39174W        W47974   9.667   7.411   4.859 -0.0609  0.0591 -0.1664
39175W        W47975   0.747   5.365   3.425  0.1975 -0.0633  0.1090
39176W        W47976  16.289   3.473  21.458 -0.3062 -0.1563  0.0324
39177W        W47977  18.849   0.051  21.126  0.1976  0.0110  0.0971
39178W        W47978   2.975   1.698   6.354  0.0270  0.0840 -0.0501
39179W        W47979  16.297   3.872  26.146 -0.0385 -0.1420 -0.2835
39180W        W47980  12.677   0.423   4.261 -0.2757 -0.2258 -0.0980
39181W        W47981  23.088   5.251  10.646  0.3513  0.1634 -0.1753
39182W        W47982  13.375   4.021   0.129  0.0137  0.1130  0.2567
39183W        W47983  24.400   6.764   2.714  0.0878 -0.0837  0.0164
39184W        W47984   2.323   6.392   8.829  0.0203 -0.0718  0.0310
39185W        W47985  30.710   2.365  22.995 -0.0874 -0.0343  0.3125
39186W        W47986  22.040   5.607   6.543  0.0158  0.1932  0.0226
39187W        W47987   2.792   1.529  21.828  0.0427 -0.1946  0.1495
39188W        W47988  25.058   2.220  25.954 -0.1581 -0.0719  0.2825
39189W        W47989  30.707   7.163   0.512 -0.1542 -0.1608 -0.0125
39190W        W47990  30.985   3.968  25.789 -0.1997 -0.2008  0.2248
39191W        W47991  22.315   5.102  17.436  0.0006  0.1218  0.2660
39192W        W47992  25.427   2.894  10.003  0.0069 -0.4552  0.4478
39193W        W47993  13.589   5.376  19.840  0.2065 -0.4969 -0.0159
39194W        W47994   8.589   2.646  24.979 -0.3014  0.1597  0.1064
39195W        W47995  26.296   4.354   5.472  0.0457 -0.0235 -0.0391
39196W        W47996  19.250   7.022  15.643  0.0789  0.0139 -0.2480
39197W        W47997  23.538   1.030  20.714 -0.0842  0.1690 -0.0605
39198W        W47998  31.242   7.815   5.663  0.1765 -0.2818  0.1973
39199W        W47999  21.296   6.357  25.362  0.0479 -0.2296  0.1090
39200W        W48000   9.639   7.593  25.852 -0.0268 -0.2274  0.0383
39201W        W48001  25.776   6.933  10.388  0.1130 -0.0095  0.0841
39202W        W48002   4.939   2.238   4.710  0.0895  0.0620  0.1071
39203W        W48003  21.166   2.222   2.749  0.0214  0.0421 -0.0036
39204W        W48004  20.055   6.866  16.089  0.0571  0.4127  0.1606
39205W        W48005  10.026   2.222   3.428 -0.0922  0.2054 -0.3327
39206W        W48006  23.404   4.497   8.318 -0.0568 -0.1103 -0.0525
39207W        W48007  27.552   3.192  15.966 -0.0352 -0.1387 -0.1983
39208W        W48008  22.787   6.481  10.094  0.0857  0.3772 -0.1169
39209W        W48009   6.340   5.485   8.706  0.1867  0.1024  0.3732
39210W        W48010   2.586   4.910  23.682  0.1077  0.1481 -0.0345
39211W        W48011   1.330   2.707   7.538  0.0135  0.1008 -0.1954
39212W        W48012  20.783   6.068   9.585  0.1661 -0.3029 -0.3788
39213W        W48013  19.720   3.110  20.081  0.0043  0.0471  0.1605
39214W        W48014   7.512   7.498  26.034 -0.2340  0.2539 -0.2011
39215W        W48015  20.980   7.069  22.621  0.1581 -0.2935  0.0303
39216W        W48016   3.237   2.072  25.269  0.0496 -0.2073  0.2904
39217W        W48017   4.120   2.326   0.447  0.2585 -0.1856 -0.0510
39218W        W48018  18.144   4.154  22.746  0.0351 -0.0574  0.3117
39219W        W48019  22.671   6.049   3.517  0.1330  0.2467 -0.1222
39220W        W48020   8.024   2.344   7.142  0.2443  0.1744  0.0631
39221W        W48021  29.521   3.630   4.792 -0.1326 -0.1045 -0.0017
39222W        W48022  16.099   1.112   4.738  0.2528 -0.2077 -0.1401
39223W        W48023  25.637   7.110  17.794 -0.0187 -0.1874  0.1736
39224W        W48024  11.386   5.437  17.578  0.2656  0.1540 -0.0351
39225W        W48025   4.929   5.055   6.771  0.0192 -0.0082  0.0446
39226W        W48026  28.576   0.064  18.497  0.2917 -0.0691 -0.4442
39227W        W48027   3.564   6.188   8.331  0.1933 -0.0879 -0.2090
39228W        W48028  14.333   3.183   2.781  0.0635  0.0717 -0.0223
39229W        W48029  17.600   4.636  21.061 -0.0434 -0.1511  0.0366
39230W        W48030   5.850   0.687  17.068  0.0215  0.2508  0.0873
39231W        W48031  28.981   6.836   5.527 -0.0240  0.0510 -0.2534
39232W        W48032   9.824   1.274   1.552  0.2122  0.3874  0.3007
39233W        W48033  12.288   1.009   7.059 -0.0183 -0.0498 -0.0799
39234W        W48034  11.964   3.355   8.755  0.2518 -0.0306 -0.0499
39235W        W48035   1.008   0.182  20.352  0.1232 -0.1574  0.2467
39236W        W48036  14.736   6.262  25.780 -0.1462 -0.1293 -0.2840
39237W        W48037   6.438   3.270  25.233  0.1251 -0.1603  0.0564
39238W        W48038  15.407   0.217   9.577  0.0245 -0.1746 -0.1441
39239W        W48039  12.757   4.408   6.007  0.1736 -0.1232 -0.0412
39240W        W48040  14.946   1.921   3.793 -0.1307 -0.1157 -0.1509
39241W        W48041  29.235   2.103   3.384  0.0069 -0.0422  0.1088
39242W        W48042  13.405   7.701  24.126  0.1804  0.0332 -0.0406
39243W        W48043  19.306   1.542  20.199 -0.0638 -0.0830  0.2956
39244W        W48044   0.137   7.188  24.966  0.1548 -0.1861 -0.2140
39245W        W48045   5.171   5.555  22.230  0.0063  0.0435  0.0114
39246W        W48046  23.749   6.219  17.215  0.4327  0.1008  0.1070
39247W        W48047  21.959   0.803  20.326  0.0012 -0.0040 -0.2589
39248W        W48048  10.473   7.370   8.185  0.0098  0.1236 -0.1162
39249W        W48049  13.905   0.396  17.296 -0.0536 -0.0425  0.0326
39250W        W48050  14.216   0.524  20.180 -0.1728 -0.1170 -0.0791
39251W        W48051   2.503   0.668  21.435  0.3641 -0.0379 -0.3417
39252W        W48052  10.838   5.692   8.847  0.1005  0.0165 -0.0279
39253W        W48053  29.516   3.429   2.688 -0.1505  0.0354 -0.0468
39254W        W48054   9.030   3.516  23.724  0.1309  0.1533 -0.0330
39255W        W48055   7.895   1.773  20.935  0.1093  0.3855  0.2512
39256W        W48056  28.364   0.547  21.505  0.1436  0.1420  0.0152
39257W        W48057   7.568   1.720   4.088  0.0561  0.0526  0.1642
39258W        W48058  11.462   1.138  23.483  0.3174  0.0163  0.2104
39259W        W48059  12.057   0.098   3.989 -0.0365  0.1651  0.0061
39260W        W48060  20.401   0.076  18.801  0.0860 -0.3663  0.1919
39261W        W48061  28.502   4.484  23.771  0.1316 -0.0558 -0.2253
39262W        W48062  24.206   5.658  23.480  0.1375  0.1980  0.1404
39263W        W48063  11.482   2.532   8.333  0.3983  0.0445  0.3058
39264W        W48064   8.242   4.456  16.651 -0.1309  0.2216 -0.1534
39265W        W48065   9.558   0.844  19.892  0.1653  0.1660  0.4225
39266W        W48066  23.425   0.871   9.704 -0.2913  0.2111 -0.0542
39267W        W48067   2.190   1.639   8.447 -0.0607  0.3297  0.1265
39268W        W48068  12.833   5.898   3.902  0.0523 -0.2015  0.0743
39269W        W48069   4.252   1.974  10.250 -0.0763  0.0964  0.0609
39270W        W48070  26.656   5.012   3.443 -0.1930 -0.3332  0.1467
39271W        W48071   7.693   6.378  16.691 -0.0094  0.0626  0.1799
39272W        W48072  18.823   2.923   6.993 -0.1437 -0.2836 -0.4984
39273W        W48073  13.467   4.396  23.203 -0.3415 -0.1264 -0.0206
39274W        W48074   6.727   5.070  10.809  0.2078  0.0658  0.1254
39275W        W48075   9.591   5.364   4.507 -0.1951 -0.2141 -0.3096
39276W        W48076  22.391   7.422   6.660 -0.2164  0.0955 -0.3966
39277W        W48077   2.413   2.182  23.788 -0.0096  0.3201  0.0111
39278W        W48078  15.964   6.083  22.376 -0.3315 -0.1279 -0.0718
39279W        W48079  13.083   4.296   0.856  0.0094  0.3170  0.4369
39280W        W48080  16.520   0.584  21.682 -0.1351 -0.0114  0.0555
39281W        W48081  12.634   2.739   9.527 -0.0876  0.2186 -0.3064
39282W        W48082  16.454   0.299  10.641  0.0938  0.1785  0.0354
39283W        W48083  22.893   0.086  25.977  0.2399  0.1373 -0.1655
39284W        W48084  30.902   0.608   1.655  0.0068 -0.1690 -0.0127
39285W        W48085  23.760   3.731  22.463  0.1350 -0.0756 -0.0930
39286W        W48086  12.696   6.490  17.884 -0.2298 -0.3548  0.1709
39287W        W48087  29.892   3.797   1.075 -0.0586 -0.1020 -0.0490
39288W        W48088  22.828   7.444  23.805 -0.2846  0.0574  0.1290
39289W        W48089  13.096   0.724  16.461 -0.0538 -0.0744  0.2784
39290W        W48090  30.225   4.031  25.232 -0.0488 -0.4468 -0.2118
39291W        W48091  20.161   1.474   5.071  0.0503  0.0042  0.1433
39292W        W48092   4.090   3.162   4.521 -0.0983 -0.0357 -0.1152
39293W        W48093  21.986   3.509  20.088  0.2109  0.4486 -0.0666
39294W        W48094  18.931   7.016  19.751  0.1187  0.0691 -0.0333
39295W        W48095  15.965   7.378  21.846 -0.1353  0.0505 -0.0131
39296W        W48096  28.971   3.056  25.617  0.2107 -0.2278 -0.1606
39297W        W48097  24.439   3.861   9.565 -0.3898  0.1343  0.3907
39298W        W48098  28.622   2.434  24.130 -0.1422  0.1017  0.2837
39299W        W48099  14.056   6.524   9.510 -0.1530 -0.0245  0.1674
39300W        W48100  13.286   2.901  17.242 -0.1860  0.2101  0.0893
39301W        W48101  10.198   6.573  20.973 -0.1314  0.3300  0.0976
39302W        W48102   1.894   3.338   9.501 -0.1373  0.3011 -0.2476
39303W        W48103  28.734   7.416  21.789 -0.1029  0.3924 -0.1482
39304W        W48104   0.421   4.994   6.154  0.3099 -0.0544 -0.1577
39305W        W48105   7.223   0.620   7.809 -0.1008 -0.0768 -0.0130
39306W        W48106   4.009   2.861  15.685 -0.3659  0.1607 -0.0885
39307W        W48107  13.221   1.715   1.849  0.0604 -0.1308 -0.3564
39308W        W48108  17.580   0.559   8.590 -0.0408 -0.0710 -0.0881
39309W        W48109  26.098   2.734   2.083  0.3048  0.0522  0.2020
39310W        W48110   6.026   4.581  20.726  0.1417  0.1559 -0.0958
39311W        W48111  14.005   1.315  18.138  0.1469 -0.3293 -0.1221
39312W        W48112   1.038   6.398  20.685 -0.1110 -0.1923  0.2336
39313W        W48113   1.001   1.528  22.586 -0.0502 -0.2007  0.1339
39314W        W48114   5.073   0.751   6.187  0.2574 -0.0631  0.1721
39315W        W48115  15.427   1.721  22.309 -0.2395 -0.1436  0.1088
39316W        W48116  20.664   5.948   8.728 -0.0984 -0.0242  0.0281
39317W        W48117  25.023   3.300  18.934 -0.0841  0.3829  0.0590
39318W        W48118   5.179   0.231   8.877  0.2384  0.1856 -0.0299
39319W        W48119  11.829   3.251  21.817  0.1915 -0.0969 -0.1935
39320W        W48120  24.614   7.638  20.021 -0.1592  0.2146  0.0279
39321W        W48121  21.986   1.430  20.427 -0.4588 -0.0307 -0.1708
39322W        W48122  22.752   7.196   4.972 -0.1401 -0.1955  0.0936
39323W        W48123  22.883   3.880   7.700 -0.1796 -0.2283  0.0214
39324W        W48124  23.710   5.476   3.213  0.3875 -0.1422 -0.0186
39325W        W48125   7.598   7.703  22.583 -0.1609  0.0948  0.1590
39326W        W48126  28.239   2.084   2.437 -0.1295 -0.2658 -0.1048
39327W        W48127  10.564   7.581   7.667 -0.1905 -0.0738  0.0326
39328W        W48128   5.773   0.398   7.108 -0.1882 -0.1915 -0.3181
39329W        W48129  14.961   2.443   8.073  0.0636 -0.1467  0.0327
39330W        W48130  29.396   0.274  20.723  0.2789 -0.0551 -0.2071
39331W        W48131  25.563   3.518   6.109 -0.0568  0.2460  0.2506
39332W        W48132   7.770   3.303   5.177 -0.0647  0.2149 -0.0539
39333W        W48133  23.228   0.834   3.758 -0.0027  0.2920 -0.0719
39334W        W48134   5.843   0.996  20.572 -0.1575  0.0453  0.1286
39335W        W48135  21.436   6.754   7.978  0.1326 -0.0788  0.1062
39336W        W48136  24.290   6.625  23.475 -0.1018  0.1780  0.1135
39337W        W48137  15.965   7.264  23.105 -0.1287  0.0735  0.0745
39338W        W48138  30.230   0.749   9.441  0.0862  0.0044 -0.0214
39339W        W48139  22.006   1.966   7.828 -0.2287  0.1287  0.0184
39340W        W48140   4.861   6.284   1.040  0.2500  0.1758 -0.2858
39341W        W48141   1.423   0.318  17.645 -0.0517 -0.1346  0.1522
39342W        W48142  23.309   7.202  21.118 -0.0913  0.3111 -0.1376
39343W        W48143   8.860   0.814  17.445  0.1300  0.0839  0.3214
39344W        W48144  16.387   1.671   0.711 -0.2196 -0.1433  0.0677
39345W        W48145  12.190   6.155   0.732 -0.0055 -0.1096  0.1946
39346W        W48146  23.120   2.334  22.934  0.1964  0.1127 -0.1871
39347W        W48147  24.420   2.953  24.511 -0.0892  0.1770 -0.0547
39348W        W48148   3.619   4.806   2.335 -0.0470 -0.0003 -0.1074
39349W        W48149  25.192   3.491  21.418  0.0034 -0.1917 -0.0734
39350W        W48150  27.675   4.526   4.049  0.3324 -0.1854 -0.0303
39351W        W48151  16.057   6.527   5.709  0.3189 -0.0246 -0.2822
39352W        W48152  28.429   4.272   9.840 -0.0188 -0.0196  0.3028
39353W        W48153  12.260   4.949  22.953 -0.1253 -0.1760  0.1340
39354W        W48154   3.699   7.676  20.897 -0.0300  0.2742  0.1309
39355W        W48155   5.449   5.792  22.852 -0.2784  0.1736  0.1715
39356W        W48156  10.639   6.075  25.259 -0.2132 -0.1789 -0.0498
39357W        W48157  29.026   3.562  25.514 -0.1664 -0.4438 -0.0362
39358W        W48158  10.890   3.106   6.833  0.3475 -0.0268  0.0340
39359W        W48159  19.764   3.706   3.031 -0.1230 -0.0725  0.1518
39360W        W48160   5.180   2.988  16.903  0.0929 -0.4495 -0.0891
39361W        W48161  22.433   7.683  21.148  0.0084  0.0377 -0.2497
39362W        W48162   7.243   7.357  21.968  0.0105  0.2187  0.0100
39363W        W48163   5.349   6.350  17.925 -0.1998 -0.1056 -0.1722
39364W        W48164  12.685   7.079  23.771  0.0171 -0.0291 -0.2704
39365W        W48165  10.379   5.638  20.711 -0.1647 -0.0143 -0.1511
39366W        W48166  19.202   2.967  22.283 -0.1813  0.2022 -0.0779
39367W        W48167  12.332   6.616   3.894 -0.0758  0.3198  0.2200
39368W        W48168   3.802   5.812   9.197  0.0051  0.2132 -0.0518
39369W        W48169  14.951   5.178  21.156  0.1946 -0.3757  0.1807
39370W        W48170  28.492   6.223  18.444  0.2239  0.1100  0.0244
39371W        W48171   4.913   0.027   4.978 -0.0456 -0.1982 -0.0832
39372W        W48172   5.255   6.133  10.445  0.1068 -0.1246  0.0220
39373W        W48173   8.682   5.676  24.168 -0.1547 -0.2301 -0.0584
39374W        W48174   4.697   6.518  20.669  0.2893  0.1163  0.1983
39375W        W48175  26.556   3.858  23.976  0.0067 -0.2229 -0.0125
39376W        W48176   8.886   5.475   4.911  0.1044  0.3217  0.2162
39377W        W48177  23.934   4.646  10.325  0.0300 -0.0155  0.0449
39378W        W48178  24.992   7.090   3.907  0.1603  0.2744  0.0882
39379W        W48179   3.769   1.682  17.651  0.1155  0.2730 -0.1716
39380W        W48180  10.180   3.307  24.995  0.1420  0.2469 -0.0152
39381W        W48181   2.870   1.537  10.478 -0.2249 -0.0481 -0.2352
39382W        W48182  25.075   7.779  20.392  0.2026 -0.1871 -0.2562
39383W        W48183  14.243   6.009  23.757  0.0220  0.0874 -0.0964
39384W        W48184  12.517   6.623   8.725 -0.1072 -0.1521  0.0244
39385W        W48185  13.522   3.456  25.802 -0.0363  0.1420  0.0034
39386W        W48186  30.798   0.069  16.483  0.1259 -0.3744 -0.3214
39387W        W48187  11.419   3.097  21.465  0.2152 -0.3361  0.1251
39388W        W48188   0.511   2.919   2.369  0.2640  0.2106  0.0171
39389W        W48189  29.299   3.998  16.822  0.0621  0.0163 -0.0484
39390W        W48190  17.783   6.810   0.824 -0.2763 -0.1073 -0.0020
39391W        W48191  13.125   1.473   9.055 -0.1737  0.1373  0.0178
39392W        W48192  26.697   2.690   4.490 -0.3354 -0.0390 -0.0921
39393W        W48193  23.337   6.618  17.647 -0.3323  0.1112 -0.2690
39394W        W48194   6.218   6.714  25.647 -0.2290  0.0971  0.3608
39395W        W48195  17.144   2.461  10.693  0.0100 -0.1467  0.1419
39396W        W48196   2.646   2.285  21.496 -0.0741 -0.0280  0.0796
39397W        W48197   4.659   0.727  19.073 -0.0063  0.1490 -0.1256
39398W        W48198  16.508   1.907   6.652 -0.1339  0.1680 -0.1819
39399W        W48199   8.495   2.734   9.330 -0.0491  0.0232  0.0783
39400W        W48200   8.282   1.345  10.296 -0.0934  0.1699 -0.1966
39401W        W48201  30.697   0.362  21.303  0.1200  0.2372  0.0365
39402W        W48202  14.415   6.522   4.914  0.0599 -0.1827 -0.1827
39403W        W48203  23.727   6.927  23.722  0.1351  0.0636 -0.0105
39404W        W48204   7.665   2.647   3.582  0.1548 -0.0026 -0.0070
39405W        W48205  25.255   7.564   3.189  0.0242 -0.1346 -0.0130
39406W        W48206  11.904   1.642  17.015  0.3464  0.1499 -0.0773
39407W        W48207   7.159   4.299   7.941 -0.0499 -0.1495 -0.1650
39408W        W48208  17.713   2.168  20.318 -0.2703  0.3856 -0.0624
39409W        W48209  11.444   7.434  25.538  0.2815  0.3530 -0.2155
39410W        W48210   5.565   3.895   6.613  0.0917  0.1063  0.2712
39411W        W48211  12.002   0.597  24.692 -0.2569  0.1043  0.0731
39412W        W48212   5.976   5.047   6.210 -0.0775 -0.0194  0.0657
39413W        W48213   6.586   1.906  21.252 -0.2408  0.2407  0.1812
39414W        W48214   9.619   5.308   9.323 -0.1476  0.4262 -0.2996
39415W        W48215  29.714   7.446  25.957 -0.3669 -0.0002  0.1071
39416W        W48216  26.937   1.474  20.319 -0.0669 -0.0907 -0.0924
39417W        W48217  29.249   3.161   3.009  0.1201  0.1905 -0.1389
39418W        W48218  29.156   2.692  17.994 -0.1118  0.2189  0.2786
39419W        W48219  12.031   5.844  23.982  0.1328  0.1117 -0.1510
39420W        W48220   9.004   1.019  17.861  0.0333 -0.3276 -0.0559
39421W        W48221   8.793   4.840  18.068  0.1212 -0.1246 -0.1585
39422W        W48222   2.389   5.643   6.664 -0.0576  0.1746  0.5133
39423W        W48223  27.285   1.469   6.449  0.1678  0.3127 -0.2210
39424W        W48224  10.093   4.018   3.445  0.3051  0.0762 -0.0681
39425W        W48225  25.541   4.852  25.116  0.1631 -0.0675  0.2405
39426W        W48226   4.570   4.094   1.192  0.1611 -0.0487  0.2647
39427W        W48227  22.375   2.117  20.537 -0.0581  0.0210 -0.0473
39428W        W48228   9.011   4.484  25.057  0.3615 -0.1204  0.2104
39429W        W48229  20.558   7.137   2.143 -0.1480  0.1157  0.0048
39430W        W48230  18.328   3.467  17.963 -0.0156  0.2042 -0.3093
39431W        W48231   9.005   2.563   7.872 -0.1633  0.1644 -0.0714
39432W        W48232  16.274   4.919  17.745 -0.0126 -0.1693 -0.2337
39433W        W48233  13.453   1.408  25.432  0.3279  0.0898 -0.0170
39434W        W48234  18.504   2.699   0.729  0.1259 -0.2094 -0.0391
39435W        W48235   3.820   2.747   6.718 -0.0145 -0.2877  0.2083
39436W        W48236   6.688   6.887   3.037  0.1442  0.0021 -0.0655
39437W        W48237  15.531   7.645  21.721 -0.3392 -0.0016  0.1212
39438W        W48238  12.272   2.760  22.755  0.2434 -0.0045  0.1255
39439W        W48239   7.963   4.311   6.498  0.0016 -0.3291  0.0856
39440W        W48240   7.918   0.926  26.104  0.2058 -0.1373  0.4108
39441W        W48241   9.262   2.450  16.264 -0.4145  0.0691  0.1389
39442W        W48242  29.510   6.325  20.585 -0.0262 -0.1480 -0.1683
39443W        W48243   2.689   5.052   0.674  0.0151 -0.0258 -0.2414
39444W        W48244   0.029   0.648  16.983 -0.1448 -0.4770  0.2039
39445W        W48245  19.734   5.673   4.260  0.0382 -0.1381 -0.1889
39446W        W48246   3.076   7.797   7.918 -0.4352 -0.1532 -0.1631
39447W        W48247   2.291   1.192  11.391  0.2858  0.0900  0.1407
39448W        W48248   5.783   1.830  19.296  0.0338 -0.0449 -0.1754
39449W        W48249  14.843   5.175   6.512  0.3030 -0.2466  0.1257
39450W        W48250  21.993   3.573   5.014  0.3511 -0.0780  0.0528
39451W        W48251   9.234   2.918   3.006 -0.0779  0.0561 -0.1276
39452W        W48252  26.491   7.155  21.766 -0.2282 -0.0662 -0.1118
39453W        W48253  17.235   0.612  16.334 -0.0255 -0.2570  0.0521
39454W        W48254  14.950   3.941  18.806  0.1755  0.2533  0.0671
39455W        W48255  10.309   3.349  25.521  0.2793  0.2768 -0.1761
39456W        W48256   7.463   4.491  20.073  0.1500 -0.0781  0.3026
39457W        W48257  18.081   0.795  26.113  0.0905  0.1993 -0.2041
39458W        W48258  15.996   3.985   8.540 -0.0766  0.3559 -0.1360
39459W        W48259  12.641   0.022   1.233 -0.0195 -0.2375 -0.0003
39460W        W48260   8.044   5.743  21.000 -0.2740  0.3445  0.1891
39461W        W48261   2.098   1.817   6.469 -0.0022  0.0254 -0.1824
39462W        W48262   8.339   0.482  19.583  0.0217  0.0938 -0.1572
39463W        W48263   1.650   3.445  25.388 -0.5390  0.0918 -0.0938
39464W        W48264   9.801   4.321   5.007 -0.1233  0.0984  0.2150
39465W        W48265  16.697   1.954  17.937 -0.0273 -0.1508 -0.0818
39466W        W48266  19.817   2.196  16.301  0.2756 -0.1002  0.4981
39467W        W48267  11.024   7.616  22.272 -0.2485 -0.1501  0.0244
39468W        W48268  24.323   2.368  17.410  0.0046  0.1774 -0.2966
39469W        W48269  17.408   6.860   3.644  0.3815  0.0550  0.0365
39470W        W48270  13.985   5.588  16.592 -0.5262  0.0744 -0.3491
39471W        W48271  15.191   3.051  19.907  0.0544  0.2155  0.3948
39472W        W48272  18.665   6.738  22.560  0.2728 -0.2231  0.1309
39473W        W48273  26.819   1.188   8.177  0.0854  0.1595  0.1094
39474W        W48274  24.118   3.881  18.934 -0.0379 -0.1982 -0.2945
39475W        W48275   0.795   1.913  22.331  0.1664  0.0509 -0.3973
39476W        W48276  29.166   4.404   1.056  0.2489  0.0880 -0.6589
39477W        W48277  25.843   1.599   3.436 -0.1274  0.0887 -0.1619
39478W        W48278   7.455   5.037   1.874 -0.3652 -0.0254  0.0464
39479W        W48279  19.146   4.535  10.058 -0.1535  0.3869 -0.0021
39480W        W48280  21.447   1.117   3.315  0.1141 -0.1003 -0.2928
39481W        W48281  25.380   7.178  10.503  0.2582  0.3704 -0.0992
39482W        W48282   7.991   0.500  15.627 -0.1830 -0.0870  0.3426
39483W        W48283   0.688   3.403   7.140 -0.1572  0.1240 -0.1127
39484W        W48284   7.420   5.765  22.925  0.0558 -0.1630 -0.4961
39485W        W48285  25.488   7.761  25.376 -0.0319 -0.2051  0.0930
39486W        W48286   3.584   7.295  15.874 -0.2559 -0.0303 -0.1183
39487W        W48287  17.436   4.803  25.023  0.1107  0.0802  0.0553
39488W        W48288  19.602   6.712   0.717  0.1776  0.0982  0.1709
39489W        W48289  30.385   5.952   8.269 -0.0592 -0.2298 -0.0424
39490W        W48290  23.502   7.719   0.849  0.3002  0.1144  0.3359
39491W        W48291  28.840   6.783   2.968 -0.1081  0.2665 -0.1320
39492W        W48292  28.633   1.161  23.179  0.1238 -0.3001  0.2440
39493W        W48293  30.576   5.767  22.696 -0.1483 -0.0575  0.0606
39494W        W48294  25.926   6.410   9.370  0.2623 -0.1221  0.0452
39495W        W48295  22.343   7.796   5.408  0.2148 -0.3962  0.0794
39496W        W48296   2.623   5.752  23.329  0.1386 -0.0531  0.2086
39497W        W48297  11.907   3.805  15.442 -0.1269 -0.1000 -0.0246
39498W        W48298  24.507   5.915   1.275 -0.0362  0.1860  0.1873
39499W        W48299   2.385   0.721  25.143 -0.2824  0.0131 -0.4334
39500W        W48300  16.692   0.329   6.567  0.1043 -0.0892 -0.1881
39501W        W48301   5.734   1.757   6.592  0.0337  0.1167  0.1304
39502W        W48302  24.994   1.758   9.724  0.0033  0.1774 -0.0723
39503W        W48303  26.053   6.753  22.708 -0.0610  0.1490  0.1745
39504W        W48304  26.321   2.621  18.559  0.3460 -0.2315  0.2134
39505W        W48305  20.658   5.992   0.105 -0.0580  0.0039 -0.1898
39506W        W48306  28.187   3.175  19.692 -0.1695  0.2024  0.1596
39507W        W48307   2.999   4.578  16.826  0.1631  0.1000 -0.1917
39508W        W48308  10.070   6.697   9.494 -0.0531  0.0500  0.2231
39509W        W48309  25.505   3.073  19.654 -0.0221  0.0690 -0.1904
39510W        W48310  24.524   1.537   2.746  0.0535  0.0466 -0.2049
39511W        W48311  13.910   7.743   7.319  0.1090 -0.0411  0.0148
39512W        W48312  30.585   1.674   8.793  0.1269  0.0554  0.0303
39513W        W48313   3.272   0.273  23.644 -0.1304 -0.2313  0.0916
39514W        W48314   1.970   3.710   0.695  0.2638  0.2278 -0.0317
39515W        W48315   9.213   6.132  10.233 -0.2227 -0.0775  0.4958
39516W        W48316  16.812   1.410  11.215  0.0683 -0.1844  0.0607
39517W        W48317  26.078   0.639   7.130  0.1025 -0.4993  0.2664
39518W        W48318   5.237   1.059  25.556 -0.0492 -0.1327  0.0219
39519W        W48319  23.688   0.033  16.957 -0.2029  0.1655 -0.2773
39520W        W48320  21.130   3.377   8.193  0.0354  0.2377  0.1851
39521W        W48321   3.735   1.520  11.126  0.0069  0.0854 -0.1545
39522W        W48322  17.978   5.128   5.210  0.1899  0.4152  0.1243
39523W        W48323   4.503   5.304  23.614  0.2432 -0.0021 -0.3097
39524W        W48324   9.983   5.860   3.968  0.1350 -0.4360 -0.1467
39525W        W48325   0.672   6.236   4.267 -0.2043 -0.1655  0.3013
39526W        W48326  20.038   1.035   4.884  0.0276 -0.0261  0.0150
39527W        W48327  16.960   4.415  21.619  0.2368 -0.2985  0.0999
39528W        W48328   8.900   2.153  24.114 -0.1698 -0.2314 -0.1242
39529W        W48329   4.815   3.492   3.127 -0.1056  0.1737 -0.2293
39530W        W48330  27.298   4.484  16.046  0.0892 -0.1021 -0.1903
39531W        W48331   7.565   0.626  24.338 -0.0326 -0.0074  0.0082
39532W        W48332  16.944   3.004   3.534  0.2590 -0.0356 -0.0625
39533W        W48333   2.780   4.711   1.064  0.1173  0.2377  0.1917
39534W        W48334  22.581   5.516   1.347 -0.0916 -0.0851  0.3798
39535W        W48335  14.455   1.869   0.112  0.2649  0.1163  0.2783
39536W        W48336   7.251   7.517   4.445  0.1076 -0.0581  0.0742
39537W        W48337  13.065   6.209   9.841  0.0281 -0.3531  0.1823
39538W        W48338  28.160   5.873   9.758 -0.0104 -0.1047  0.1596
39539W        W48339  19.677   6.881  15.342 -0.1597  0.2185 -0.0210
39540W        W48340   0.872   5.524  21.739  0.0887 -0.0214 -0.3269
39541W        W48341  19.893   5.262  23.703 -0.2337  0.2586  0.1099
39542W        W48342  18.321   7.364  17.199  0.1931 -0.1751  0.0722
39543W        W48343  26.077   2.146  15.394  0.1417  0.0092 -0.0021
39544W        W48344  13.308   5.596  25.942  0.0488 -0.1560  0.1514
39545W        W48345   8.409   5.354   4.929  0.4466  0.0136 -0.0500
39546W        W48346  15.278   1.627   4.133 -0.2529  0.1918 -0.0444
39547W        W48347  27.298   3.795   2.648 -0.2442 -0.0141  0.1534
39548W        W48348  28.715   5.217  24.562  0.1757  0.0843 -0.2554
39549W        W48349  15.722   7.145   7.693  0.1240 -0.0770  0.0957
39550W        W48350  22.916   5.175   2.528  0.1226 -0.0700 -0.0210
39551W        W48351  15.358   5.118   2.088 -0.0630  0.2677 -0.3429
39552W        W48352  19.104   0.296   1.163 -0.0218  0.0850 -0.3344
39553W        W48353  28.218   5.952  21.378 -0.2314  0.1208 -0.0213
39554W        W48354  19.582   1.210  15.419 -0.0055 -0.0408  0.0844
39555W        W48355  27.549   5.305   3.096 -0.1689  0.2971 -0.3028
39556W        W48356  17.382   1.346  25.938  0.3230 -0.1455  0.1523
39557W        W48357  19.927   6.695  25.599  0.1690 -0.0851 -0.1298
39558W        W48358  26.055   0.001  21.870  0.1665  0.0287 -0.0737
39559W        W48359  25.166   5.307   8.333 -0.0722  0.2133 -0.2140
39560W        W48360  18.270   5.350   5.573  0.1030 -0.3554  0.1830
39561W        W48361   3.468   7.242  20.854 -0.0556 -0.0270  0.1243
39562W        W48362  24.224   7.593   6.659 -0.3914 -0.0441 -0.0579
39563W        W48363  20.550   1.231   5.761 -0.2037  0.4641 -0.3002
39564W        W48364   7.637   6.651  19.237  0.0994  0.0020  0.1320
39565W        W48365   3.358   3.059   5.262  0.0252 -0.1739 -0.0391
39566W        W48366  28.321   7.389   5.235  0.1105 -0.2455  0.1429
39567W        W48367   6.188   1.931   8.362 -0.1531 -0.1697  0.0157
39568W        W48368  15.395   4.459  11.641 -0.1034  0.3913 -0.0898
39569W        W48369  10.346   5.777  17.964  0.1878  0.3053 -0.0383
39570W        W48370  19.412   3.043  10.486  0.0315  0.1669 -0.0921
39571W        W48371  14.962   5.017  11.036 -0.0670 -0.1138 -0.0090
39572W        W48372  11.819   0.759   9.293  0.0064  0.2114 -0.1570
39573W        W48373  19.251   3.749  15.373  0.1298  0.1496 -0.3207
39574W        W48374  23.370   5.678  23.539 -0.0247  0.2331 -0.0379
39575W        W48375  30.898   4.067  25.147  0.0074  0.1156  0.2863
39576W        W48376  26.430   4.048   0.520  0.0917 -0.3258 -0.1468
39577W        W48377   5.582   2.908   2.876  0.2032  0.0617  0.4070
39578W        W48378   4.870   5.826   7.138  0.2440 -0.1302  0.0997
39579W        W48379   7.777   3.855   3.280 -0.1458 -0.1022  0.0583
39580W        W48380  29.953   3.004  19.429  0.0219 -0.0915  0.1405
39581W        W48381  11.068   1.007   6.422  0.0090 -0.0287 -0.1161
39582W        W48382   4.268   4.443   4.314 -0.3663 -0.1523  0.1658
39583W        W48383  21.063   6.626   5.304  0.0481  0.0217 -0.0519
39584W        W48384   8.943   6.675   0.988  0.0368 -0.0481 -0.0434
39585W        W48385  16.576   6.293  16.833 -0.0190 -0.0875  0.2779
39586W        W48386  27.355   1.685   5.125  0.1307  0.2074 -0.0978
39587W        W48387  14.226   6.330   6.962 -0.0591  0.0318  0.2434
39588W        W48388  22.283   3.984  22.876  0.0706  0.2901 -0.2306
39589W        W48389  31.018   5.746   8.811 -0.0336  0.0470  0.0912
39590W        W48390  16.575   7.740  25.645 -0.1798 -0.2146 -0.0689
39591W        W48391  21.307   0.826   0.738 -0.0377 -0.3187 -0.3926
39592W        W48392   3.633   7.593  16.877  0.0019  0.1241 -0.2745
39593W        W48393  12.591   2.277   4.273 -0.1588 -0.0892  0.0246
39594W        W48394   2.746   0.543   9.129  0.3149  0.0435 -0.0180
39595W        W48395   0.833   1.949   1.245  0.1787  0.0672  0.1162
39596W        W48396  18.503   0.946  20.623 -0.3018 -0.3877  0.0984
39597W        W48397  13.250   2.889  21.777  0.0029  0.0123  0.2215
39598W        W48398  26.907   4.216   5.411  0.1714  0.2964  0.1406
39599W        W48399  29.396   2.404  22.436 -0.0256 -0.0041 -0.0668
39600W        W48400  12.343   4.456   5.184 -0.2291  0.3940  0.2509
39601W        W48401   3.131   7.114  24.375 -0.2622  0.1548  0.0914
39602W        W48402  21.506   7.267  19.877 -0.1988 -0.1897 -0.1510
39603W        W48403   4.132   7.444   3.668  0.1092 -0.1915 -0.1509
39604W        W48404   0.433   1.332  25.786  0.0555 -0.1016 -0.2742
39605W        W48405  21.758   3.465   3.164  0.1726  0.0192  0.1880
39606W        W48406  14.133   0.223  19.796 -0.0328  0.0574  0.2591
39607W        W48407   2.383   4.127  20.739  0.1729  0.0048  0.0805
39608W        W48408   7.514   7.454  21.477 -0.2209  0.1455 -0.0287
39609W        W48409   8.652   6.265  21.560 -0.2202  0.0872  0.2388
39610W        W48410   7.179   4.581  23.208 -0.0419 -0.1399  0.1985
39611W        W48411   9.856   3.963   4.642 -0.3616 -0.0956 -0.1167
39612W        W48412   5.111   0.465  23.407 -0.1520 -0.0817 -0.0004
39613W        W48413  30.625   6.809  22.397  0.0912 -0.4322 -0.1080
39614W        W48414  13.423   3.814   3.503  0.1455 -0.0925  0.0998
39615W        W48415  28.301   5.738  18.457 -0.2225  0.0667  0.0381
39616W        W48416  14.785   1.228  26.062 -0.0973 -0.0714  0.1860
39617W        W48417  13.562   4.860  16.731  0.0911  0.0269 -0.0749
39618W        W48418  22.330   0.560   6.885  0.0587 -0.1785  0.1854
39619W        W48419  18.351   5.179   4.783 -0.0227 -0.1631 -0.1575
39620W        W48420  30.333   2.622  10.129  0.1652  0.1827 -0.0886
39621W        W48421  24.515   3.011   1.936 -0.0925 -0.0607  0.1742
39622W        W48422  25.504   1.426  15.789  0.0153 -0.1375 -0.2871
39623W        W48423   8.822   3.640   3.433  0.3107 -0.0464 -0.1942
39624W        W48424  21.300   0.287   8.920 -0.1512 -0.1558  0.0534
39625W        W48425  10.839   6.524  20.302 -0.0384  0.2694 -0.0542
39626W        W48426  24.980   3.674   8.768  0.2175 -0.2748  0.1218
39627W        W48427   0.083   0.236  10.299 -0.0079  0.0535  0.1566
39628W        W48428  30.973   6.722  23.519  0.0389  0.3456 -0.0230
39629W        W48429   4.097   3.147  24.953 -0.0957  0.3569 -0.2168
39630W        W48430  29.082   5.278   2.909 -0.0558 -0.2231  0.0536
39631W        W48431  29.247   0.813   0.581 -0.1112  0.2326 -0.2968
39632W        W48432  15.392   0.894   5.633 -0.2125  0.3896 -0.1425
39633W        W48433  10.590   4.105   3.997 -0.0025  0.1993 -0.2788
39634W        W48434   1.506   7.791   1.041  0.2093  0.1144 -0.0832
39635W        W48435  26.950   5.981  17.581  0.3319 -0.2212 -0.2303
39636W        W48436  13.741   1.033   3.673  0.0071  0.0470 -0.2828
39637W        W48437  25.804   0.089  17.280 -0.0337 -0.0428 -0.2116
39638W        W48438  17.852   2.080   1.854  0.3373  0.1492  0.1431
39639W        W48439  29.543   4.677  24.965  0.1824  0.1328 -0.2292
39640W        W48440  20.703   4.870   8.136 -0.0025 -0.0240  0.2719
39641W        W48441  23.034   6.087  15.493  0.2112 -0.0257 -0.3555
39642W        W48442  22.080   4.602   9.811 -0.1786  0.3504 -0.2350
39643W        W48443   4.628   3.710  18.006  0.1393  0.2826 -0.1033
39644W        W48444  14.654   0.152  19.221  0.0462 -0.1113  0.0486
39645W        W48445   8.891   1.585  18.944 -0.2666  0.3703 -0.0043
39646W        W48446  26.290   3.128  19.427  0.2222 -0.3041  0.2205
39647W        W48447   2.714   3.979  23.874  0.3192  0.0842  0.2252
39648W        W48448  11.953   5.063  23.464  0.2185  0.0052 -0.0182
39649W        W48449   4.500   0.612   0.452 -0.2793  0.2556 -0.1883
39650W        W48450   3.861   7.766  17.291 -0.2562  0.0897 -0.5248
39651W        W48451  26.377   1.963   1.108 -0.0832  0.3299 -0.1494
39652W        W48452  11.766   1.177  19.699  0.3409 -0.1282 -0.2345
39653W        W48453  12.996   3.416  24.589 -0.2775 -0.0131  0.0831
39654W        W48454  25.895   7.284  16.966  0.0595  0.2118  0.2933
39655W        W48455   6.864   1.353   9.242 -0.6668  0.0306  0.0736
39656W        W48456  14.721   2.083  18.697 -0.0499  0.0326 -0.0397
39657W        W48457   7.720   2.102  22.512  0.0515 -0.1163 -0.1840
39658W        W48458   7.910   3.862  17.871 -0.1650 -0.1629  0.1892
39659W        W48459  13.721   6.264   9.232  0.0676 -0.0889 -0.1059
39660W        W48460  29.170   2.044  15.705 -0.2526  0.0067 -0.1795
39661W        W48461  20.870   5.717  15.092 -0.2198  0.1186 -0.0621
39662W        W48462   7.496   0.168   7.500  0.1002  0.1381  0.1034
39663W        W48463   5.605   2.479   6.837 -0.0061  0.0628 -0.2398
39664W        W48464   6.166   2.954  10.002 -0.0963  0.0777  0.0404
39665W        W48465  17.018   7.555  23.924  0.0519  0.0586  0.1605
39666W        W48466  20.461   5.537  17.839  0.1574 -0.1074 -0.1871
39667W        W48467  26.921   3.259  19.297  0.0030 -0.1088 -0.0367
39668W        W48468  14.364   2.306   5.151  0.0220  0.1880  0.1463
39669W        W48469   1.553   0.196  25.933  0.0646 -0.0765  0.2316
39670W        W48470  20.502   5.754  24.571 -0.2258 -0.3294 -0.0208
39671W        W48471  24.657   4.423  19.441 -0.1717 -0.0805 -0.0729
39672W        W48472   9.465   2.763   8.803  0.1484  0.0782  0.1057
39673W        W48473   5.539   1.050   8.191  0.0980 -0.2255  0.2515
39674W        W48474   4.923   1.960  23.601  0.0849  0.1315 -0.0523
39675W        W48475   8.773   0.583  23.829  0.2153 -0.1192 -0.2271
39676W        W48476  21.590   6.362   4.059 -0.3958  0.0832  0.0422
39677W        W48477  16.223   7.156   1.206  0.0762  0.0020  0.2057
39678W        W48478   1.250   4.580   5.261  0.4780  0.1447 -0.1815
39679W        W48479  16.486   5.111  22.972 -0.3813  0.1700 -0.2419
39680W        W48480  22.316   4.584   7.729  0.0171  0.2218 -0.1983
39681W        W48481  22.504   1.953  22.075  0.1629 -0.1577  0.1737
39682W        W48482  31.278   6.434  10.817 -0.0138  0.3979 -0.0105
39683W        W48483  20.170   2.651  19.520 -0.0371 -0.0817 -0.1564
39684W        W48484  20.091   1.585   6.512  0.0425  0.3282 -0.3726
39685W        W48485   5.151   0.665   7.943  0.1015 -0.0596  0.3301
39686W        W48486  13.051   0.780  10.513 -0.3826  0.0333 -0.2646
39687W        W48487  13.724   3.090  24.801  0.1413  0.2892 -0.0782
39688W        W48488  22.107   3.079   2.268  0.3061 -0.2865  0.1118
39689W        W48489   5.613   5.688   3.217 -0.0922  0.0170 -0.0893
39690W        W48490  13.537   5.753   9.154 -0.0428 -0.1373  0.0930
39691W        W48491  17.218   6.516  17.239  0.1351  0.1955 -0.6396
39692W        W48492  10.171   1.443   1.244  0.2460  0.0331  0.1768
39693W        W48493   8.184   1.125   1.417 -0.0841  0.0088 -0.0463
39694W        W48494  14.709   7.649   3.896  0.0233 -0.0669 -0.2217
39695W        W48495   3.966   7.137  19.725  0.0518 -0.0694 -0.2301
39696W        W48496   6.505   1.796  23.155 -0.4134 -0.3625 -0.0932
39697W        W48497  19.647   2.707  10.227 -0.0018  0.1030 -0.1504
39698W        W48498   4.625   5.298  22.736  0.4088 -0.3423 -0.1268
39699W        W48499   0.637   1.528   7.209  0.2262 -0.0011 -0.0830
39700W        W48500  29.658   4.228   6.313  0.0108 -0.1562  0.2071
39701W        W48501  29.346   6.296  21.526  0.3848 -0.0874 -0.2122
39702W        W48502   0.964   7.137   8.739 -0.0491  0.0607 -0.0846
39703W        W48503   4.776   7.771  10.988  0.1964  0.2890  0.3675
39704W        W48504  17.683   2.424   3.799 -0.0063 -0.1660  0.2415
39705W        W48505  14.379   3.588  24.138  0.0990  0.1645 -0.1335
39706W        W48506  19.845   4.631   7.414 -0.0153  0.0818 -0.3479
39707W        W48507   0.260   4.203   4.594 -0.0277 -0.0505  0.4846
39708W        W48508   3.750   4.848   6.904  0.0397  0.0293 -0.0884
39709W        W48509   1.693   6.588  11.226  0.1493 -0.0873 -0.2506
39710W        W48510  22.158   2.153  18.480 -0.3369  0.3152  0.2528
39711W        W48511  14.633   2.981   1.968 -0.0562  0.2321  0.2981
39712W        W48512  19.969   4.305  16.412  0.2159  0.0798  0.2005
39713W        W48513  15.243   1.134   8.985  0.0434 -0.1027  0.1492
39714W        W48514   3.687   6.329  17.213  0.0276  0.0423 -0.1803
39715W        W48515  13.884   5.226  15.634  0.1168  0.1353 -0.0606
39716W        W48516   6.209   4.359   5.711  0.1729 -0.1521  0.1140
39717W        W48517  20.377   0.019  21.703  0.3043  0.0573  0.0812
39718W        W48518   2.184   0.564   3.582 -0.0806  0.0427 -0.0310
39719W        W48519  24.588   4.309  18.904 -0.1563 -0.0120  0.0673
39720W        W48520  15.770   3.122   7.263 -0.3537 -0.0672 -0.0609
39721W        W48521  14.938   0.213  23.387  0.0305  0.2529 -0.0821
39722W        W48522   5.641   5.895   0.530 -0.0834  0.1176  0.0583
39723W        W48523  12.326   4.776  17.581  0.2924  0.0133 -0.0904
39724W        W48524   4.072   0.881   5.119  0.1042  0.0592  0.0718
39725W        W48525  11.973   4.600   3.183  0.0471 -0.0129  0.2198
39726W        W48526  16.364   2.838  17.149 -0.2906  0.0573  0.3972
39727W        W48527  25.209   1.162   7.228  0.1769 -0.0755 -0.2263
39728W        W48528  23.184   2.139  16.461  0.3230 -0.3347 -0.1636
39729W        W48529  28.365   3.025  20.939  0.1101 -0.0491 -0.0592
39730W        W48530  24.209   4.682  25.788  0.2712 -0.0351  0.1883
39731W        W48531  20.313   7.196   7.880  0.0474  0.0902 -0.0463
39732W        W48532  29.550   2.799  25.932 -0.0136 -0.0055  0.2935
39733W        W48533  26.242   7.049   6.594  0.0286  0.3154 -0.0841
39734W        W48534  28.938   7.340  22.972 -0.0639 -0.1548 -0.0387
39735W        W48535  19.440   0.114  19.928  0.1306  0.0968  0.2882
39736W        W48536  11.405   6.714  23.938  0.2574 -0.0923  0.3427
39737W        W48537  29.989   4.526  17.654  0.0896  0.2765 -0.0321
39738W        W48538   4.665   3.026   3.060 -0.0396 -0.2074 -0.1107
39739W        W48539   4.595   3.112   9.211  0.0472 -0.2083  0.3476
39740W        W48540  15.956   4.363  23.139 -0.1816  0.1612 -0.1316
39741W        W48541  11.688   0.121  23.932  0.0726  0.2097  0.0513
39742W        W48542  30.981   6.738   3.966 -0.2117  0.0297  0.0134
39743W        W48543  25.749   1.590  10.407 -0.1659  0.3328 -0.2813
39744W        W48544  21.974   6.514  22.191 -0.2286  0.1011 -0.1009
39745W        W48545   1.903   1.540   0.413  0.0109 -0.1260  0.1465
39746W        W48546   5.196   2.532   3.783 -0.0851  0.2655 -0.0453
39747W        W48547  17.179   6.508  16.135  0.0102 -0.1207  0.0596
39748W        W48548  13.744   5.622  17.903 -0.2224 -0.3429 -0.0325
39749W        W48549   0.178   6.035  21.792  0.1183 -0.1688  0.0580
39750W        W48550  25.575   5.900   0.721 -0.1054 -0.0699 -0.2096
39751W        W48551   5.795   2.199   6.475 -0.5398 -0.1697 -0.1845
39752W        W48552  19.712   6.115   7.659  0.0529 -0.0566 -0.0857
39753W        W48553  24.597   5.804   5.144 -0.0164 -0.0777  0.0760
39754W        W48554   6.625   2.686  15.179  0.0881 -0.2495 -0.2462
39755W        W48555  12.654   3.587  17.724 -0.0917 -0.1530  0.0594
39756W        W48556   6.034   1.206  17.490 -0.2024 -0.1866  0.0209
39757W        W48557  15.366   0.763  20.279 -0.0043  0.0895 -0.1759
39758W        W48558  20.040   2.593  25.153  0.0173  0.0072 -0.1914
39759W        W48559  19.482   6.439   1.910  0.4079 -0.0671 -0.0877
39760W        W48560   3.411   3.769  17.700  0.1013 -0.6887 -0.0138
39761W        W48561  11.992   4.130  23.382  0.2700 -0.0604 -0.2425
39762W        W48562  16.479   2.887  20.353 -0.0300  0.3240 -0.3338
39763W        W48563  20.556   2.359   1.985 -0.3426 -0.1352  0.1491
39764W        W48564  12.193   5.288  21.282 -0.0209  0.3380  0.0532
39765W        W48565  29.710   7.630  19.968 -0.1918  0.1183  0.1021
39766W        W48566   3.800   7.491  17.690  0.1213 -0.1959  0.0331
39767W        W48567   5.939   7.457   6.839 -0.1335  0.0337 -0.4649
39768W        W48568   6.970   2.514   4.955  0.2165  0.1672 -0.1280
39769W        W48569  26.838   0.150   5.721 -0.1810 -0.0036 -0.1708
39770W        W48570   9.443   1.501   2.264 -0.3528 -0.2258 -0.1132
39771W        W48571  18.874   2.188  21.836  0.1357 -0.1142  0.0587
39772W        W48572  25.895   1.878  19.283 -0.2045 -0.3092  0.1738
39773W        W48573  27.884   7.538  26.039  0.1067 -0.2810 -0.2534
39774W        W48574   3.877   6.472  20.463  0.0359 -0.3501 -0.1463
39775W        W48575  20.513   7.702  20.721 -0.2930 -0.0957 -0.1537
39776W        W48576  30.523   4.688  18.389  0.0056  0.0640 -0.0556
39777W        W48577   9.001   6.115   6.189 -0.0222 -0.2041 -0.4921
39778W        W48578  20.199   6.866   2.355  0.0763 -0.0571  0.1295
39779W        W48579  28.951   2.680   0.904 -0.1269 -0.0021  0.2939
39780W        W48580   8.008   7.393  25.773 -0.0177 -0.0830 -0.1159
39781W        W48581  16.546   1.500  17.244  0.2382 -0.2721  0.0599
39782W        W48582  30.824   2.309   6.976 -0.0655  0.0718  0.2899
39783W        W48583  13.619   2.853  14.615  0.0080  0.2893 -0.1411
39784W        W48584  15.106   0.883   0.786  0.3243 -0.1963  0.0280
39785W        W48585  30.300   1.200  10.703 -0.0036  0.0006  0.0494
39786W        W48586  24.567   0.548  23.803  0.1050  0.0038 -0.0219
39787W        W48587  31.192   6.252   6.922 -0.1114 -0.0183 -0.2974
39788W        W48588  24.696   7.459  25.871 -0.0249 -0.0610 -0.1148
39789W        W48589  22.142   3.060   4.927 -0.2004 -0.1186  0.1813
39790W        W48590   3.899   4.082   6.011  0.2306  0.2742 -0.5119
39791W        W48591  18.428   1.459   8.615 -0.2303 -0.1275 -0.0523
39792W        W48592   2.829   6.802   9.899  0.2051  0.2254 -0.0931
39793W        W48593  25.324   5.112   9.125 -0.2570 -0.0776 -0.3065
39794W        W48594  30.733   1.198  24.977 -0.1821 -0.0296 -0.2120
39795W        W48595  18.918   6.631   6.839  0.1933  0.3087 -0.1023
39796W        W48596   6.953   4.452  25.573 -0.0646  0.3449  0.1954
39797W        W48597   7.406   1.085  15.322  0.4682 -0.1710 -0.3481
39798W        W48598   0.782   0.803   9.277 -0.0350  0.1393  0.1129
39799W        W48599  14.554   4.084  23.045  0.1595 -0.4057  0.0337
39800W        W48600  15.966   0.035  21.615 -0.1600  0.4863 -0.0382
39801W        W48601   6.509   2.205  23.455 -0.1161 -0.0846 -0.2430
39802W        W48602  18.582   6.780   7.746 -0.1974 -0.2215  0.3988
39803W        W48603  14.106   6.655  21.088 -0.1895 -0.4362 -0.1624
39804W        W48604   8.328   0.497   9.668 -0.1041 -0.0097 -0.3450
39805W        W48605  31.190   4.521  10.573  0.0836  0.1850 -0.1340
39806W        W48606   7.413   7.451   9.024 -0.0584  0.0946 -0.1829
39807W        W48607  17.104   1.641  25.670  0.1189 -0.1334  0.2826
39808W        W48608  25.005   7.220  15.386 -0.0806  0.0122 -0.0113
39809W        W48609   9.066   3.702  20.046  0.0807 -0.0816  0.1516
39810W        W48610  12.087   6.251  18.558  0.0732 -0.0546  0.3194
39811W        W48611  12.462   4.459  10.657  0.1258  0.0341  0.1572
39812W        W48612  24.884   3.184  20.397  0.0736 -0.2449  0.0930
39813W        W48613  29.407   3.316  16.322  0.0908 -0.4325  0.0544
39814W        W48614   7.199   7.644  24.715 -0.0250  0.1563 -0.0090
39815W        W48615   7.655   0.196  17.032 -0.0288  0.1143  0.1626
39816W        W48616  13.011   7.693  17.638 -0.2166 -0.0932 -0.2045
39817W        W48617  27.265   3.629  25.547 -0.0791 -0.1757 -0.1027
39818W        W48618  17.454   1.401   8.615  0.1626 -0.0828 -0.0369
39819W        W48619   5.391   5.938   7.279 -0.3248  0.2270 -0.0409
39820W        W48620   9.670   7.483  24.778  0.1603  0.0720  0.2587
39821W        W48621  26.956   1.363  21.719 -0.1964 -0.0412  0.2632
39822W        W48622  19.877   0.935  17.092 -0.0257 -0.0694  0.1486
39823W        W48623  26.788   7.240   5.098  0.0071 -0.0539 -0.1067
39824W        W48624  19.144   5.875   4.777  0.1775 -0.0230 -0.3040
39825W        W48625   3.237   0.981  17.706 -0.1646 -0.0215 -0.0441
39826W        W48626  27.008   7.268  10.557 -0.0678 -0.1019  0.1391
39827W        W48627  19.342   3.056  16.769  0.1220 -0.0466  0.0794
39828W        W48628  16.595   0.082   7.038  0.2862  0.1155 -0.0739
39829W        W48629   2.847   6.404   5.557 -0.2106 -0.4054 -0.2184
39830W        W48630  27.696   3.856   3.356 -0.0164  0.0093 -0.0801
39831W        W48631  30.401   2.625   4.782 -0.0017 -0.0340  0.1392
39832W        W48632  20.325   1.161   7.407 -0.1943 -0.3558  0.1499
39833W        W48633  28.075   7.432  16.742  0.1788 -0.0015  0.2563
39834W        W48634  19.244   4.083  16.981 -0.2582 -0.0228 -0.1396
39835W        W48635  16.703   7.153   4.731  0.0564  0.0232  0.0402
39836W        W48636  26.509   0.708  10.016 -0.0161 -0.2837 -0.1804
39837W        W48637  21.990   4.809  21.527 -0.0028  0.0918 -0.0521
39838W        W48638  19.381   6.121   5.539  0.0811  0.0812  0.1796
39839W        W48639   8.140   7.311   8.683  0.0068 -0.1207  0.1561
39840W        W48640   0.121   2.103  19.376  0.0847  0.1302  0.3114
39841W        W48641   1.503   6.060  25.324  0.0547  0.2089 -0.0993
39842W        W48642  18.510   3.033   2.857  0.0030  0.0396 -0.0337
39843W        W48643   5.038   4.561   6.790 -0.1484 -0.1644  0.2324
39844W        W48644  29.040   2.494   6.624  0.0939  0.0791  0.3757
39845W        W48645   8.711   6.219  25.874  0.1162  0.1218 -0.0882
39846W        W48646   1.612   2.779  16.137  0.0254  0.1190  0.1581
39847W        W48647   8.571   2.017  15.674 -0.0385 -0.0564 -0.1972
39848W        W48648   5.286   4.191  18.266  0.1570  0.0165  0.0455
39849W        W48649  16.455   0.699   3.161  0.1416  0.1373 -0.4520
39850W        W48650  29.478   6.154   9.721 -0.0158  0.0278 -0.0690
39851W        W48651   2.275   7.385  22.308  0.1355 -0.0950  0.0871
39852W        W48652  23.269   3.899   0.267 -0.1788 -0.0414  0.0648
39853W        W48653  16.706   0.579   7.287 -0.1218 -0.0851  0.0209
39854W        W48654  19.838   1.691  10.090  0.2677  0.0236  0.0879
39855W        W48655  27.243   6.688   3.961  0.1566 -0.3309  0.3741
39856W        W48656  14.147   6.881  15.688 -0.1087  0.3839 -0.0658
39857W        W48657  21.411   3.939  21.246 -0.1249  0.0842 -0.1227
39858W        W48658   2.408   5.760   8.009 -0.1599 -0.1285  0.1105
39859W        W48659   2.484   2.615  20.681 -0.4177  0.1491 -0.0075
39860W        W48660  30.785   1.716   9.251  0.0288 -0.0218  0.3073
39861W        W48661   2.699   4.947  25.194  0.0266  0.1785 -0.1237
39862W        W48662  20.261   5.194  20.803  0.1073  0.1051  0.1809
39863W        W48663   6.858   1.921  15.543  0.2327  0.0875  0.0527
39864W        W48664  13.925   1.239  10.196  0.0442  0.1916 -0.2363
39865W        W48665  23.432   1.008   4.225  0.2330  0.0050  0.0755
39866W        W48666  15.935   5.860  18.876 -0.3478  0.1829  0.1641
39867W        W48667   4.091   3.297   0.854 -0.2320 -0.0410 -0.1562
39868W        W48668  26.261   6.042   7.156  0.1725  0.0548 -0.1362
39869W        W48669  21.710   2.012  16.458  0.0929 -0.1607 -0.1903
39870W        W48670  27.897   6.932  25.516 -0.2227  0.2382 -0.0916
39871W        W48671  17.927   4.595   1.344 -0.2098  0.0731  0.0732
39872W        W48672  25.789   5.407  16.823  0.0849  0.0937 -0.2379
39873W        W48673  14.822   6.707   2.231 -0.3768  0.0650  0.0954
39874W        W48674   2.043   6.442  18.211 -0.2611  0.3300  0.0695
39875W        W48675  25.660   1.877  22.860  0.1795  0.0800  0.2648
39876W        W48676  23.274   7.530   8.984 -0.1070 -0.0496 -0.0765
39877W        W48677   7.978   0.598  19.236 -0.4163 -0.0945 -0.0279
39878W        W48678  25.259   4.262   5.550 -0.2621  0.2244  0.2012
39879W        W48679  21.269   5.577  20.618 -0.2868 -0.3854 -0.0579
39880W        W48680  14.016   2.236   4.548  0.1587 -0.1780 -0.0731
39881W        W48681   7.572   6.751  20.383 -0.0322 -0.2656  0.0444
39882W        W48682  22.552   1.400   2.198  0.2491 -0.0564  0.1750
39883W        W48683  20.787   5.470  23.250  0.1042  0.1979  0.0084
39884W        W48684   4.061   7.532   7.217  0.0185  0.0622 -0.2249
39885W        W48685  27.813   0.312   5.793 -0.2680  0.0555  0.1606
39886W        W48686  22.959   5.847   9.226 -0.0641  0.2671 -0.0490
39887W        W48687   7.518   5.369   1.318  0.0891 -0.1084  0.0881
39888W        W48688  22.509   3.390   4.757 -0.1010  0.0747 -0.0488
39889W        W48689  14.261   5.916   7.454  0.0956  0.0119 -0.0846
39890W        W48690   5.992   3.356  18.134 -0.0451 -0.1979 -0.1042
39891W        W48691  19.725   4.331  21.004 -0.0894  0.0446  0.0566
39892W        W48692  12.355   6.252   1.198  0.0036  0.0846  0.1998
39893W        W48693  14.973   0.903   1.536  0.5726 -0.0208 -0.3655
39894W        W48694  27.667   7.557  20.207 -0.0694  0.0689  0.4148
39895W        W48695  25.350   0.181  20.772 -0.2114  0.0210  0.0816
39896W        W48696   2.981   4.766   2.872 -0.2079 -0.1482 -0.2186
39897W        W48697  15.551   5.585  21.059 -0.1121  0.1503  0.0549
39898W        W48698  18.904   7.159   8.951  0.0766 -0.3301 -0.0852
39899W        W48699  17.178   2.285  15.731 -0.1255 -0.2555 -0.1735
39900W        W48700  25.856   4.908  10.769 -0.3947  0.0280  0.1203
39901W        W48701  10.232   0.115  21.023  0.0746 -0.0962  0.2762
39902W        W48702  16.531   6.779  23.769  0.1876 -0.2951 -0.0223
39903W        W48703  29.364   2.031  19.701 -0.1644  0.1640  0.1039
39904W        W48704  22.457   5.893   9.433  0.2568  0.0197 -0.0372
39905W        W48705  22.241   7.748  22.724 -0.0136 -0.1175  0.1817
39906W        W48706   7.726   2.545   4.452 -0.1234  0.0389  0.2367
39907W        W48707  25.023   4.791  23.693 -0.3196  0.0609  0.1499
39908W        W48708  23.301   6.230   3.962 -0.1055 -0.0399 -0.3952
39909W        W48709   5.811   1.704   0.190  0.1192 -0.2043 -0.1332
39910W        W48710  11.498   4.875   0.182  0.1988  0.0171 -0.1026
39911W        W48711  27.130   6.450  15.260 -0.0287  0.3301 -0.0969
39912W        W48712  15.467   0.490  19.536 -0.1333 -0.0266  0.0943
39913W        W48713   6.398   5.325   0.811 -0.0623 -0.0338 -0.1773
39914W        W48714   8.480   7.602  25.589 -0.1083  0.0784 -0.0454
39915W        W48715  29.594   6.437  11.146  0.0414  0.0023  0.3163
39916W        W48716   1.198   5.108   2.696 -0.1058 -0.1969 -0.0772
39917W        W48717  15.814   0.966  21.653  0.3032  0.1757  0.1807
39918W        W48718   8.776   6.411   4.675  0.0638  0.3764 -0.0535
39919W        W48719  24.619   6.989  26.030 -0.1272 -0.2261  0.0151
39920W        W48720   8.195   7.827   4.382 -0.1625  0.3218  0.2334
39921W        W48721  29.697   4.117  26.159  0.1261 -0.2387  0.1201
39922W        W48722  29.676   2.300  25.931  0.0928 -0.0250  0.2009
39923W        W48723   9.755   5.708   9.697 -0.1354 -0.0618 -0.1359
39924W        W48724  12.782   6.251  24.199  0.1150 -0.1948 -0.0668
39925W        W48725  19.308   2.794  19.304 -0.0027  0.1010 -0.2802
39926W        W48726  12.720   1.936  20.320  0.1927  0.0738  0.0451
39927W        W48727   5.520   5.641  21.864  0.2217 -0.2086  0.2177
39928W        W48728  28.092   4.440  15.477  0.2860 -0.0576  0.4172
39929W        W48729  26.239   0.441  23.127 -0.0729  0.3056  0.0879
39930W        W48730  10.810   5.845  16.862 -0.0233 -0.0600  0.0943
39931W        W48731  16.928   1.195  17.232 -0.3113  0.3695  0.3187
39932W        W48732  15.971   0.117  10.291  0.2194  0.1785 -0.0658
39933W        W48733  13.066   5.813   6.741 -0.0053  0.1554  0.3774
39934W        W48734  28.862   5.630   8.506  0.1982  0.0350  0.2900
39935W        W48735  13.091   0.184  22.851  0.1514  0.1903 -0.0409
39936W        W48736  14.680   4.808  21.316  0.2110 -0.0793  0.2464
39937W        W48737  28.488   1.396  25.080  0.1147  0.0288 -0.0058
39938W        W48738   9.876   2.507  21.711 -0.0016 -0.0779 -0.0410
39939W        W48739  22.043   0.898  25.495 -0.0001 -0.0649  0.2233
39940W        W48740   1.973   4.979   4.789 -0.4075 -0.2120  0.0378
39941W        W48741   8.856   2.709  24.195  0.0588 -0.2517 -0.2736
39942W        W48742  10.480   1.497   8.035  0.1387 -0.1526 -0.1417
39943W        W48743  25.257   5.023  10.898 -0.4824  0.1806  0.2982
39944W        W48744  14.065   1.921  25.932 -0.2627 -0.2083 -0.0023
39945W        W48745  11.699   5.078   6.747  0.0174 -0.1280  0.3693
39946W        W48746   7.631   0.713  14.653  0.3031 -0.2040 -0.1309
39947W        W48747  29.823   5.145  17.389 -0.0720 -0.1807  0.0072
39948W        W48748   3.700   4.311  22.107 -0.2225 -0.1778 -0.1490
39949W        W48749   7.384   0.567   2.114 -0.1391 -0.2323  0.1529
39950W        W48750  17.098   2.484   0.020  0.0409 -0.1084  0.1872
39951W        W48751  18.432   5.916  23.984 -0.0142 -0.1978  0.1672
39952W        W48752  19.705   5.115   4.423 -0.2127  0.0156  0.2186
39953W        W48753  21.120   6.440  19.910  0.0810 -0.0809 -0.1596
39954W        W48754  18.522   6.470  20.034  0.4682  0.1437  0.1662
39955W        W48755  19.320   4.464  10.972  0.1203  0.0642 -0.0795
39956W        W48756  27.593   6.254   2.800 -0.0535  0.1586 -0.0801
39957W        W48757  16.434   4.171   1.432 -0.1659 -0.2298  0.0177
39958W        W48758  17.659   5.961   6.832  0.1303 -0.0719 -0.3294
39959W        W48759  11.378   3.215  19.133  0.1739  0.1377  0.5579
39960W        W48760  26.190   7.502   0.533 -0.0385  0.0183 -0.0921
39961W        W48761  30.052   1.825  11.430  0.1055 -0.1793  0.0557
39962W        W48762   2.335   0.829   6.400 -0.0600 -0.0340 -0.0930
39963W        W48763  26.214   0.811  19.233  0.1491 -0.1364  0.3058
39964W        W48764   3.908   2.495  18.079 -0.0851 -0.0483 -0.2892
39965W        W48765  29.682   2.189   8.792 -0.0023  0.1089 -0.1786
39966W        W48766   0.968   6.811  10.121  0.0535 -0.1377 -0.3212
39967W        W48767  13.979   2.183   0.188 -0.1687 -0.0808 -0.2301
39968W        W48768   8.567   4.165   7.879 -0.2081  0.0350  0.2766
39969W        W48769  10.722   6.398   0.169  0.0418  0.0152  0.4157
39970W        W48770  24.322   0.585   5.949 -0.2261 -0.1173 -0.0165
39971W        W48771  29.656   5.810  18.138  0.0895  0.1916 -0.3006
39972W        W48772  11.225   2.561  25.836  0.4115  0.1867  0.0370
39973W        W48773   2.307   4.932   1.047  0.0636 -0.2098 -0.2253
39974W        W48774   0.434   7.149  24.206  0.1797  0.1517 -0.0673
39975W        W48775  29.229   4.528  24.583  0.2009 -0.0835  0.0155
39976W        W48776  20.628   4.046   2.890  0.0580 -0.0600 -0.1769
39977W        W48777  29.203   5.096   2.452  0.5183  0.3061 -0.1234
39978W        W48778  11.182   2.721   2.391  0.1935 -0.2033 -0.0966
39979W        W48779  12.473   7.247  10.532 -0.0291 -0.3633 -0.3039
39980W        W48780   7.889   5.462  23.069  0.0394  0.1077  0.3682
39981W        W48781   8.276   5.798  21.971  0.0978 -0.4202  0.0750
39982W        W48782   5.288   7.006  16.443  0.2318 -0.0212 -0.0818
39983W        W48783   3.120   5.677  10.613 -0.2595 -0.1089 -0.0355
39984W        W48784   3.807   7.245   0.641  0.0122 -0.1225 -0.0921
39985W        W48785  21.277   5.782  18.291  0.0050  0.3975  0.2256
39986W        W48786  18.428   6.674  18.935  0.0981 -0.2022 -0.0345
39987W        W48787  22.688   4.642   6.826  0.2080 -0.0927  0.0001
39988W        W48788  29.420   5.274   0.412 -0.0612 -0.1492 -0.2674
39989W        W48789  29.874   5.662   0.186 -0.2041 -0.1492 -0.0090
39990W        W48790  23.714   2.157   7.086  0.0740  0.1880  0.1884
39991W        W48791  23.538   5.916   6.678 -0.1433  0.3062  0.1749
39992W        W48792  29.486   3.626  22.416  0.0043  0.1945  0.0285
39993W        W48793   2.397   2.401  22.653  0.1139 -0.1481  0.0634
39994W        W48794  20.350   2.164  20.052 -0.1286  0.0299  0.2763
39995W        W48795  11.447   7.048  17.786  0.0043  0.1543 -0.3306
39996W        W48796  20.033   5.338  18.583  0.3480  0.3504 -0.3770
39997W        W48797  12.657   1.010  10.243 -0.0991  0.1700  0.0268
39998W        W48798   3.342   5.349   7.643 -0.2498 -0.2493 -0.2356
39999W        W48799  13.708   2.281  16.653  0.1169  0.0142  0.0119
40000W        W48800  22.712   3.227   8.777 -0.0238 -0.1246  0.1815
40001W        W48801  20.681   7.426  17.953 -0.0357 -0.1063  0.0948
40002W        W48802   9.287   7.141  18.749 -0.2178 -0.3127 -0.2840
40003W        W48803  29.356   4.566   8.935  0.0622  0.0337 -0.1034
40004W        W48804  12.870   3.893   6.780 -0.0277 -0.0135 -0.1730
40005W        W48805  27.103   5.646   8.154  0.0590 -0.1894  0.0513
40006W        W48806   2.185   6.384   1.134  0.0476 -0.1723  0.2502
40007W        W48807   6.225   5.744  25.348 -0.0683  0.1859  0.2567
40008W        W48808  24.468   4.453   2.464 -0.2179 -0.1831  0.1497
40009W        W48809  16.627   2.642   6.788  0.0720  0.0199 -0.0776
40010W        W48810   7.449   4.318  10.094 -0.2273 -0.1651 -0.3432
40011W        W48811  26.979   3.181   9.502  0.1175  0.1799  0.1322
40012W        W48812  28.865   3.613  17.515 -0.3371 -0.3819 -0.1362
40013W        W48813  22.657   7.691   3.686 -0.2276  0.4479  0.1038
40014W        W48814  24.876   4.297   4.299  0.0446  0.3226 -0.0400
40015W        W48815  17.366   0.225  23.275  0.0393 -0.1735 -0.2340
40016W        W48816  10.407   3.032   7.794 -0.0466 -0.0441  0.2314
40017W        W48817  16.126   2.154   8.334 -0.0444  0.0513  0.0759
40018W        W48818  28.785   0.141  24.638 -0.0872 -0.1017 -0.0407
40019W        W48819  19.877   0.405   5.390  0.0962 -0.1253 -0.1393
40020W        W48820  20.766   5.292  21.266  0.0610 -0.0461 -0.3159
40021W        W48821  18.237   1.584   9.581 -0.1721 -0.0283 -0.0372
40022W        W48822  24.267   7.499  15.944 -0.3028 -0.2755 -0.0701
40023W        W48823  28.323   6.789  20.066  0.0159 -0.1599  0.0453
40024W        W48824  25.351   0.824  24.995 -0.2144 -0.1381 -0.1399
40025W        W48825  31.203   7.616   9.508 -0.0391  0.2401 -0.1378
40026W        W48826  16.179   2.890  23.481  0.2281 -0.0207 -0.0116
40027W        W48827   6.264   1.306  14.790 -0.0762  0.1065 -0.1047
40028W        W48828  27.713   3.603  25.947  0.2087 -0.0054 -0.1762
40029W        W48829   2.640   0.556  20.893  0.1670 -0.1592  0.2523
40030W        W48830   7.729   2.085   0.769  0.0265  0.0926  0.2379
40031W        W48831   4.203   2.390   1.661 -0.0231 -0.3064  0.0758
40032W        W48832  17.793   2.582  20.040  0.1317  0.2819  0.0082
40033W        W48833  28.433   1.017  24.664 -0.1658 -0.0916  0.0092
40034W        W48834   6.990   0.245   5.740 -0.2474  0.1599  0.1581
40035W        W48835  17.065   2.424  16.691  0.2640 -0.1636  0.1373
40036W        W48836   1.342   2.861  22.959  0.0985  0.0568  0.1881
40037W        W48837   8.699   3.316   8.737 -0.1879  0.0673 -0.1154
40038W        W48838  25.194   3.102   7.880  0.0634 -0.2261  0.1123
40039W        W48839  17.648   2.351  21.596 -0.3000  0.2669  0.0387
40040W        W48840  13.695   4.589   5.786  0.1281 -0.2726 -0.1435
40041W        W48841  12.281   3.913   0.042 -0.1207 -0.0472  0.3081
40042W        W48842  11.815   3.190  22.739  0.2505 -0.0697  0.2460
40043W        W48843  22.326   2.897  16.380  0.0418  0.4093  0.1971
40044W        W48844   0.120   4.647   4.396  0.1313 -0.0643  0.0481
40045W        W48845   4.738   2.267  18.465 -0.0766  0.1237  0.1541
40046W        W48846  13.227   0.751  24.162 -0.1827 -0.2204 -0.3575
40047W        W48847  17.302   0.180  10.543 -0.1770  0.0422  0.0334
40048W        W48848   1.307   0.563   9.436 -0.1892 -0.0775 -0.0326
40049W        W48849  18.380   0.373   9.612 -0.0113 -0.1037  0.2126
40050W        W48850  25.142   0.709   3.557  0.0060 -0.1573 -0.0406
40051W        W48851   0.387   7.415  16.042  0.3338 -0.0078  0.0927
40052W        W48852  13.890   2.356  20.791  0.1400  0.2604 -0.2877
40053W        W48853  25.590   2.761  24.837 -0.2025  0.1435  0.1502
40054W        W48854   1.298   5.461   6.792 -0.1076  0.2013 -0.1781
40055W        W48855  28.053   0.775  17.311 -0.1529  0.2184  0.0427
40056W        W48856   9.958   6.240   9.603 -0.0583  0.2869  0.0540
40057W        W48857  19.059   6.183   7.184  0.0274  0.0822 -0.0966
40058W        W48858  27.221   3.417   7.588  0.1947 -0.0601  0.0431
40059W        W48859  27.821   3.315  21.872 -0.0080  0.0715  0.2081
40060W        W48860  25.523   0.413  25.212  0.1311 -0.1351 -0.1715
40061W        W48861  21.602   2.263   2.457  0.0819 -0.1568  0.2119
40062W        W48862   0.235   2.977  22.276 -0.0662  0.0138  0.1111
40063W        W48863  26.532   3.967  25.439 -0.0154  0.1686 -0.1514
40064W        W48864  12.906   5.713  16.705  0.3395  0.0955  0.2777
40065W        W48865  22.547   7.299   8.387 -0.0020  0.0593  0.0827
40066W        W48866  22.907   1.153  20.782 -0.1049  0.1012 -0.1221
40067W        W48867  19.991   0.006  19.062 -0.1787  0.0231 -0.1964
40068W        W48868   7.574   1.417  10.542  0.0074  0.1002  0.0637
40069W        W48869  26.508   0.436  24.099 -0.3622 -0.0420 -0.0709
40070W        W48870  25.087   6.363  25.660 -0.0088 -0.0437 -0.0913
40071W        W48871  27.980   1.465   9.555  0.2105  0.2062  0.1779
40072W        W48872   3.357   2.624   2.315  0.2240  0.1115 -0.0496
40073W        W48873  17.717   5.468   0.706  0.1552  0.3124  0.4068
40074W        W48874  23.361   1.416   0.037 -0.3095 -0.1618  0.1091
40075W        W48875  13.668   7.406  20.139 -0.1352 -0.0400 -0.2480
40076W        W48876  15.526   3.898   1.164  0.2821 -0.0368 -0.0273
40077W        W48877  26.598   7.096   2.866 -0.2028 -0.2626 -0.1516
40078W        W48878   5.351   2.067   6.918 -0.0574 -0.1177 -0.0357
40079W        W48879  25.969   0.521  20.364 -0.0846  0.0726  0.0633
40080W        W48880  29.335   0.947  15.746 -0.1376 -0.1313 -0.0192
40081W        W48881  19.022   5.223  23.340  0.3827  0.3986  0.1154
40082W        W48882   2.803   2.978  23.062  0.0426  0.1302  0.4654
40083W        W48883  22.081   2.837   6.371 -0.0856  0.0670  0.0033
40084W        W48884   3.981   2.318   8.237 -0.1854  0.0115  0.0031
40085W        W48885   1.950   6.368   2.153  0.0720 -0.0255  0.3911
40086W        W48886  25.989   5.991  24.092  0.0034 -0.0609 -0.0963
40087W        W48887   5.584   7.010  20.598 -0.1864 -0.0161  0.3318
40088W        W48888  21.531   0.850  16.725  0.0077 -0.5240  0.0821
40089W        W48889   0.109   3.789   5.424  0.0575  0.0761  0.0144
40090W        W48890   8.288   0.920   4.712 -0.1883  0.2921  0.0124
40091W        W48891  22.544   5.532  23.091 -0.0866 -0.0848  0.0179
40092W        W48892   3.434   3.372   3.580 -0.2286  0.0305  0.0694
40093W        W48893  22.604   2.251  18.723 -0.3023 -0.0548  0.1506
40094W        W48894   4.967   6.969   1.038  0.0561  0.1325  0.0626
40095W        W48895  20.146   0.803   0.156  0.1843  0.0046  0.1532
40096W        W48896  13.412   1.163  18.809  0.2366 -0.1955  0.4850
40097W        W48897   3.286   1.019   1.131  0.0020 -0.1220  0.1447
40098W        W48898  21.462   3.674   1.142 -0.0529 -0.1235 -0.3099
40099W        W48899  28.178   1.390  23.201 -0.0495  0.0061 -0.3013
40100W        W48900   8.272   7.153   9.177 -0.0407 -0.0316 -0.1723
40101W        W48901  26.131   5.013  26.161  0.1356 -0.1589 -0.0459
40102W        W48902  10.915   2.657   8.452 -0.1900 -0.0587 -0.1042
40103W        W48903   8.242   6.867   1.645 -0.1690 -0.0171  0.0694
40104W        W48904  19.147   5.346  18.475  0.0712  0.2074  0.1165
40105W        W48905  23.161   1.540  22.302 -0.2159  0.3117 -0.4522
40106W        W48906  19.970   5.710   5.412 -0.1792 -0.1676  0.2311
40107W        W48907  19.280   4.900  22.864 -0.3170 -0.3100  0.0080
40108W        W48908  20.439   1.632   2.558  0.3933 -0.0029  0.1159
40109W        W48909   8.817   4.880   2.236  0.1676 -0.1601 -0.3805
40110W        W48910  17.496   4.754  15.301  0.0887  0.0164 -0.0590
40111W        W48911  25.506   3.844   6.983 -0.2154  0.0394 -0.0332
40112W        W48912   2.567   6.542  18.907 -0.1719 -0.1375 -0.1946
40113W        W48913  21.470   7.325   1.497  0.0359  0.1303  0.2397
40114W        W48914  13.016   6.963   6.106 -0.0839  0.0297  0.0045
40115W        W48915   7.209   0.684   1.369 -0.0086  0.0797 -0.0032
40116W        W48916   8.398   1.095  20.359 -0.3218  0.3329  0.1846
40117W        W48917  18.923   6.253  18.018 -0.1494  0.0641  0.0738
40118W        W48918   3.562   0.520  22.189  0.0115  0.3010  0.3013
40119W        W48919  16.865   4.018  17.244 -0.2329  0.1168 -0.0015
40120W        W48920   1.661   6.407  10.717 -0.1861  0.1743  0.0916
40121W        W48921  21.990   4.177  15.696  0.1450 -0.0958  0.0560
40122W        W48922  10.697   1.389   9.585  0.2222  0.2051  0.0616
40123W        W48923  14.232   3.222   0.386 -0.0064  0.0505  0.0259
40124W        W48924   4.820   5.567   6.074 -0.0754 -0.1166 -0.2329
40125W        W48925  30.900   4.230   3.002 -0.4475  0.1489  0.1643
40126W        W48926  19.608   4.562   4.549  0.2196 -0.1601 -0.0052
40127W        W48927  18.259   2.873  20.823 -0.0895  0.1976  0.1442
40128W        W48928  26.314   0.283   9.822 -0.0767 -0.0039  0.1746
40129W        W48929   0.614   3.787  23.541 -0.0231 -0.0718  0.0098
40130W        W48930   2.229   1.831   9.657 -0.1702 -0.1490  0.1653
40131W        W48931  19.465   3.006   2.108 -0.4680 -0.1686  0.3758
40132W        W48932  20.498   5.688  18.439  0.1265 -0.2307  0.3309
40133W        W48933  30.304   3.447  23.022  0.0729  0.3043  0.1393
40134W        W48934   3.713   6.003  20.750 -0.0562  0.2342  0.2624
40135W        W48935  23.318   7.165   0.917  0.0170  0.1238 -0.2453
40136W        W48936  28.572   0.108  15.709  0.0864 -0.0863 -0.0682
40137W        W48937  23.557   4.568  24.738 -0.1477 -0.1173  0.0359
40138W        W48938   0.281   4.271  20.102 -0.1171  0.0192  0.1535
40139W        W48939  10.534   2.586  22.631 -0.0342 -0.0896 -0.3489
40140W        W48940  24.887   0.801   0.214  0.2902 -0.0365 -0.0581
40141W        W48941   5.857   0.505  25.559 -0.1112  0.3750 -0.2077
40142W        W48942  30.480   5.245   5.665  0.1140  0.2293 -0.1962
40143W        W48943  14.474   0.031  21.943 -0.0426 -0.1855  0.1336
40144W        W48944  26.396   4.817   7.038 -0.1296  0.0237 -0.1351
40145W        W48945   7.289   5.408  15.860 -0.3723  0.1157 -0.1414
40146W        W48946   1.591   5.037   6.961  0.2270  0.2866  0.1946
40147W        W48947  23.067   0.883   2.826  0.0962  0.2137 -0.0883
40148W        W48948   9.042   4.951  16.562  0.1014 -0.2508  0.0510
40149W        W48949  23.411   1.194  22.592 -0.4014  0.4873 -0.1961
40150W        W48950   2.870   2.744   4.145 -0.1461 -0.2025  0.0013
40151W        W48951  24.890   2.219   5.100  0.0255  0.3282  0.0511
40152W        W48952  16.326   5.062   7.285 -0.0643  0.2909 -0.1192
40153W        W48953  29.413   5.819  19.444  0.0209  0.2004 -0.1489
40154W        W48954  14.823   1.809  16.167  0.2047  0.3229  0.0267
40155W        W48955  17.546   2.447   2.520 -0.2637  0.1370 -0.2754
40156W        W48956  23.980   3.463   9.307  0.0784 -0.3193 -0.2060
40157W        W48957  11.482   2.418  10.386  0.0634 -0.0823 -0.1795
40158W        W48958  21.010   4.154  10.307  0.1063 -0.4264 -0.2150
40159W        W48959  18.124   0.051  19.565 -0.0051  0.0829  0.4321
40160W        W48960  20.408   4.256   0.331  0.0074  0.1058 -0.1217
40161W        W48961  30.146   7.350  23.884 -0.0358  0.0197  0.0846
40162W        W48962  16.515   6.175   8.483  0.1396  0.1442  0.0803
40163W        W48963  14.933   1.166  21.524  0.0027 -0.4359 -0.1582
40164W        W48964  24.240   3.686  22.474 -0.1722  0.2376  0.2597
40165W        W48965  10.186   1.995   0.420 -0.0364  0.0691 -0.1876
40166W        W48966  28.915   4.137   2.250 -0.0580  0.1820 -0.0647
40167W        W48967  25.745   7.119  10.863  0.3024  0.1652 -0.0611
40168W        W48968  17.012   2.895  22.947  0.0309 -0.0152 -0.0804
40169W        W48969  26.236   2.975   2.891 -0.1017 -0.1939  0.0571
40170W        W48970  30.785   3.551  20.414  0.0056 -0.1053 -0.2476
40171W        W48971  10.960   6.443  23.938  0.1539 -0.0157 -0.2047
40172W        W48972  23.307   7.161   9.876  0.1189  0.0979  0.0791
40173W        W48973   3.496   5.165  23.568 -0.1100 -0.0589  0.0442
40174W        W48974   1.314   6.509  20.248 -0.2241  0.0698 -0.0182
40175W        W48975  28.004   0.425   2.998 -0.0163  0.0476  0.1438
40176W        W48976  16.007   4.085   2.211  0.0241 -0.2592  0.1889
40177W        W48977  16.342   5.618   8.441  0.2180  0.4579 -0.0165
40178W        W48978  22.234   4.698   9.297  0.0236 -0.2479  0.0526
40179W        W48979  17.601   0.094  20.624  0.2578  0.0025 -0.0647
40180W        W48980  27.466   4.730   9.919 -0.2327  0.3460 -0.1498
40181W        W48981   1.695   6.881  10.810 -0.0820 -0.0250 -0.1355
40182W        W48982  13.660   3.451   1.120 -0.0170  0.3129  0.1243
40183W        W48983  26.310   3.453  17.670  0.0426 -0.2493  0.3687
40184W        W48984  12.099   4.331   7.416  0.3002 -0.2457  0.1069
40185W        W48985  21.089   5.002  21.861  0.2665  0.1186 -0.0451
40186W        W48986   5.316   4.005  19.715  0.1795 -0.0336 -0.0215
40187W        W48987  22.709   5.233   5.245 -0.3158  0.4251  0.1920
40188W        W48988  10.097   5.511   5.284 -0.2758 -0.2946  0.1909
40189W        W48989  30.682   6.479  25.838  0.2091  0.0676  0.0330
40190W        W48990  29.192   5.303  22.088  0.0482  0.1471 -0.0030
40191W        W48991  21.633   6.883   9.382  0.1995  0.0985  0.1744
40192W        W48992  30.195   2.580   5.338  0.0945 -0.2409 -0.1080
40193W        W48993  18.000   2.694  15.557 -0.0914 -0.1482 -0.0543
40194W        W48994   3.189   1.973   8.251  0.0998  0.1499 -0.1259
40195W        W48995  19.606   5.025   6.905 -0.2075  0.3440  0.0321
40196W        W48996  23.732   3.523  23.355  0.2464  0.2159 -0.0948
40197W        W48997  18.382   4.340   7.403 -0.1845  0.2343  0.1404
40198W        W48998  24.856   4.299   8.335 -0.2551 -0.0220 -0.0971
40199W        W48999   1.825   1.732  19.605 -0.3399  0.1186 -0.3142
40200W        W49000  19.371   0.959   2.473 -0.0206  0.1073  0.1449
40201W        W49001  15.949   3.742  18.209 -0.2885  0.1088  0.1217
40202W        W49002  18.759   4.411   0.569 -0.1145  0.2252 -0.1056
40203W        W49003  16.518   5.490   6.217 -0.0339  0.0560  0.1217
40204W        W49004  19.095   3.776  25.487  0.2986  0.2051  0.1623
40205W        W49005   5.839   0.160   6.616  0.1186 -0.0811  0.2520
40206W        W49006  11.392   7.340   5.596  0.0776  0.0504 -0.1001
40207W        W49007  19.759   1.437  24.924  0.1720 -0.2621  0.0353
40208W        W49008  13.848   5.651   5.119  0.0688 -0.2561 -0.3598
40209W        W49009   2.723   6.290  23.424 -0.2805 -0.1001  0.0850
40210W        W49010  27.689   1.334   2.795 -0.0943 -0.1680 -0.0931
40211W        W49011  30.202   0.651  25.105 -0.1517  0.0505 -0.2795
40212W        W49012  21.804   2.752  24.901  0.0335 -0.2547  0.0746
40213W        W49013   9.881   5.224  14.544 -0.4813 -0.0198  0.0789
40214W        W49014  30.864   6.738  16.642  0.1310 -0.1715 -0.2865
40215W        W49015  19.053   0.686   7.568  0.1416 -0.2384 -0.0181
40216W        W49016  18.147   7.088   0.547  0.3562 -0.3085 -0.1931
40217W        W49017   7.996   4.634  20.056  0.0575 -0.0712 -0.0393
40218W        W49018   1.502   4.410  19.674  0.1137 -0.0220 -0.0838
40219W        W49019  21.754   0.114   8.393  0.2211  0.1675 -0.2420
40220W        W49020  11.689   1.508  15.639 -0.2811  0.0148 -0.0550
40221W        W49021  24.118   0.184   0.741 -0.1202  0.3183  0.1156
40222W        W49022  10.716   2.596   3.918  0.0655 -0.1682  0.2256
40223W        W49023  12.836   0.116  24.847  0.1222  0.0544 -0.0702
40224W        W49024  16.312   6.800  18.856  0.0405  0.2852 -0.1320
40225W        W49025  29.236   6.395   5.549  0.0362 -0.2642 -0.3138
40226W        W49026  13.980   5.661  17.100 -0.0212 -0.3167 -0.1401
40227W        W49027  29.822   2.371  10.660  0.0582 -0.1593 -0.0099
40228W        W49028  11.106   6.395   4.869 -0.2820  0.0843  0.0350
40229W        W49029  27.504   7.053   1.866  0.3017  0.0595  0.1315
40230W        W49030   9.987   0.869   6.132 -0.1236  0.2893 -0.2164
40231W        W49031   6.827   3.326  26.067  0.0628 -0.0986  0.1274
40232W        W49032  12.353   0.886   9.433  0.1328  0.0030  0.2319
40233W        W49033   7.610   0.368   1.218 -0.2036 -0.1313  0.0284
40234W        W49034  22.839   7.690  21.526  0.0832  0.2713  0.0033
40235W        W49035   0.870   1.886  23.607  0.1372  0.1611  0.1662
40236W        W49036   7.489   6.709  22.509  0.0637  0.1817 -0.0155
40237W        W49037  12.993   6.511   7.397 -0.1507  0.0615 -0.1592
40238W        W49038   8.373   4.068  11.193 -0.2495 -0.2051 -0.2328
40239W        W49039  12.455   1.944   8.690  0.2985  0.2395  0.0301
40240W        W49040  10.271   5.902   8.999  0.2579  0.2432  0.0797
40241W        W49041   8.550   0.168   1.250 -0.3154  0.0461  0.1319
40242W        W49042  17.292   0.963  15.295 -0.0416  0.0364 -0.1317
40243W        W49043   1.735   4.716   9.784  0.0860  0.2051  0.0959
40244W        W49044  15.328   7.404   7.483 -0.0447  0.0013 -0.1656
40245W        W49045   8.532   5.741  18.557 -0.1335 -0.1711  0.1701
40246W        W49046  25.552   7.729   1.845 -0.2706  0.2487  0.0415
40247W        W49047  11.543   4.529   9.145 -0.3074  0.1190  0.0419
40248W        W49048  27.859   5.284   4.874 -0.1338 -0.0231  0.1502
40249W        W49049  14.666   7.705  16.473 -0.2276  0.0622  0.1530
40250W        W49050  16.741   6.872   1.219  0.0880 -0.0142  0.2725
40251W        W49051  19.514   1.381  14.874  0.0683  0.1423  0.3771
40252W        W49052  22.229   3.915   3.891  0.0455  0.0013 -0.1599
40253W        W49053  30.105   3.014   4.596 -0.0684  0.1622  0.0276
40254W        W49054  28.515   2.118   7.445 -0.0358 -0.0514 -0.0424
40255W        W49055  12.628   1.805   3.849 -0.0166  0.0305  0.0629
40256W        W49056   2.050   7.451   9.384 -0.2342  0.0046 -0.3744
40257W        W49057  15.323   4.015  16.743  0.1550  0.0773 -0.4033
40258W        W49058  23.296   1.719   4.833  0.0587 -0.0578  0.3742
40259W        W49059  28.236   3.048  22.858  0.3078 -0.1776  0.0426
40260W        W49060   7.041   7.451   7.832  0.0227 -0.2047  0.0646
40261W        W49061  13.874   2.864  16.615 -0.0214 -0.0479 -0.0063
40262W        W49062  23.279   4.265  23.143 -0.0718 -0.1468  0.4009
40263W        W49063  18.576   3.979   2.271 -0.1920 -0.2665  0.2152
40264W        W49064  27.535   0.964  25.595  0.0366  0.1662  0.0724
40265W        W49065  23.958   4.966   0.109 -0.1690  0.0103  0.0554
40266W        W49066   3.078   1.511   9.169  0.1173 -0.1312 -0.1749
40267W        W49067   2.260   7.166   7.167  0.0202  0.2166  0.1486
40268W        W49068   0.883   4.242  10.554  0.1176  0.1542 -0.1189
40269W        W49069  29.511   1.274  25.642 -0.1511 -0.0555 -0.0610
40270W        W49070  22.121   2.627  23.245 -0.0139  0.0549 -0.0254
40271W        W49071  13.839   1.524  19.350 -0.1457 -0.1225  0.2054
40272W        W49072   9.709   4.532   7.295  0.0585 -0.0787  0.0789
40273W        W49073   8.784   5.402   1.409 -0.1855 -0.0426  0.1706
40274W        W49074  17.294   7.779  10.978 -0.2226  0.1904  0.2762
40275W        W49075  11.074   1.660  25.544 -0.0451  0.2160  0.1440
40276W        W49076   2.215   3.975   6.222  0.2921  0.2265  0.0105
40277W        W49077  19.067   5.336  24.509  0.2512  0.2427  0.1222
40278W        W49078  15.261   2.304   2.102 -0.0416 -0.1860  0.2253
40279W        W49079  20.035   3.981  19.311  0.1150 -0.0554  0.0771
40280W        W49080  25.631   1.525  14.798 -0.1210  0.3383 -0.1556
40281W        W49081  17.487   7.770  19.895  0.1351  0.4356 -0.2664
40282W        W49082  24.396   6.769  25.088 -0.0911 -0.0854  0.1370
40283W        W49083  25.628   2.355  23.328 -0.2854 -0.2672 -0.0523
40284W        W49084  24.035   6.511  20.280  0.1445 -0.0359 -0.0332
40285W        W49085  15.381   0.254  20.348 -0.1044 -0.0080 -0.2635
40286W        W49086  14.641   2.687  25.802 -0.0313 -0.1194  0.0183
40287W        W49087  26.307   7.085   8.641  0.3351  0.2305 -0.1323
40288W        W49088   2.949   4.384  21.082  0.0315 -0.1625  0.1560
40289W        W49089  28.947   2.420   1.375  0.0213 -0.0748  0.1899
40290W        W49090  31.218   4.533  22.226  0.0447 -0.1692 -0.1099
40291W        W49091  15.394   6.293  24.985  0.2740  0.0603  0.0450
40292W        W49092  22.500   6.710   4.346 -0.0849  0.1627  0.1317
40293W        W49093  16.129   3.204   9.711  0.2414 -0.0140  0.0591
40294W        W49094  30.052   1.234   3.324 -0.0286  0.0325 -0.1553
40295W        W49095   2.208   1.005  22.420 -0.3542 -0.0808 -0.2429
40296W        W49096  28.872   4.301  18.013  0.0489 -0.0909  0.0218
40297W        W49097  12.501   3.029   7.963 -0.0201  0.0231  0.0938
40298W        W49098  20.430   7.797  22.742  0.0279 -0.0210 -0.2215
40299W        W49099  22.678   0.802  16.107  0.1313  0.0600  0.1603
40300W        W49100  13.836   3.136   2.008  0.0461 -0.1765  0.1625
40301W        W49101  11.745   6.095   1.017  0.0697 -0.1251 -0.1337
40302W        W49102  13.788   1.059  23.792 -0.0352  0.4567 -0.0380
40303W        W49103   3.252   1.914   6.739 -0.1184 -0.2686  0.3376
40304W        W49104  25.023   2.828  16.651 -0.4165 -0.3138 -0.2321
40305W        W49105  13.622   5.016  25.417  0.0619  0.0219  0.1015
40306W        W49106  27.265   7.539  21.817 -0.4276 -0.0207 -0.0781
40307W        W49107  26.452   2.101  21.642  0.1908 -0.1621  0.2756
40308W        W49108  10.433   6.265   0.917 -0.2703 -0.0481 -0.4367
40309W        W49109   6.890   6.799   6.166  0.0141  0.0752 -0.1015
40310W        W49110  29.651   2.189  15.732  0.2793  0.0264  0.3717
40311W        W49111  12.389   1.532   9.353  0.0854 -0.2586 -0.0839
40312W        W49112   4.454   2.313   3.972  0.1337  0.1263 -0.3054
40313W        W49113  16.059   2.864   8.920 -0.2491  0.0232  0.0197
40314W        W49114  22.760   0.851   5.985  0.0498  0.2145 -0.3386
40315W        W49115  29.418   5.123  18.645  0.0997 -0.1553  0.1288
40316W        W49116   5.656   5.301  15.899 -0.0438 -0.0760 -0.0106
40317W        W49117   0.968   6.625   0.531 -0.0577 -0.4226 -0.0979
40318W        W49118  23.116   2.977   0.900  0.2199  0.2444 -0.2727
40319W        W49119  27.201   7.346  20.724 -0.2373 -0.3111  0.1147
40320W        W49120  10.519   1.796   4.466 -0.3228 -0.0634  0.2224
40321W        W49121  31.290   0.285   8.357 -0.0077 -0.0837 -0.0281
40322W        W49122  31.177   4.137  11.021  0.1919  0.1765  0.1996
40323W        W49123  17.092   7.171   2.544 -0.1542  0.0947  0.0467
40324W        W49124   7.404   6.741   6.438  0.2076 -0.0484  0.0482
40325W        W49125   9.542   5.827  18.277 -0.1473 -0.1574  0.2646
40326W        W49126  16.652   4.944   1.631 -0.1544 -0.0508  0.0050
40327W        W49127   4.691   5.321  15.354 -0.0394  0.1238  0.3419
40328W        W49128  22.646   6.630  11.129 -0.1777 -0.0153  0.0605
40329W        W49129  20.040   5.780  24.735  0.2176 -0.3197  0.0948
40330W        W49130   5.524   5.556   0.862  0.2105 -0.0526  0.1792
40331W        W49131  25.891   0.777   7.743 -0.0158 -0.0110 -0.4512
40332W        W49132  14.488   0.728  15.633  0.2418 -0.2114 -0.0054
40333W        W49133  14.939   7.768  20.332 -0.0735 -0.0361 -0.1497
40334W        W49134  28.922   3.310  23.701  0.3675  0.1394 -0.1407
40335W        W49135   7.547   0.625  19.654  0.2766 -0.2332 -0.2050
40336W        W49136   5.455   6.822  24.884 -0.1816  0.1600  0.1257
40337W        W49137   2.966   1.278   2.060  0.0238  0.3374 -0.0650
40338W        W49138   4.970   4.696   4.014  0.0892 -0.0458 -0.0347
40339W        W49139  20.535   7.199   7.170  0.0241  0.1408 -0.3330
40340W        W49140  20.264   1.929   1.981  0.1184 -0.2701  0.2617
40341W        W49141  10.631   5.967   7.915 -0.2024 -0.0516  0.1974
40342W        W49142   9.265   7.477  22.903  0.2557  0.0110  0.1876
40343W        W49143   7.727   1.684   0.488  0.0982  0.0610  0.0673
40344W        W49144  22.718   1.586   3.211  0.0086  0.0401  0.0774
40345W        W49145  29.616   2.488   0.203 -0.1628 -0.1171  0.0917
40346W        W49146  10.660   6.203   6.731 -0.0315  0.0810 -0.0521
40347W        W49147  11.234   5.340  21.104 -0.0786  0.1162  0.1342
40348W        W49148  29.037   3.356   8.809 -0.1183 -0.1393  0.1726
40349W        W49149   1.938   0.002   5.569  0.0708 -0.1394  0.0278
40350W        W49150   2.288   5.019  21.236  0.2302 -0.2708 -0.1210
40351W        W49151  10.988   2.809  19.666 -0.2304 -0.0293  0.1057
40352W        W49152  30.580   5.971  25.811  0.2500  0.0949  0.3324
40353W        W49153  14.886   7.770  19.595  0.1866  0.1432  0.0899
40354W        W49154  11.436   7.068   6.057  0.2318  0.2763 -0.1420
40355W        W49155  12.292   3.102   5.559  0.0326 -0.2232  0.0835
40356W        W49156  24.410   7.522  10.796 -0.2572 -0.4746  0.1802
40357W        W49157  20.580   7.643  20.225 -0.0760  0.1221  0.2959
40358W        W49158   0.276   4.372  17.633 -0.2048 -0.3264  0.2087
40359W        W49159   9.073   0.275   6.800  0.2738  0.1397 -0.0220
40360W        W49160  31.150   2.748   1.230  0.2088  0.1467  0.0371
40361W        W49161  26.916   1.490  19.125 -0.1602 -0.0095  0.1415
40362W        W49162  31.135   7.032   6.998  0.0482  0.0922  0.1009
40363W        W49163  20.843   0.217  18.614  0.2850  0.3752 -0.0245
40364W        W49164   2.500   2.403  24.226  0.1057 -0.2973 -0.0206
40365W        W49165  14.483   2.291   6.528  0.1406 -0.1514  0.1117
40366W        W49166  16.025   1.418   0.169 -0.3543  0.0243  0.0348
40367W        W49167  14.523   5.853   1.200  0.1561 -0.1753  0.0297
40368W        W49168  28.772   7.601   4.357  0.0057  0.3171  0.3471
40369W        W49169  17.105   0.506   8.714  0.1652  0.1410  0.2727
40370W        W49170  26.499   6.528  18.759 -0.0349 -0.0004  0.1647
40371W        W49171  22.963   7.389   4.011 -0.1387  0.0251 -0.1634
40372W        W49172  17.329   1.950  20.913 -0.1035  0.2335  0.1493
40373W        W49173  20.967   4.491   7.945  0.3790 -0.1769  0.0919
40374W        W49174   0.722   6.308  24.217  0.0018 -0.1198 -0.2661
40375W        W49175  18.481   0.441  21.010 -0.1475 -0.1836  0.0951
40376W        W49176   4.793   1.216   1.289  0.4107  0.1098  0.0787
40377W        W49177  19.191   0.439   6.098  0.1818  0.0093  0.0299
40378W        W49178   8.140   3.711   6.678  0.3190  0.0705  0.2010
40379W        W49179  13.315   0.130  25.049 -0.1010 -0.2846 -0.2847
40380W        W49180   7.816   1.237   3.945 -0.1772  0.2295  0.1411
40381W        W49181  18.643   0.209   7.742  0.0030  0.1514  0.0607
40382W        W49182  25.835   6.868  23.496  0.0253 -0.1650  0.1171
40383W        W49183  18.878   6.025   6.193  0.0710 -0.1363 -0.0704
40384W        W49184   1.078   6.125  23.005 -0.0745  0.1545 -0.1502
40385W        W49185  11.720   6.657  18.327 -0.0670  0.1684  0.2080
40386W        W49186  11.958   2.818  10.547 -0.0615  0.0747  0.2007
40387W        W49187   8.432   2.382  21.379 -0.2275  0.3113  0.0580
40388W        W49188  28.512   3.380  10.422  0.0129  0.0121 -0.2616
40389W        W49189  12.510   6.953  23.305 -0.1934  0.0492  0.0676
40390W        W49190  29.882   1.610  17.793 -0.2656  0.2652  0.0185
40391W        W49191  22.482   1.397   8.456 -0.1951  0.1164  0.2018
40392W        W49192  25.689   1.712   5.414  0.0786 -0.1233 -0.3118
40393W        W49193   1.974   5.796  11.069  0.1336 -0.0190 -0.0894
40394W        W49194   7.153   3.376   7.938  0.3259 -0.6810  0.2224
40395W        W49195  29.641   4.697   5.527  0.0581  0.0565  0.1434
40396W        W49196  16.235   0.488   9.329  0.0015 -0.1145 -0.0447
40397W        W49197   7.965   1.944  24.434 -0.1441 -0.0299 -0.0394
40398W        W49198   4.525   0.754   5.351 -0.0431 -0.1227 -0.2264
40399W        W49199   9.843   3.848  16.420  0.1148 -0.2589  0.3001
40400W        W49200  14.176   1.510  21.980 -0.0571  0.2237 -0.1224
40401W        W49201   5.730   6.704  16.250  0.0740 -0.3614  0.1216
40402W        W49202  18.336   0.714   4.936  0.1656  0.0217  0.0440
40403W        W49203   3.924   2.190  23.023  0.1065 -0.0662  0.1957
40404W        W49204  25.777   6.552  20.546  0.1096  0.2119 -0.1493
40405W        W49205   8.333   3.776   0.579  0.1187  0.2466 -0.0949
40406W        W49206  23.808   1.698  21.972  0.0862 -0.1735  0.0740
40407W        W49207   3.797   1.062   2.266 -0.0678  0.0046  0.0283
40408W        W49208   3.823   3.332  16.891  0.3191 -0.1218 -0.3209
40409W        W49209  24.455   1.961   2.132 -0.0909 -0.1409  0.3046
40410W        W49210  26.423   1.604  23.866 -0.2298 -0.1637 -0.0430
40411W        W49211  24.444   5.189  15.342  0.0763  0.1836  0.0621
40412W        W49212   1.487   0.693   0.082  0.1624  0.2760  0.1503
40413W        W49213  24.023   5.685  26.008 -0.0938  0.1380 -0.3112
40414W        W49214   4.727   7.055   9.675 -0.4022  0.3060  0.2914
40415W        W49215  25.245   7.460  16.278  0.1749  0.0940  0.2523
40416W        W49216  24.779   3.617  21.169 -0.0512 -0.2754  0.1069
40417W        W49217  22.667   7.603   2.756  0.0382  0.0152  0.0469
40418W        W49218   9.099   4.475   9.211  0.0534 -0.2381 -0.0309
40419W        W49219  20.615   6.864   7.496  0.0058  0.2979  0.1408
40420W        W49220  22.297   2.216  22.449 -0.3377 -0.0916  0.1652
40421W        W49221  20.523   1.888   6.307  0.3236 -0.1214  0.0117
40422W        W49222  10.637   3.635   9.587 -0.1300  0.1529  0.2107
40423W        W49223   1.562   1.960  18.424  0.1534  0.2526 -0.0447
40424W        W49224  23.580   2.323  23.502  0.2370 -0.2298 -0.1013
40425W        W49225  19.883   2.136  22.747  0.0864  0.1775 -0.0049
40426W        W49226  27.821   5.412   7.519 -0.0633 -0.3125 -0.2686
40427W        W49227  14.603   6.881  23.538  0.2559 -0.1362  0.2053
40428W        W49228  15.079   3.359  24.067  0.2381 -0.1704  0.1132
40429W        W49229  23.987   0.149  22.027  0.2789  0.1054  0.0652
40430W        W49230  14.705   2.328   5.595 -0.0224 -0.2104  0.0998
40431W        W49231   5.051   5.068  16.141 -0.0976 -0.1128 -0.1498
40432W        W49232   7.406   3.763   2.429  0.0651  0.0133 -0.1379
40433W        W49233   6.016   7.039   0.977 -0.0574 -0.0197  0.1709
40434W        W49234   0.596   7.087   6.570 -0.1265  0.0147 -0.0541
40435W        W49235  27.939   0.809  24.748 -0.2939  0.2300  0.1124
40436W        W49236  20.482   0.174  24.528  0.0126  0.1089 -0.2002
40437W        W49237  14.381   5.423   3.687  0.0660 -0.3292  0.1417
40438W        W49238   8.081   5.696   4.165  0.0637  0.0784 -0.1607
40439W        W49239  21.255   1.075  18.417  0.2614 -0.2973  0.0902
40440W        W49240  16.859   2.086   8.839  0.0778  0.2871 -0.1806
40441W        W49241   4.674   2.164   7.748  0.0489 -0.0297  0.1272
40442W        W49242   5.117   6.365   9.096 -0.1503  0.3845 -0.2293
40443W        W49243   6.364   3.482   9.934 -0.0124 -0.2994 -0.0373
40444W        W49244  23.261   3.583  18.823  0.2168  0.0620  0.1196
40445W        W49245  16.328   2.013   2.780 -0.0557 -0.0394 -0.0980
40446W        W49246   0.476   2.472   2.627  0.0320  0.1283 -0.0017
40447W        W49247  27.683   1.694  17.537 -0.1507 -0.0196 -0.2961
40448W        W49248  26.919   1.457  15.919  0.4508 -0.1275 -0.0233
40449W        W49249  26.577   7.799   4.263 -0.0884  0.1007 -0.1887
40450W        W49250   8.878   3.159  21.570  0.1369  0.0723  0.5385
40451W        W49251  28.459   2.522  10.800  0.0621  0.3697  0.0310
40452W        W49252  26.489   7.098  20.763  0.1614 -0.0989 -0.0268
40453W        W49253  18.241   5.907   2.253  0.1025 -0.1514  0.2385
40454W        W49254  22.409   2.180  19.603  0.1296 -0.0342  0.0894
40455W        W49255  16.384   3.431  20.738 -0.0595 -0.1020 -0.0479
40456W        W49256  15.328   1.366   7.636  0.0926 -0.1216  0.0571
40457W        W49257   3.880   0.325  25.257  0.2277 -0.0116 -0.0159
40458W        W49258   4.778   2.450   0.037  0.1799  0.0825 -0.3066
40459W        W49259  29.312   1.197   6.144  0.1404  0.3992  0.0303
40460W        W49260  18.677   0.609   1.039  0.0717 -0.1813  0.2806
40461W        W49261  23.351   5.851   9.814  0.1609 -0.2966  0.0415
40462W        W49262  15.670   6.806  19.938  0.1682  0.1701 -0.1577
40463W        W49263   4.980   3.941  17.712 -0.1360  0.1476 -0.0079
40464W        W49264   2.454   4.399  26.018  0.0654 -0.0516 -0.0465
40465W        W49265  30.218   0.825  19.589  0.2225 -0.1512  0.1538
40466W        W49266  10.025   2.733   0.867  0.1167 -0.1416 -0.2124
40467W        W49267  19.870   0.458  15.305  0.1169  0.0084  0.1524
40468W        W49268  29.553   2.974   7.062 -0.0123  0.0450  0.4364
40469W        W49269  31.003   1.346  16.434  0.1671  0.2720 -0.0820
40470W        W49270  10.010   2.096   1.292 -0.1162 -0.1650 -0.0982
40471W        W49271  19.018   0.666  10.127  0.0777  0.0788 -0.0236
40472W        W49272  11.673   0.613  15.700 -0.1602 -0.1218  0.0289
40473W        W49273  16.768   6.353   8.855 -0.0154  0.1100  0.0093
40474W        W49274  10.886   4.598   0.809 -0.0050 -0.0177  0.0300
40475W        W49275  13.345   1.665   4.841 -0.1101 -0.1537  0.0337
40476W        W49276  27.293   0.346  15.743  0.2247  0.0518  0.0729
40477W        W49277  15.336   6.580   2.466  0.0680 -0.1675 -0.2691
40478W        W49278   5.285   2.956   3.469 -0.0164  0.0356  0.0037
40479W        W49279  20.009   6.779  20.607  0.0770 -0.0020  0.1548
40480W        W49280  15.716   7.111  26.190  0.0908 -0.2600  0.2112
40481W        W49281  12.465   7.521  20.030 -0.0968 -0.1737  0.2115
40482W        W49282  18.176   0.095  20.682  0.0657  0.1745  0.1709
40483W        W49283  30.745   6.112   1.926  0.2110 -0.3103 -0.0158
40484W        W49284   1.197   4.653  22.388 -0.0023  0.0687  0.1513
40485W        W49285   3.699   5.578   6.208  0.2428  0.3237 -0.1601
40486W        W49286   9.156   2.464   2.816 -0.0378 -0.0938 -0.1967
40487W        W49287   0.018   3.992  21.112 -0.2251  0.2771  0.1328
40488W        W49288  27.488   2.848  20.041 -0.1921  0.0331  0.0529
40489W        W49289   2.706   7.307   7.324  0.1375 -0.1032  0.1236
40490W        W49290  10.665   6.550  21.548  0.3746  0.2679  0.3678
40491W        W49291  10.601   0.866   1.766  0.2368 -0.0617 -0.1287
40492W        W49292  12.329   2.856   1.573  0.1952 -0.1477 -0.0833
40493W        W49293  18.702   2.091  24.450 -0.1063 -0.1857  0.1458
40494W        W49294   3.589   3.711   6.260 -0.3064 -0.2866 -0.0820
40495W        W49295   2.418   4.962   5.014  0.2587  0.1923 -0.0209
40496W        W49296   4.806   3.429  21.957  0.1103 -0.2352  0.0999
40497W        W49297  30.626   3.675  18.624 -0.0659 -0.1228 -0.1097
40498W        W49298  12.416   0.310   2.546 -0.2761  0.1060  0.0163
40499W        W49299   0.377   5.662  24.256 -0.1624  0.0193  0.0283
40500W        W49300  16.126   6.692   6.477 -0.0452 -0.3997  0.3530
40501W        W49301  26.789   6.922  19.025  0.0590 -0.1427  0.1436
40502W        W49302  12.342   5.909   2.157 -0.2015 -0.0477 -0.1162
40503W        W49303   4.529   6.344   3.531  0.0299  0.2237  0.0952
40504W        W49304   5.052   4.236  24.542 -0.3145 -0.0931 -0.0627
40505W        W49305   0.729   2.612   3.359  0.0552 -0.2719 -0.1903
40506W        W49306   0.835   6.142   7.294 -0.0739 -0.0327 -0.2063
40507W        W49307   9.626   2.035  20.103  0.1144  0.0606  0.0837
40508W        W49308  24.751   3.864  22.210  0.0413  0.0678 -0.0649
40509W        W49309   7.469   7.336  25.563 -0.2258 -0.0734  0.2710
40510W        W49310  11.059   5.662   0.657 -0.0239  0.3636 -0.1804
40511W        W49311  16.171   2.605   5.368  0.2039  0.2172  0.1335
40512W        W49312  30.747   0.683  24.886  0.0699 -0.2112  0.2747
40513W        W49313   1.694   3.026   2.941 -0.6467 -0.1001 -0.0317
40514W        W49314  10.022   6.406   0.588 -0.1628 -0.0603  0.1425
40515W        W49315  20.194   0.507  20.250 -0.1630  0.2383 -0.1412
40516W        W49316   6.134   4.749  17.918 -0.2148 -0.2257 -0.0744
40517W        W49317   1.535   1.570  11.982  0.3504 -0.0062 -0.1378
40518W        W49318   9.645   1.929   0.318  0.0230  0.0492 -0.3224
40519W        W49319   6.890   2.993  20.071  0.2079  0.0750 -0.3483
40520W        W49320  25.098   7.085  19.215  0.0396  0.1387  0.0326
40521W        W49321  29.773   7.058  24.409  0.3194 -0.0023  0.3587
40522W        W49322  27.361   1.188  18.985 -0.3201 -0.3261 -0.0228
40523W        W49323  13.936   6.031   8.796 -0.2198 -0.0065  0.0154
40524W        W49324  26.703   0.525   5.394  0.2054  0.1769 -0.1380
40525W        W49325   8.592   6.824   1.316 -0.0427 -0.2089  0.1656
40526W        W49326   8.100   0.148  22.597 -0.3950  0.0793  0.2854
40527W        W49327  23.922   7.729  20.014  0.0678 -0.0068  0.1251
40528W        W49328  31.287   7.409   8.684 -0.0455 -0.1288 -0.1202
40529W        W49329   1.105   2.569  18.473  0.0715  0.1329 -0.0871
40530W        W49330   7.738   4.109   6.067 -0.1169  0.1295 -0.0416
40531W        W49331   6.315   4.229  25.190  0.3766 -0.1481 -0.1357
40532W        W49332  16.025   1.030   6.092  0.1848  0.2866 -0.0266
40533W        W49333  11.789   4.731   1.010  0.1343  0.2381  0.0913
40534W        W49334  10.055   6.563  22.995  0.0165 -0.1505 -0.0309
40535W        W49335  14.506   1.764   6.434  0.2523  0.0844  0.0098
40536W        W49336  19.809   6.339  19.599 -0.0380 -0.4243  0.0476
40537W        W49337   5.016   6.100   3.923  0.1031  0.2630  0.0044
40538W        W49338  19.055   2.491   1.392  0.0360  0.0638 -0.1613
40539W        W49339   8.016   1.057  24.210  0.1323  0.0732  0.0529
40540W        W49340   1.591   3.213  23.287  0.0623 -0.2800  0.0756
40541W        W49341   3.791   2.388   1.339  0.2427 -0.1361  0.3241
40542W        W49342  19.320   5.820   7.517  0.1250  0.2233  0.1101
40543W        W49343  28.771   0.578  24.352  0.1254 -0.3653 -0.0191
40544W        W49344  20.737   5.199  15.319 -0.0162 -0.2991 -0.1751
40545W        W49345  10.300   4.064   5.048  0.1834 -0.1081 -0.0321
40546W        W49346  30.767   0.474   7.677 -0.0167  0.2155  0.0628
40547W        W49347   6.510   5.704   6.487 -0.3434  0.0737 -0.2877
40548W        W49348  11.832   5.995  16.084 -0.0345 -0.0715  0.2113
40549W        W49349  27.000   6.863   1.895  0.2587  0.2483 -0.0465
40550W        W49350   5.867   7.347   3.566 -0.0640 -0.0619 -0.0095
40551W        W49351  26.666   0.984   4.488 -0.1276 -0.1398  0.0839
40552W        W49352  16.927   1.050   0.925 -0.2176  0.0191 -0.0420
40553W        W49353  18.275   2.922  16.358 -0.0274  0.1458  0.0266
40554W        W49354   2.750   0.322   0.988  0.1864  0.0042  0.0121
40555W        W49355   3.134   1.981  19.828 -0.0259 -0.1107  0.0978
40556W        W49356  26.829   0.264  20.615  0.0993 -0.0224  0.0821
40557W        W49357  16.843   0.539   0.091  0.2705  0.2077 -0.1856
40558W        W49358  29.676   4.463   7.451 -0.1666 -0.1281  0.1030
40559W        W49359   5.411   0.436  10.744 -0.0772 -0.0010  0.0589
40560W        W49360  10.603   4.463  16.921  0.1179  0.0896 -0.1256
40561W        W49361  30.146   3.078  15.776  0.0022  0.1113  0.2774
40562W        W49362   7.391   7.228   2.757 -0.0498 -0.0834 -0.1257
40563W        W49363  30.836   0.882   0.679  0.1469 -0.1450 -0.1570
40564W        W49364  10.263   3.487  21.862 -0.1801  0.1940  0.0073
40565W        W49365  17.917   5.544   2.446  0.0855 -0.2070 -0.3100
40566W        W49366  11.320   7.594   4.686 -0.3733  0.0292  0.0508
40567W        W49367   1.998   3.784   8.135 -0.2548  0.2486 -0.0174
40568W        W49368  20.773   7.268  15.772  0.3118  0.3178  0.2129
40569W        W49369  26.918   6.506   1.357 -0.0213 -0.1058  0.0782
40570W        W49370   7.514   3.482   2.882 -0.2661 -0.1758  0.3385
40571W        W49371  26.728   0.983  19.024 -0.0047 -0.1254 -0.0108
40572W        W49372  30.416   5.618  25.266 -0.0261  0.4515 -0.1360
40573W        W49373   5.836   3.486   1.359 -0.0906  0.0279  0.0334
40574W        W49374   0.537   6.437   5.554 -0.1443 -0.0188  0.1017
40575W        W49375  16.338   1.840   5.737  0.0333 -0.1367 -0.0581
40576W        W49376  16.341   6.737   0.885  0.0163  0.2334 -0.1266
40577W        W49377  12.066   6.462   3.419 -0.0083 -0.0568 -0.3777
40578W        W49378  21.503   2.678   5.644  0.1491 -0.1301  0.1794
40579W        W49379   0.885   3.860  25.904  0.1076  0.0118 -0.2468
40580W        W49380  28.271   1.633  10.716  0.0835  0.0433 -0.1528
40581W        W49381  12.881   5.658  22.560 -0.1907  0.0757 -0.1215
40582W        W49382  26.826   3.869  15.621 -0.2646 -0.0249  0.0843
40583W        W49383   2.526   3.475  18.476 -0.0341  0.1510  0.2352
40584W        W49384  29.231   0.721   2.929 -0.1112 -0.0613  0.0530
40585W        W49385  20.153   6.086   2.440 -0.1906 -0.5026 -0.1663
40586W        W49386  16.636   7.315  15.684 -0.0527  0.1926 -0.0822
40587W        W49387  30.241   3.934  23.149 -0.2696 -0.1409 -0.0479
40588W        W49388  15.425   3.747   4.660 -0.0344 -0.0437  0.0379
40589W        W49389  16.333   1.363   3.488  0.1449  0.2246 -0.2234
40590W        W49390   2.441   7.172   5.660 -0.1734 -0.3251  0.1367
40591W        W49391  14.177   0.356   5.693  0.5609  0.1179  0.1463
40592W        W49392  25.219   3.429   4.132  0.1064 -0.1590 -0.0715
40593W        W49393  28.178   7.397   3.331  0.0066 -0.1821 -0.0057
40594W        W49394  16.143   2.527  24.635 -0.1366  0.2183  0.2599
40595W        W49395  22.440   6.038  19.274 -0.0791 -0.0316 -0.0591
40596W        W49396  25.710   7.762   4.212 -0.0826  0.0248 -0.1307
40597W        W49397   7.390   6.372  23.711 -0.0719 -0.2806 -0.1185
40598W        W49398  18.000   3.315  21.638 -0.2617 -0.4150  0.1643
40599W        W49399  19.433   3.047   4.458  0.1784  0.0284  0.2892
40600W        W49400  23.551   7.756   8.517 -0.2378  0.3408  0.0147
40601W        W49401  28.774   6.166   0.041 -0.2741 -0.1706  0.3943
40602W        W49402   2.726   4.225  17.106  0.1792  0.1316  0.1089
40603W        W49403  17.617   4.240   3.520  0.4089 -0.0673 -0.1246
40604W        W49404  21.751   6.413   3.534  0.0861 -0.0593 -0.0567
40605W        W49405  13.191   6.925   9.203 -0.0143  0.1761 -0.3633
40606W        W49406   1.242   5.891  24.181 -0.2363  0.0333 -0.3844
40607W        W49407  12.950   1.484   8.510 -0.1304  0.2003 -0.1391
40608W        W49408  27.927   6.731  17.825 -0.0939  0.3590  0.0237
40609W        W49409  14.373   4.842  18.619  0.1927  0.1217 -0.0393
40610W        W49410   5.632   7.752  15.291 -0.0511 -0.1791  0.0173
40611W        W49411   3.941   1.538   3.391  0.0644  0.0671 -0.2926
40612W        W49412   4.766   3.542   1.217  0.0578  0.0864  0.1245
40613W        W49413  18.398   2.958   2.346  0.1346 -0.1623 -0.1365
40614W        W49414  11.742   2.135  18.307 -0.1263  0.1365 -0.3178
40615W        W49415  28.863   5.752   4.780  0.0350 -0.2538  0.0381
40616W        W49416  23.956   6.569  25.986 -0.3235 -0.1942 -0.1991
40617W        W49417  31.217   1.681  16.769  0.3865  0.1265 -0.0724
40618W        W49418   9.305   3.891   7.610  0.1479 -0.2405 -0.2159
40619W        W49419  15.661   5.712  20.546 -0.0102  0.2376 -0.0842
40620W        W49420   5.832   4.188  21.781  0.0314 -0.0629  0.2073
40621W        W49421  19.890   6.864   6.501  0.2557  0.1693 -0.1961
40622W        W49422  23.405   5.229   6.560 -0.0347 -0.0446  0.0015
40623W        W49423  28.459   4.204   6.629 -0.2432 -0.3124  0.0426
40624W        W49424   3.519   2.901   2.709 -0.0449 -0.2163  0.0536
40625W        W49425  26.193   7.705  18.901 -0.1603  0.0891  0.0510
40626W        W49426   3.861   4.232  18.560 -0.1664 -0.3638 -0.1277
40627W        W49427   0.720   1.075  10.254 -0.0906 -0.2401  0.3519
40628W        W49428   0.582   0.705  16.832  0.1532  0.1353  0.0790
40629W        W49429   5.640   6.273  10.212  0.1129 -0.2040  0.3131
40630W        W49430  12.503   7.612   5.288 -0.1014 -0.1464  0.0041
40631W        W49431  24.163   7.402  18.542 -0.0147  0.1199  0.2304
40632W        W49432  12.210   0.863  19.640  0.1550 -0.1141  0.0042
40633W        W49433  26.114   2.307  20.006 -0.1283  0.0230 -0.2405
40634W        W49434  30.379   0.562   1.496  0.0142  0.1314 -0.0140
40635W        W49435  27.102   1.912  19.420 -0.1047  0.3317 -0.0383
40636W        W49436  25.835   3.534   5.664  0.0243  0.2629  0.0399
40637W        W49437  29.885   2.867  10.330 -0.0578 -0.3038  0.0004
40638W        W49438  13.875   4.854  17.945 -0.1136  0.2728  0.1951
40639W        W49439  17.523   1.224  22.532 -0.0946 -0.1304 -0.2391
40640W        W49440  20.890   6.508  24.310 -0.2189 -0.1137  0.0150
40641W        W49441   0.006   4.870  18.493 -0.0829 -0.3834 -0.0654
40642W        W49442  24.750   6.891   7.900  0.1999  0.0428 -0.0388
40643W        W49443  21.256   6.467   4.445 -0.0577  0.0148 -0.1416
40644W        W49444   1.655   0.370  22.221 -0.1830  0.0585  0.0502
40645W        W49445  30.520   6.123   5.130  0.2805 -0.0678 -0.1107
40646W        W49446  12.258   4.864   4.913  0.0673 -0.1061 -0.0907
40647W        W49447  29.859   0.572   1.821 -0.0726  0.0107 -0.0007
40648W        W49448  24.422   1.080   1.149  0.1379  0.0132  0.0054
40649W        W49449  11.214   4.521   6.323  0.3762 -0.0930 -0.2787
40650W        W49450  22.879   2.167   0.523  0.1223 -0.0123 -0.3069
40651W        W49451   5.112   5.820   8.121  0.3856 -0.3402  0.1564
40652W        W49452  11.819   7.731  20.374  0.0148 -0.1830  0.0701
40653W        W49453  29.945   2.131  21.241  0.0684  0.2628 -0.0005
40654W        W49454  21.916   4.085  15.160  0.1616 -0.2136  0.1215
40655W        W49455  28.207   5.385  23.772 -0.2219  0.0460 -0.2296
40656W        W49456   1.215   5.748  19.397  0.0261  0.1636  0.1225
40657W        W49457   7.573   1.267   0.748  0.0339 -0.2054 -0.3242
40658W        W49458  21.010   1.218   7.326  0.1005  0.2087  0.1745
40659W        W49459   7.586   4.062  26.150 -0.3132 -0.2082  0.1311
40660W        W49460  17.079   5.552  22.620 -0.3217  0.0931  0.2592
40661W        W49461  24.041   6.647   2.347  0.0198 -0.0200  0.1343
40662W        W49462  25.956   4.404  15.739  0.0581 -0.0230  0.1536
40663W        W49463  26.457   1.865  23.413 -0.1721  0.3372  0.0527
40664W        W49464  26.116   7.742   1.905 -0.0865 -0.2699 -0.3613
40665W        W49465  29.247   5.300   8.573 -0.2057  0.1039 -0.3058
40666W        W49466  29.339   1.705  17.725  0.3044 -0.0125 -0.2139
40667W        W49467  21.664   4.814   2.635  0.0589 -0.1367  0.2525
40668W        W49468  13.061   7.617  10.782  0.0691  0.1128  0.1722
40669W        W49469   2.896   3.092  20.311  0.0875  0.2078 -0.1073
40670W        W49470  11.132   7.250   4.462 -0.0756  0.1623  0.0032
40671W        W49471   6.752   4.308  22.174 -0.2482  0.1790  0.0258
40672W        W49472  30.863   6.156   9.498 -0.2617  0.1706  0.0653
40673W        W49473  30.951   1.572   6.439  0.1212 -0.2994  0.1788
40674W        W49474   2.288   0.057  15.996  0.0078 -0.1694  0.1349
40675W        W49475  18.499   5.056  17.493 -0.3122  0.0215 -0.1360
40676W        W49476  16.385   4.403  23.754 -0.2921 -0.0725 -0.2500
40677W        W49477  11.328   5.559  18.761  0.1532 -0.2319  0.2617
40678W        W49478   8.177   4.103   9.422 -0.2985 -0.0465  0.0300
40679W        W49479  27.058   0.918  24.850 -0.0728 -0.0963 -0.1182
40680W        W49480  11.273   1.051  16.199  0.2376  0.0232 -0.0468
40681W        W49481  21.014   0.583   8.328 -0.1563 -0.2230 -0.0330
40682W        W49482  30.926   4.904   5.932  0.0658  0.0835  0.0914
40683W        W49483   5.021   1.550   9.335 -0.0165  0.0770 -0.0852
40684W        W49484  28.050   5.418   4.393  0.1325 -0.1317 -0.0015
40685W        W49485  19.958   4.104  24.348 -0.0748  0.0009 -0.0297
40686W        W49486   6.799   6.106  18.738  0.1845  0.0882 -0.0214
40687W        W49487  26.218   7.655  17.033 -0.2230  0.2224 -0.0144
40688W        W49488   1.755   1.585  19.149  0.0705 -0.4484  0.0942
40689W        W49489  30.795   0.468  16.855  0.0141 -0.2955 -0.2492
40690W        W49490  14.291   3.230  20.882  0.0324  0.1574  0.0175
40691W        W49491  20.064   7.594   8.102 -0.1617 -0.3175  0.1069
40692W        W49492   8.696   5.553   2.673  0.4295 -0.0328  0.0369
40693W        W49493  27.256   1.412   7.986  0.0660 -0.1876 -0.2673
40694W        W49494   5.185   5.228  10.078  0.0769  0.0830  0.0263
40695W        W49495  17.912   2.003   3.841  0.1906  0.0239 -0.2358
40696W        W49496   0.227   7.602  11.333 -0.1278 -0.3596 -0.1227
40697W        W49497  14.263   2.124  10.424  0.2604 -0.2544 -0.0156
40698W        W49498   7.844   7.812   5.436  0.1861 -0.0044  0.0555
40699W        W49499  11.339   1.680  23.651 -0.0888 -0.1634  0.2473
40700W        W49500  14.291   3.571  22.914 -0.0730 -0.1118  0.2241
40701W        W49501  15.867   4.320  15.175  0.1039  0.2840  0.0403
40702W        W49502   8.990   4.250   2.032  0.0437  0.1301  0.2132
40703W        W49503   3.666   0.564   9.232  0.1072  0.0892  0.2093
40704W        W49504  24.411   6.833   1.417  0.1584  0.0204 -0.0616
40705W        W49505   4.883   6.259  23.615  0.1768  0.2387  0.0297
40706W        W49506  15.974   3.238  23.963  0.0461  0.0848  0.2451
40707W        W49507  16.634   6.795  25.222  0.0577  0.0216 -0.2229
40708W        W49508  11.006   2.289  16.094 -0.2332 -0.0286 -0.0530
40709W        W49509  16.590   0.004   9.837 -0.1143  0.0115  0.2668
40710W        W49510  28.800   7.230   5.205  0.1089  0.2124 -0.2432
40711W        W49511   7.329   3.723  15.763 -0.0180 -0.2132 -0.0395
40712W        W49512   4.611   4.563  25.036  0.0220  0.0342 -0.2229
40713W        W49513  23.816   3.029  19.568  0.0506 -0.1605 -0.2466
40714W        W49514  23.299   7.268  23.528  0.0133  0.3171  0.3015
40715W        W49515   7.986   5.653  19.487 -0.0539  0.1922 -0.0340
40716W        W49516  28.281   7.502  18.637  0.2254 -0.2124 -0.2303
40717W        W49517   9.125   3.914  17.596 -0.0496 -0.0511 -0.1617
40718W        W49518   7.908   0.849   4.236 -0.0973 -0.1218 -0.5323
40719W        W49519  11.763   1.991  20.586  0.1364  0.0111 -0.0756
40720W        W49520   4.050   3.858   0.094  0.1450 -0.0827  0.0236
40721W        W49521   4.111   1.559   7.720 -0.0159 -0.1509 -0.0265
40722W        W49522  22.591   2.293  24.546  0.3670 -0.0441  0.0911
40723W        W49523   6.720   6.302   0.883  0.1036 -0.0084  0.5095
40724W        W49524   1.740   4.010  25.605 -0.0293 -0.1744  0.2095
40725W        W49525   9.352   3.209   5.742  0.1384 -0.2323 -0.2852
40726W        W49526  10.109   0.403   8.893 -0.0363  0.0252  0.3154
40727W        W49527  28.022   5.642   8.457  0.3759 -0.0401 -0.0827
40728W        W49528  14.828   6.076   0.770  0.1597 -0.0668 -0.2638
40729W        W49529  10.059   7.141  23.215 -0.0978 -0.2249  0.1839
40730W        W49530  23.176   3.809  20.698 -0.3755  0.1424  0.2187
40731W        W49531  27.199   7.673  17.889 -0.2162 -0.0451 -0.1826
40732W        W49532   4.210   2.410   6.808 -0.0057  0.3064 -0.0571
40733W        W49533   6.128   7.396   8.091 -0.2012  0.0626  0.1929
40734W        W49534  16.266   3.537   2.195 -0.3299 -0.2410  0.1401
40735W        W49535  14.157   7.031   7.695 -0.5236  0.0046  0.0907
40736W        W49536   4.945   3.269  18.413 -0.1498 -0.2425  0.1098
40737W        W49537  12.036   2.668   7.706 -0.0992 -0.1393 -0.0851
40738W        W49538  27.337   4.837  24.598  0.1847  0.1821 -0.3366
40739W        W49539  18.611   4.580  16.273  0.3824 -0.2202  0.1611
40740W        W49540  10.108   3.912   2.618  0.1125 -0.1825  0.0712
40741W        W49541  10.795   4.816  10.692  0.0171 -0.2142  0.0793
40742W        W49542  18.482   3.123  23.951 -0.1101  0.0954  0.0018
40743W        W49543  17.725   6.665   4.640 -0.2701 -0.0110 -0.3156
40744W        W49544  24.017   4.875  23.880 -0.0338 -0.1296  0.0225
40745W        W49545  17.538   3.851  24.895  0.2314  0.1184  0.0701
40746W        W49546  18.700   3.735   5.467  0.1646  0.3872  0.1385
40747W        W49547  10.835   7.457   3.412  0.1784 -0.0385 -0.1149
40748W        W49548   4.881   2.754  10.815 -0.0425 -0.0008  0.4488
40749W        W49549  26.623   6.853   9.793  0.1221 -0.0743 -0.1380
40750W        W49550   2.420   6.530   0.118 -0.1349  0.0476  0.2462
40751W        W49551  18.493   7.403  15.296  0.0266 -0.0173  0.1295
40752W        W49552   5.057   3.803  22.326 -0.2252 -0.0580  0.0479
40753W        W49553  18.344   1.351   6.465 -0.0186 -0.0133  0.1935
40754W        W49554   4.123   1.466   6.643 -0.2379  0.1467 -0.0080
40755W        W49555  23.509   0.303   4.445  0.2367 -0.1207 -0.1822
40756W        W49556  29.086   1.359  23.244 -0.1735 -0.0442 -0.1579
40757W        W49557  22.917   1.294   5.768  0.0113 -0.1847 -0.0886
40758W        W49558  11.975   5.161   2.313  0.1942 -0.0895  0.2380
40759W        W49559   4.453   2.167   9.734 -0.0544  0.0277  0.2555
40760W        W49560  18.462   0.560   1.880 -0.1294  0.0764 -0.2157
40761W        W49561   6.491   1.877   9.935  0.0189  0.0173 -0.1568
40762W        W49562  15.211   4.618  24.270  0.1652 -0.0982 -0.0182
40763W        W49563  27.508   6.218  15.562  0.0698  0.3712 -0.2547
40764W        W49564   1.735   1.669   9.740  0.3589  0.1589  0.0604
40765W        W49565  16.433   3.885  25.083  0.3492  0.2390 -0.1172
40766W        W49566  14.698   6.504  22.757 -0.0934  0.1282 -0.0225
40767W        W49567  17.418   5.136  21.334 -0.1970  0.0026 -0.0001
40768W        W49568   1.946   7.362  11.100  0.0277  0.3575 -0.0952
40769W        W49569  12.396   3.030  22.266 -0.0475 -0.1095 -0.0142
40770W        W49570  11.588   0.426  17.419  0.1588 -0.0631 -0.1128
40771W        W49571  12.179   6.557  10.568  0.1430 -0.0321  0.3414
40772W        W49572  23.532   1.045  21.266 -0.0272 -0.0897  0.1711
40773W        W49573  31.098   6.133   7.440 -0.0289  0.0129 -0.1304
40774W        W49574  15.379   1.654   7.145 -0.0717 -0.0092  0.1722
40775W        W49575  23.108   3.441  24.255 -0.0864  0.0194 -0.0262
40776W        W49576  16.569   0.292  15.611 -0.0792  0.3884  0.3022
40777W        W49577  28.784   0.782   6.890 -0.1864 -0.0769  0.2600
40778W        W49578   6.701   3.871   9.010 -0.2889  0.1140  0.0191
40779W        W49579  30.918   4.883  18.220  0.0955  0.0705  0.0734
40780W        W49580  26.805   7.607  14.835  0.2982 -0.1825  0.1597
40781W        W49581   4.461   3.225   0.073 -0.1718  0.0939 -0.1660
40782W        W49582  14.741   1.912   6.823 -0.1730 -0.3659  0.0642
40783W        W49583   2.441   3.052  16.071 -0.1754 -0.2526  0.1466
40784W        W49584  30.946   5.958   7.911 -0.0824  0.2039  0.1790
40785W        W49585  16.539   5.560  11.134  0.4092  0.0815 -0.2054
40786W        W49586  16.720   4.199   3.707 -0.1282 -0.2448  0.0199
40787W        W49587   4.962   5.741  24.082 -0.1072  0.0432  0.0416
40788W        W49588  24.559   2.548  19.200 -0.0188 -0.1041  0.0405
40789W        W49589   3.920   4.417   2.196 -0.1077 -0.0404 -0.2259
40790W        W49590   4.214   1.017  17.878 -0.3750 -0.2113  0.1582
40791W        W49591  20.561   4.742   3.384  0.0765  0.0063  0.0824
40792W        W49592  19.229   2.625  21.122 -0.0146  0.1648 -0.0612
40793W        W49593   8.920   6.292  23.634  0.0408  0.2709  0.0545
40794W        W49594  11.815   5.120   7.667 -0.0163 -0.3648  0.0323
40795W        W49595  11.746   3.303  17.786 -0.0189  0.0534 -0.2065
40796W        W49596   3.229   0.379   8.460 -0.2479  0.0568  0.2066
40797W        W49597  19.218   0.732  17.501  0.1536 -0.1458 -0.1353
40798W        W49598  27.759   3.503  25.347  0.0533  0.0001 -0.1013
40799W        W49599   3.883   7.389   4.322  0.0153  0.3523  0.4267
40800W        W49600   0.843   0.835  17.242  0.1272 -0.1416 -0.1981
40801W        W49601  27.514   2.916  23.051 -0.0885 -0.0257 -0.0292
40802W        W49602  23.745   3.594   2.756 -0.0067  0.0328  0.1016
40803W        W49603  18.457   1.193  10.407  0.2856  0.1829 -0.1234
40804W        W49604   2.007   7.539  18.684 -0.2517  0.1705 -0.1496
40805W        W49605  17.260   5.431   3.225 -0.3162 -0.4111  0.1368
40806W        W49606   8.094   6.423   5.216  0.0039 -0.1917 -0.0374
40807W        W49607  18.728   1.621  20.930  0.0126  0.3065 -0.2890
40808W        W49608   2.902   6.329  18.540 -0.0710  0.0732  0.2216
40809W        W49609  25.218   3.260  17.579  0.1039 -0.0600 -0.0650
40810W        W49610  10.349   5.724   4.878  0.0458 -0.0365 -0.1764
40811W        W49611  21.551   0.316  15.517  0.2096 -0.4392 -0.1055
40812W        W49612  27.412   6.733  19.692 -0.1738  0.1775 -0.3087
40813W        W49613  28.455   2.826   2.739  0.0391 -0.1428  0.0997
40814W        W49614  14.083   0.197  10.558  0.1462 -0.4161  0.2119
40815W        W49615  11.507   7.824   5.528 -0.0674 -0.5341  0.2386
40816W        W49616  13.313   5.405   2.222 -0.3463 -0.0746  0.3169
40817W        W49617  27.607   4.573  17.131  0.0735 -0.1707  0.0222
40818W        W49618  14.427   3.720   2.580 -0.0060 -0.3919 -0.1655
40819W        W49619  28.775   3.150   5.960  0.1291  0.0847 -0.0522
40820W        W49620  21.742   3.571  15.137 -0.0775 -0.0053 -0.0538
40821W        W49621  30.791   6.429  11.992 -0.2974  0.1471  0.2759
40822W        W49622  29.681   3.096  18.705  0.2200  0.2413 -0.3310
40823W        W49623  30.133   5.690  24.798  0.1526  0.3578  0.0210
40824W        W49624  25.975   3.701  18.276 -0.3774  0.0301  0.1638
40825W        W49625  12.751   1.938  16.147  0.3038  0.0921  0.0400
40826W        W49626  25.722   0.855   4.162  0.3446 -0.1619  0.0232
40827W        W49627  10.568   0.741   3.555 -0.3699  0.0226 -0.1455
40828W        W49628   8.807   0.876   0.645  0.0781 -0.1687 -0.0516
40829W        W49629   1.862   2.658  21.116  0.2586  0.1490 -0.0669
40830W        W49630   8.162   3.590   4.920  0.1198 -0.1067 -0.1181
40831W        W49631  19.051   0.539   3.801  0.0853 -0.0951  0.2966
40832W        W49632   1.870   1.280  22.664 -0.0438  0.1003 -0.0225
40833W        W49633  15.159   4.975  15.729 -0.0443 -0.3118  0.2710
40834W        W49634  12.787   4.009   9.336 -0.0712 -0.3552  0.2081
40835W        W49635   5.018   7.392   7.226  0.1639  0.1377 -0.1762
40836W        W49636   2.144   7.190  21.175  0.0419  0.1642 -0.2839
40837W        W49637   1.606   5.193   3.727  0.0134  0.0704  0.0397
40838W        W49638  25.375   7.297   2.056 -0.0159 -0.1975 -0.2332
40839W        W49639  25.463   6.431  21.577 -0.0522 -0.0966 -0.2030
40840W        W49640  12.063   3.480   9.830 -0.0719  0.1939 -0.0208
40841W        W49641  16.910   3.421   5.930 -0.1520  0.2238  0.2075
40842W        W49642  15.779   2.478  10.478  0.0775  0.1491  0.0708
40843W        W49643  17.772   1.088  17.541 -0.1579  0.1609  0.1270
40844W        W49644  28.706   3.865   2.757 -0.2800 -0.0438 -0.2277
40845W        W49645  13.558   7.138   0.023  0.0108 -0.0686  0.0279
40846W        W49646  23.536   3.423  19.458  0.1779  0.2476  0.2027
40847W        W49647   1.656   1.648   8.280  0.0330 -0.2346  0.0681
40848W        W49648   0.221   4.415   3.163 -0.0327 -0.0861  0.2522
40849W        W49649   4.721   2.040   4.287  0.4210 -0.2651  0.1922
40850W        W49650  23.096   5.188   8.383 -0.1389 -0.0488 -0.0203
40851W        W49651   8.370   2.339  16.009  0.0179 -0.2232 -0.1525
40852W        W49652   0.509   3.023   7.496  0.1389  0.0202  0.2516
40853W        W49653   8.621   0.073   6.681  0.0130  0.1458 -0.0244
40854W        W49654  15.393   0.574  20.743 -0.0083  0.2472 -0.0309
40855W        W49655  18.179   5.627  24.254 -0.0067  0.3061 -0.1409
40856W        W49656   1.171   0.162   2.376 -0.0872 -0.1752 -0.4158
40857W        W49657  12.679   4.684  10.261 -0.0082  0.1019  0.1261
40858W        W49658  18.476   5.849  22.293 -0.2467  0.0636 -0.0114
40859W        W49659   4.826   4.510  18.389  0.0142 -0.0752 -0.0901
40860W        W49660  26.041   7.746  25.822 -0.0110  0.2368  0.2157
40861W        W49661  12.591   6.815   1.901 -0.1369  0.3125  0.2128
40862W        W49662  19.888   2.721   1.685 -0.1694 -0.1385  0.0222
40863W        W49663  18.904   0.123   6.911  0.1273 -0.3887 -0.0946
40864W        W49664  24.719   1.295   4.766 -0.1885 -0.0233  0.2939
40865W        W49665  25.832   1.081  25.183 -0.1398 -0.3693 -0.0095
40866W        W49666  19.525   0.335  24.309  0.0263  0.1787 -0.1609
40867W        W49667  21.918   6.515  18.202  0.0438 -0.0374 -0.0689
40868W        W49668  13.403   2.136  23.939  0.0152 -0.0776 -0.0169
40869W        W49669  23.988   4.061   1.000 -0.0240 -0.1079 -0.0486
40870W        W49670  18.731   3.906  15.232 -0.1661 -0.1502 -0.0295
40871W        W49671   3.274   6.016  21.759  0.1675  0.2987  0.2381
40872W        W49672   1.973   4.267   7.945  0.2862  0.1904  0.1878
40873W        W49673   7.257   1.923   9.249  0.1658 -0.1932  0.2696
40874W        W49674  20.937   2.792  24.485 -0.1277  0.0870  0.2294
40875W        W49675  15.045   1.126  25.207 -0.1339 -0.0231  0.0577
40876W        W49676  29.456   5.239  18.149  0.1218 -0.0449 -0.0242
40877W        W49677   3.859   6.396  25.621 -0.0077  0.1193  0.1707
40878W        W49678  27.242   5.398  16.664  0.1854  0.0450 -0.2967
40879W        W49679  23.249   3.151   5.086 -0.1789  0.0782 -0.1136
40880W        W49680  11.545   0.636  18.426 -0.1493  0.1449 -0.2555
40881W        W49681   1.660   4.386  24.649 -0.2537 -0.0326 -0.0255
40882W        W49682   2.366   7.339  15.741 -0.0575  0.0373  0.0959
40883W        W49683   2.604   0.347   0.522  0.0054 -0.0335  0.1783
40884W        W49684  10.772   1.732  15.366  0.1014  0.1568  0.1291
40885W        W49685   2.248   1.631  19.313  0.1162 -0.0481  0.0192
40886W        W49686   4.651   0.775   1.256  0.0603  0.2850  0.0302
40887W        W49687   8.603   7.038   7.739 -0.0842  0.0289  0.0263
40888W        W49688   3.764   6.723  22.005  0.1888 -0.1314 -0.0742
40889W        W49689  17.595   5.763   4.029 -0.2139 -0.4009  0.1041
40890W        W49690  15.943   5.246  17.222 -0.1254 -0.0527 -0.1686
40891W        W49691  17.147   4.668   6.042 -0.1896  0.0546 -0.0744
40892W        W49692   6.088   6.297   8.873 -0.1914 -0.1959  0.0951
40893W        W49693  10.418   4.962   6.954 -0.2148 -0.2588 -0.0424
40894W        W49694  22.218   1.835  21.679 -0.1652 -0.0090  0.1841
40895W        W49695  26.071   7.099  21.048  0.0303  0.2781 -0.1139
40896W        W49696  24.679   6.832  19.241  0.0729 -0.3130 -0.3364
40897W        W49697   2.912   1.608  25.155 -0.1601  0.0396 -0.2378
40898W        W49698   8.870   5.016  16.114 -0.0488  0.2027 -0.0385
40899W        W49699  13.905   2.318   0.687  0.1096 -0.0241 -0.2848
40900W        W49700   8.708   0.955   1.678  0.0290 -0.1682  0.1955
40901W        W49701  10.271   7.573  22.176  0.1042 -0.0800  0.0440
40902W        W49702  16.095   3.626  23.660  0.0932  0.1007 -0.0120
40903W        W49703   8.179   1.508  24.192 -0.1413  0.0478  0.1815
40904W        W49704   3.551   1.634  23.175 -0.0508 -0.1438 -0.0447
40905W        W49705   0.238   1.233   7.136 -0.1327 -0.2638 -0.2680
40906W        W49706   4.348   4.962  24.864  0.0887 -0.0808  0.1679
40907W        W49707  24.421   5.376   5.787 -0.1996  0.1369  0.1471
40908W        W49708  27.009   1.683  15.200 -0.0093 -0.0940 -0.3032
40909W        W49709   0.954   1.409  23.532 -0.0959  0.2276 -0.0254
40910W        W49710   5.711   0.125   2.751  0.2468  0.0255 -0.0677
40911W        W49711  27.826   3.319  23.828  0.0077  0.1398  0.0902
40912W        W49712   5.789   0.675  21.036 -0.1342  0.0946  0.0869
40913W        W49713  11.054   6.803  17.233  0.2808  0.0867 -0.0952
40914W        W49714  22.264   3.523  22.010 -0.0271  0.0810 -0.3752
40915W        W49715  30.732   7.578  10.754 -0.0680 -0.1430  0.2635
40916W        W49716  13.737   4.856   6.202 -0.0292  0.2150  0.0158
40917W        W49717   3.593   6.266   1.646  0.1291 -0.0617  0.0544
40918W        W49718  21.317   7.006  24.804  0.0307  0.0793 -0.0283
40919W        W49719  11.185   7.256  21.932 -0.1723  0.2955  0.1273
40920W        W49720   6.810   6.873  23.963  0.0493  0.2913 -0.0291
40921W        W49721  31.123   2.647  26.060  0.0548 -0.1167 -0.0320
40922W        W49722  28.922   7.167   1.408 -0.0156  0.0734  0.1243
40923W        W49723  21.749   4.853   3.179  0.1369 -0.2252  0.1240
40924W        W49724   8.420   6.032  21.165 -0.3208 -0.0951 -0.1636
40925W        W49725   2.496   3.394  15.079  0.2372  0.3487 -0.5219
40926W        W49726   1.526   2.272   5.845  0.2645 -0.0099  0.1046
40927W        W49727   7.224   4.048   4.147  0.0968  0.0888 -0.0494
40928W        W49728  12.504   2.324   9.123  0.1580 -0.2239  0.0596
40929W        W49729  17.089   4.106  15.377 -0.0029 -0.1272  0.1542
40930W        W49730   0.036   3.925  17.565 -0.0374 -0.3817  0.3134
40931W        W49731  26.798   5.341   3.896  0.0642 -0.1548 -0.2852
40932W        W49732   1.625   1.016  21.116  0.2809 -0.0140  0.0150
40933W        W49733  16.271   6.832   9.629 -0.1319 -0.0408  0.3196
40934W        W49734   0.859   2.171   0.673  0.1672 -0.0261  0.1772
40935W        W49735  28.067   2.530  19.198  0.0457  0.1626 -0.1958
40936W        W49736  25.873   6.073   9.724 -0.2229 -0.2690 -0.1061
40937W        W49737  16.382   4.309  17.992 -0.2091  0.2208  0.0281
40938W        W49738   3.075   1.009  22.893  0.0514  0.2376  0.0679
40939W        W49739  30.634   1.190   8.798  0.0526  0.0546 -0.0937
40940W        W49740  14.726   6.015  19.049  0.4893  0.0594 -0.2463
40941W        W49741  19.796   6.886   9.966 -0.1713 -0.0564 -0.0032
40942W        W49742   7.150   0.194   0.732 -0.1151 -0.0629 -0.2832
40943W        W49743   0.116   5.157  24.485  0.2574 -0.0956 -0.1188
40944W        W49744   9.391   6.093   9.704 -0.0776  0.0687  0.0770
40945W        W49745  29.914   6.700  15.830 -0.1002 -0.4854 -0.3303
40946W        W49746  27.564   1.391   0.397 -0.1710  0.1170  0.1876
40947W        W49747   2.599   5.421   3.575 -0.0616  0.0912 -0.1130
40948W        W49748  15.266   1.799  23.497 -0.0115 -0.0024 -0.0824
40949W        W49749  12.093   6.338   5.217  0.1329  0.0970  0.3665
40950W        W49750  10.064   7.792  25.678 -0.0352  0.0389 -0.1488
40951W        W49751   5.910   1.672  22.234 -0.1688  0.2173 -0.0833
40952W        W49752  27.668   3.073   0.002 -0.3026 -0.0205 -0.1739
40953W        W49753  24.496   3.484  16.697 -0.0322 -0.1686 -0.3852
40954W        W49754  26.397   5.593  19.516  0.4300 -0.1837  0.1005
40955W        W49755  22.283   0.286  18.205  0.0960  0.1820  0.3844
40956W        W49756  16.981   1.908   7.550 -0.0251 -0.2943  0.0118
40957W        W49757  21.105   1.059  10.725 -0.0553  0.2088 -0.1243
40958W        W49758  10.582   2.704   6.471 -0.0692  0.1025  0.1029
40959W        W49759  17.322   4.430   9.359  0.1926 -0.0327  0.0191
40960W        W49760   1.408   1.978   3.771  0.1350 -0.1233 -0.0473
40961W        W49761   1.160   1.892  11.104 -0.1329  0.1308  0.0376
40962W        W49762   8.779   4.473  10.021 -0.1604 -0.0756  0.0676
40963W        W49763  17.639   3.290  21.319  0.0383 -0.1126 -0.1925
40964W        W49764   7.507   7.201   4.753 -0.0951 -0.1799 -0.0247
40965W        W49765   7.261   5.915   6.631  0.0343  0.1117  0.2552
40966W        W49766  16.318   4.368   3.092  0.0716  0.0783 -0.1194
40967W        W49767  22.279   7.262  25.614 -0.0074  0.1213 -0.0534
40968W        W49768  25.717   5.675   2.066  0.0029 -0.1924  0.1559
40969W        W49769   6.695   6.431   7.219 -0.0082  0.1444 -0.1239
40970W        W49770  19.551   2.475   3.561 -0.1483  0.3269  0.1249
40971W        W49771  18.275   0.077  21.254 -0.3918  0.0267  0.2386
40972W        W49772  26.000   2.668  17.141 -0.3156 -0.3241  0.2411
40973W        W49773  22.634   4.147  24.657  0.0709  0.0098  0.1079
40974W        W49774   7.503   4.933  17.082  0.3279  0.3634 -0.0220
40975W        W49775  29.053   2.981  16.120  0.2873  0.0995  0.0805
40976W        W49776   3.037   2.204   7.731 -0.3551  0.2369 -0.3046
40977W        W49777  10.131   5.990  10.292  0.0152 -0.2782 -0.1354
40978W        W49778  11.819   5.541   6.852 -0.1969 -0.0947  0.1145
40979W        W49779   8.757   1.225   7.446  0.1957  0.2228 -0.1785
40980W        W49780  27.202   5.303  15.780 -0.0051  0.0595  0.1274
40981W        W49781  19.380   4.674  17.875  0.3615 -0.0388 -0.3364
40982W        W49782  14.901   0.801  10.207  0.2172 -0.2119 -0.1047
40983W        W49783  22.540   7.443  16.086 -0.1576 -0.2492  0.1915
40984W        W49784  14.895   6.671  23.218 -0.1290  0.0923  0.0742
40985W        W49785  24.571   7.336   9.304 -0.0029  0.0447 -0.2217
40986W        W49786  21.938   5.060   9.626 -0.1468  0.3988 -0.0288
40987W        W49787  15.080   7.597   2.506  0.1682  0.1028 -0.2249
40988W        W49788  28.296   0.546  10.735  0.1665  0.1402 -0.0855
40989W        W49789  28.488   6.396  21.673 -0.0345  0.0102 -0.0948
40990W        W49790  21.785   1.386  16.828  0.1542 -0.0050 -0.2894
40991W        W49791  17.657   3.824   3.890  0.0824  0.1015  0.3197
40992W        W49792  22.852   0.860   7.418  0.1901 -0.0970  0.0097
40993W        W49793   5.642   2.880   3.830 -0.0586 -0.4307  0.2354
40994W        W49794  21.590   2.038  17.368 -0.0991 -0.1861 -0.1626
40995W        W49795   2.219   2.390   1.555 -0.0289 -0.2597 -0.1440
40996W        W49796  13.246   2.785   8.945 -0.0749  0.0593  0.0159
40997W        W49797   9.325   0.858   3.815  0.1786 -0.4006  0.1735
40998W        W49798  25.877   0.766   0.336  0.1680 -0.0210  0.0752
40999W        W49799  30.199   7.473   8.829 -0.2090  0.2978 -0.1986
41000W        W49800  28.716   4.725  20.389  0.0205  0.0418 -0.1646
41001W        W49801  19.296   4.388  21.995 -0.0312  0.1318 -0.2408
41002W        W49802  12.622   1.498   8.920  0.0025 -0.2453  0.2330
41003W        W49803   7.944   4.782  18.494  0.1035 -0.0718 -0.0643
41004W        W49804  11.004   5.577  16.470  0.0356  0.1441 -0.0839
41005W        W49805  10.929   1.450   6.225 -0.3051  0.1079  0.2212
41006W        W49806  25.402   1.751  19.326  0.1174  0.1668  0.0688
41007W        W49807   3.332   4.358   5.755  0.0208  0.1487 -0.0488
41008W        W49808  30.975   7.221   9.873  0.1013 -0.0453  0.1178
41009W        W49809  14.038   7.704   5.539  0.0304  0.2398  0.0414
41010W        W49810  16.537   4.963  21.639 -0.0246  0.1644  0.3033
41011W        W49811   8.279   5.003   3.444 -0.5836 -0.0922  0.5379
41012W        W49812   4.279   0.661   9.869  0.0397  0.1479 -0.2614
41013W        W49813   1.768   7.379   3.071 -0.3244  0.1494  0.0146
41014W        W49814  16.079   1.716   1.100 -0.0106 -0.2920  0.2991
41015W        W49815   1.805   0.268  11.272  0.1777 -0.0406 -0.0230
41016W        W49816  21.217   4.284  18.571  0.2012  0.0011 -0.1495
41017W        W49817  23.517   6.206  15.492 -0.0139 -0.0659 -0.1273
41018W        W49818  21.031   0.175   1.968 -0.0538 -0.0211 -0.1703
41019W        W49819  11.447   4.888  25.740 -0.2193 -0.1552  0.1136
41020W        W49820  24.238   4.928  16.735 -0.4096 -0.3129 -0.0720
41021W        W49821  16.603   7.238  19.012  0.1197  0.0619 -0.1133
41022W        W49822   7.616   2.521  10.842 -0.3697  0.2154 -0.1226
41023W        W49823  22.159   0.257  17.315  0.1416 -0.1338  0.0253
41024W        W49824   2.523   2.104  17.370 -0.0235  0.0921  0.0688
41025W        W49825   0.401   5.707   2.113  0.0911  0.0416  0.2128
41026W        W49826  23.059   4.546  25.707 -0.0449 -0.0572  0.0731
41027W        W49827  26.549   4.168  10.087 -0.5084 -0.4758  0.0860
41028W        W49828   4.549   4.367  22.628 -0.3234  0.0172 -0.2741
41029W        W49829  30.252   4.065  20.168  0.0032 -0.2175 -0.1553
41030W        W49830   4.852   0.790  10.662  0.0025 -0.2750 -0.2676
41031W        W49831   3.040   3.245   6.625 -0.4332 -0.0710 -0.1558
41032W        W49832  28.947   3.299   1.799 -0.0089 -0.2891 -0.0983
41033W        W49833  26.372   0.598   4.560 -0.3993  0.1974  0.0592
41034W        W49834  10.541   0.131   8.160 -0.1132  0.0483  0.0630
41035W        W49835   9.852   5.402   1.529  0.0930  0.1304 -0.1927
41036W        W49836   3.914   1.387   0.574  0.1710 -0.0319  0.1244
41037W        W49837  15.944   3.351   8.738  0.2722 -0.3073 -0.1407
41038W        W49838   0.152   6.341  22.734 -0.0667 -0.1020  0.2097
41039W        W49839   3.745   1.510   2.516  0.1690  0.0142 -0.0111
41040W        W49840  13.518   6.065  24.650  0.0355 -0.2763  0.0163
41041W        W49841  14.748   5.655   0.321 -0.0055  0.2468  0.1284
41042W        W49842  21.069   4.159  23.359  0.2378  0.0082 -0.2245
41043W        W49843  19.544   2.542   8.063 -0.0141 -0.0610  0.0300
41044W        W49844  27.840   7.410  25.511 -0.1207 -0.0798 -0.0890
41045W        W49845  13.671   1.552  18.626  0.1355  0.3329  0.1705
41046W        W49846  13.380   3.595   3.939  0.0356  0.0372  0.1721
41047W        W49847  16.981   5.404  16.230  0.2891  0.0133 -0.0514
41048W        W49848  16.742   3.608  25.916  0.3201 -0.1153 -0.0289
41049W        W49849  20.291   5.362  17.041  0.0403  0.2398 -0.4363
41050W        W49850  13.104   5.372  19.611  0.0600  0.0396 -0.1858
41051W        W49851  29.743   7.202  16.204  0.2739  0.0518 -0.0664
41052W        W49852   0.671   7.778  16.552 -0.1365  0.2858 -0.2248
41053W        W49853   7.201   4.780   2.696 -0.1037 -0.1731  0.1004
41054W        W49854  14.865   4.093  11.111  0.1152  0.1825  0.3280
41055W        W49855  12.807   3.009   7.392 -0.0156  0.0153  0.0602
41056W        W49856   9.572   5.299  14.965 -0.2497 -0.3419  0.3993
41057W        W49857  13.859   6.118   7.231  0.0738 -0.3063 -0.2499
41058W        W49858  23.072   4.684   2.267 -0.1810  0.0009  0.1706
41059W        W49859  28.451   2.078  25.887  0.1557  0.0399  0.2494
41060W        W49860  18.828   1.333  21.399  0.0197  0.2508 -0.1015
41061W        W49861   5.398   5.294  20.604  0.2356  0.1889 -0.1095
41062W        W49862   2.701   2.004   1.517  0.2362  0.0440  0.0568
41063W        W49863  19.087   5.825  16.368 -0.1154  0.1353  0.1845
41064W        W49864  13.755   0.826  24.252  0.0647  0.1010  0.0061
41065W        W49865   1.391   1.007   6.290 -0.1260  0.0893 -0.2452
41066W        W49866  19.258   7.233   0.609 -0.2170 -0.0304  0.2666
41067W        W49867  26.906   0.321  17.911 -0.0392  0.0779  0.0714
41068W        W49868  20.033   5.630   2.702  0.1042  0.1385  0.0134
41069W        W49869  21.539   2.649  16.260 -0.2527 -0.0547  0.1580
41070W        W49870  15.284   6.824  18.157  0.0499 -0.1176  0.1694
41071W        W49871  20.831   5.221  24.749 -0.0147  0.0928 -0.1457
41072W        W49872  18.530   6.625  18.109  0.2289 -0.1269  0.0854
41073W        W49873  23.779   3.952  17.053  0.1899 -0.3302 -0.1362
41074W        W49874  18.015   0.204  24.417  0.0999  0.0931  0.0235
41075W        W49875  22.559   4.300   4.035 -0.0794 -0.2373  0.2792
41076W        W49876  10.307   2.381  18.910  0.1576 -0.0609 -0.0189
41077W        W49877  23.496   7.670  19.146  0.1471 -0.1062 -0.3042
41078W        W49878  13.763   6.584   5.622 -0.0464  0.0278  0.0208
41079W        W49879  10.127   6.998   1.898 -0.0710 -0.1313  0.0924
41080W        W49880  23.400   5.499   7.041  0.0775 -0.0677 -0.1037
41081W        W49881   8.593   1.197   3.860 -0.2013 -0.0954  0.1431
41082W        W49882   9.761   5.693   8.130 -0.0806 -0.1647 -0.1962
41083W        W49883  10.637   2.877   0.380  0.2141  0.0531 -0.1827
41084W        W49884  12.649   6.981  16.996  0.0253  0.0187 -0.1460
41085W        W49885   1.241   7.342  19.327  0.1192 -0.2542 -0.1677
41086W        W49886  10.021   2.823  16.968  0.0816 -0.1195  0.0621
41087W        W49887  23.601   3.332  16.447  0.1200 -0.3154 -0.0437
41088W        W49888   8.276   4.920  23.979  0.0459 -0.0761 -0.2417
41089W        W49889   5.790   5.580  16.315  0.0672 -0.2035 -0.1498
41090W        W49890  25.853   1.063  18.488 -0.2418 -0.2828  0.0654
41091W        W49891  30.006   4.433  24.919  0.1448  0.0201 -0.1679
41092W        W49892  12.832   5.541  23.084 -0.3612 -0.0242  0.1134
41093W        W49893  18.026   5.828  16.084 -0.1106  0.1745 -0.0531
41094W        W49894  15.005   1.044   2.480  0.0053  0.0872  0.0877
41095W        W49895  20.410   4.266   3.325  0.3531 -0.0480  0.2891
41096W        W49896   1.963   1.568  18.267 -0.1734  0.1693  0.0271
41097W        W49897  22.524   5.733   8.434  0.0201  0.1572  0.2419
41098W        W49898  22.575   5.308  10.789 -0.1447  0.0500  0.0329
41099W        W49899  13.871   7.155  22.635 -0.0254  0.0155  0.2668
41100W        W49900  19.921   2.681   0.862  0.0046 -0.4264  0.1127
41101W        W49901  21.226   7.719   1.352  0.1044 -0.0904 -0.1802
41102W        W49902  27.690   2.944  10.295 -0.0456  0.4834 -0.1050
41103W        W49903   9.679   6.335  23.542 -0.1945 -0.2714 -0.0759
41104W        W49904  16.895   3.858  25.364  0.3916 -0.1478  0.0145
41105W        W49905  15.616   4.501  19.072 -0.0036  0.0441 -0.0760
41106W        W49906  17.156   2.459   9.197 -0.1506  0.0464 -0.0600
41107W        W49907  23.853   3.700   5.678 -0.1603  0.0492 -0.2870
41108W        W49908   5.002   2.694   1.918 -0.3173 -0.0446 -0.0660
41109W        W49909   7.076   1.046   9.851  0.2237  0.0625 -0.0423
41110W        W49910  26.178   1.040   2.703  0.2946 -0.1455  0.1444
41111W        W49911  29.454   0.211  11.095  0.2208 -0.0597 -0.1707
41112W        W49912   4.749   6.748  18.772 -0.1023  0.1979  0.1247
41113W        W49913  23.656   4.019   7.567 -0.1194 -0.2010 -0.2127
41114W        W49914  25.641   2.019   0.484 -0.1491  0.3723  0.1945
41115W        W49915   6.052   1.971  23.310 -0.0033 -0.3390  0.0048
41116W        W49916  19.502   6.731  21.489  0.2592 -0.3303 -0.3110
41117W        W49917  12.377   3.539   8.571  0.1984  0.0612 -0.0651
41118W        W49918  27.653   2.065  10.265  0.2614  0.1133 -0.1628
41119W        W49919   1.849   0.335  10.109  0.1261  0.1924 -0.2167
41120W        W49920   3.209   0.077   6.597  0.0761  0.2231 -0.0762
41121W        W49921  13.432   4.712  17.697 -0.1535  0.1667 -0.1828
41122W        W49922  25.364   2.873   3.218  0.2003 -0.0374  0.0233
41123W        W49923  23.090   4.914   9.241  0.0103  0.0364 -0.0265
41124W        W49924  11.044   4.256  16.144  0.2448 -0.1770  0.1332
41125W        W49925  22.148   2.884  20.109  0.4908 -0.4419 -0.1114
41126W        W49926  18.994   5.775   2.382  0.1945  0.1126 -0.1836
41127W        W49927   9.114   1.033  23.625  0.1782  0.0312 -0.2450
41128W        W49928  28.811   1.625   3.694  0.0139  0.1027 -0.2809
41129W        W49929   0.521   2.767   1.151 -0.2779  0.0538 -0.0884
41130W        W49930  18.943   7.130  16.051  0.1348  0.0313  0.2707
41131W        W49931  24.414   4.720  10.217  0.0780 -0.0452  0.1798
41132W        W49932  30.183   4.091  10.666 -0.0715 -0.1499  0.2693
41133W        W49933  19.890   2.174  25.426  0.0387 -0.2656 -0.0810
41134W        W49934  15.157   5.759   2.790 -0.0224 -0.1416  0.1389
41135W        W49935  23.289   1.598   3.441  0.0908 -0.3082  0.0195
41136W        W49936  24.105   1.552   1.050  0.0592  0.0479  0.2299
41137W        W49937  22.676   1.205  22.272  0.2521 -0.3223 -0.1041
41138W        W49938   6.234   2.000   9.068 -0.3655  0.0854 -0.0290
41139W        W49939  16.050   4.756   0.049 -0.0460 -0.1666 -0.0687
41140W        W49940  12.962   2.097  19.800  0.0516 -0.2091  0.0173
41141W        W49941  16.325   4.110   0.612  0.0715  0.1517  0.0576
41142W        W49942  16.671   6.145  15.748 -0.3180 -0.0501 -0.0751
41143W        W49943   8.710   0.253   5.722  0.0002  0.0494  0.0724
41144W        W49944  16.880   2.206  22.971  0.0414 -0.1316  0.1483
41145W        W49945  21.475   3.561   0.384  0.0137 -0.1356  0.0635
41146W        W49946  14.805   3.036  18.654  0.5383 -0.0645  0.0346
41147W        W49947  17.971   3.814  18.594  0.0819  0.0809 -0.1621
41148W        W49948   8.293   6.258  18.284 -0.1222 -0.0247 -0.2505
41149W        W49949  13.920   0.926   9.303 -0.0142  0.2690  0.3259
41150W        W49950  18.232   4.367   9.029 -0.1095 -0.1614 -0.2049
41151W        W49951   6.631   0.022   3.219 -0.0409  0.0529 -0.1139
41152W        W49952  17.873   4.454   1.908 -0.1787  0.0828  0.0616
41153W        W49953   0.175   2.469   4.609 -0.2434  0.2105 -0.0026
41154W        W49954   2.381   0.955  23.949  0.0801  0.1078 -0.1669
41155W        W49955  24.977   0.340  16.776 -0.0308  0.0007  0.1541
41156W        W49956  21.399   5.459  15.785  0.0970 -0.3580  0.0438
41157W        W49957  14.180   2.386  18.447 -0.1324  0.1382 -0.1165
41158W        W49958  16.811   6.876  18.721 -0.1792  0.0980  0.0799
41159W        W49959  25.911   0.460  16.724  0.0005  0.0146  0.0094
41160W        W49960   6.211   3.655  17.782  0.4987 -0.0896 -0.0328
41161W        W49961  11.647   1.590  23.243 -0.0799  0.1197  0.0905
41162W        W49962  10.727   3.828   6.256  0.1742  0.1201  0.2213
41163W        W49963  24.658   1.948  14.730 -0.0016 -0.0066  0.0730
41164W        W49964   1.786   5.730  25.985 -0.2207 -0.2074  0.4081
41165W        W49965  16.115   7.044   2.124  0.0401  0.3146 -0.0636
41166W        W49966  13.029   2.203   7.098  0.0571 -0.2422  0.1536
41167W        W49967  17.187   6.341  17.803  0.1306 -0.0833  0.1054
41168W        W49968  29.935   3.706   3.464 -0.0748  0.2778  0.2618
41169W        W49969  12.731   4.600   0.711  0.0494  0.1596  0.1751
41170W        W49970   5.150   2.926  18.069 -0.3834  0.2663  0.2914
41171W        W49971  10.609   1.165   8.801 -0.0414 -0.0036  0.3763
41172W        W49972   2.943   3.433  20.652  0.0958 -0.0851  0.1308
41173W        W49973  21.426   0.362   0.470 -0.1578 -0.2330 -0.1957
41174W        W49974  28.247   5.718   9.239 -0.1681  0.3783  0.0694
41175W        W49975   7.385   0.534  21.292  0.2868  0.0506  0.0674
41176W        W49976   4.984   5.648   8.608 -0.0485 -0.1331 -0.2155
41177W        W49977   0.923   3.083  16.754  0.3474  0.2653  0.0657
41178W        W49978  22.806   1.692  17.920 -0.1790 -0.0601 -0.1980
41179W        W49979  23.221   0.673  25.512  0.1439  0.0918 -0.0701
41180W        W49980   0.864   5.435   6.519  0.0595 -0.1728 -0.0804
41181W        W49981  30.798   3.801  15.928  0.1094 -0.1084 -0.1743
41182W        W49982  14.776   3.008  20.253  0.0663 -0.0167 -0.1235
41183W        W49983  11.823   1.247   0.071  0.1116  0.0060  0.2498
41184W        W49984  13.777   4.995  10.218 -0.0376 -0.0507 -0.3208
41185W        W49985  22.221   5.706   2.524  0.1392  0.0881  0.0240
41186W        W49986  13.826   5.707   4.534 -0.3147  0.0904 -0.1458
41187W        W49987   9.808   4.420   6.410  0.0038 -0.2081 -0.0840
41188W        W49988   6.806   0.492   0.591  0.1185 -0.4422  0.2563
41189W        W49989  29.557   1.418   3.299  0.2100 -0.0055  0.2269
41190W        W49990   2.385   5.335   7.068  0.1632  0.0891 -0.0752
41191W        W49991  12.574   5.165   3.881  0.0674  0.1105  0.0139
41192W        W49992   2.512   5.333  17.005 -0.2343  0.4388  0.1616
41193W        W49993   7.616   5.468  10.989  0.1093  0.0868  0.0278
41194W        W49994   1.230   4.714   2.966  0.2147  0.0104  0.0455
41195W        W49995   9.245   0.789   9.348  0.0814  0.2988 -0.2626
41196W        W49996  13.432   6.937   0.532  0.1284 -0.0063  0.1143
41197W        W49997  27.027   7.109   4.639 -0.0449 -0.0472  0.0819
41198W        W49998  29.165   2.386  25.999 -0.1082 -0.0074 -0.2526
41199W        W49999  25.046   3.569   1.918  0.3251  0.2042 -0.1700
41200W        W50000  31.246   6.278  25.672 -0.4230  0.2247  0.0363
41201W        W50001   9.818   3.202   5.952  0.1934  0.1781  0.3996
41202W        W50002  14.758   6.793  21.502  0.0437 -0.1182  0.1180
41203W        W50003  19.456   3.836  17.375  0.3696 -0.2241  0.1725
41204W        W50004  25.130   0.720  15.329  0.0707 -0.0009 -0.1626
41205W        W50005  28.582   5.969   9.461 -0.3091 -0.0754 -0.2841
41206W        W50006  15.351   4.300  15.260 -0.0036  0.0486  0.0636
41207W        W50007  24.274   1.816  20.319  0.2087  0.0650  0.0431
41208W        W50008   1.148   5.537  10.856  0.1172 -0.1790 -0.0542
41209W        W50009  20.553   6.267   3.189  0.1055  0.1817  0.1127
41210W        W50010  12.332   4.436  17.200 -0.0324 -0.0530  0.2166
41211W        W50011   4.210   6.654   2.185 -0.0445 -0.0047  0.0736
41212W        W50012  12.783   4.543  21.174  0.1720 -0.1580  0.2122
41213W        W50013  21.076   0.397   3.213  0.4506  0.0172  0.0825
41214W        W50014  20.948   5.723  25.836  0.2075 -0.1485  0.3129
41215W        W50015  11.334   6.149  25.933  0.1910  0.1024  0.0632
41216W        W50016  15.709   4.327   5.582  0.3359  0.1698 -0.2622
41217W        W50017  28.771   1.062  24.169 -0.1577  0.1079 -0.0058
41218W        W50018  19.256   5.162   6.467  0.0412  0.0499 -0.0386
41219W        W50019  30.029   2.534  25.654 -0.1117  0.1282  0.1509
41220W        W50020  12.589   2.909  16.017  0.0326 -0.0521 -0.0095
41221W        W50021  28.263   5.568   2.620 -0.0759  0.2547 -0.1571
41222W        W50022   6.657   1.060  21.213  0.1620  0.1683 -0.1096
41223W        W50023  10.309   7.554   3.650 -0.0226 -0.0530  0.2887
41224W        W50024  17.039   6.129  16.902  0.1659 -0.1365  0.0144
41225W        W50025  29.973   4.896  25.052 -0.2771 -0.0291 -0.0918
41226W        W50026   5.842   4.829  22.951  0.1765  0.1649 -0.0973
41227W        W50027   7.124   5.366  11.242 -0.3872 -0.1760  0.0278
41228W        W50028  13.901   5.425  21.023 -0.1994 -0.0810  0.0007
41229W        W50029  23.987   3.601  22.878  0.2057 -0.0146 -0.3250
41230W        W50030   6.279   2.635  18.782 -0.0691  0.0730  0.2388
41231W        W50031  11.220   4.238  16.613 -0.2895 -0.1365 -0.5203
41232W        W50032  15.310   5.109   1.611 -0.2695  0.1590  0.3213
41233W        W50033  27.207   4.836   1.375  0.0818  0.2101 -0.1175
41234W        W50034  10.276   7.476  23.622 -0.1050  0.0956 -0.0442
41235W        W50035  19.881   0.221   1.457 -0.2006 -0.5360 -0.0706
41236W        W50036  28.335   4.244   3.989 -0.3181 -0.1266 -0.0248
41237W        W50037   6.753   4.984   9.155  0.1955 -0.1817 -0.0854
41238W        W50038  14.784   1.591  17.212 -0.0207  0.0880  0.1612
41239W        W50039  27.728   3.920  25.046 -0.0268  0.2717  0.0023
41240W        W50040  30.769   2.161  22.546  0.2102 -0.0700 -0.4027
41241W        W50041  19.302   6.919   4.273 -0.1211  0.1457  0.2439
41242W        W50042   7.006   2.497   6.257  0.0707 -0.0650  0.1146
41243W        W50043   6.235   1.569  18.603  0.3515 -0.1611  0.2647
41244W        W50044  24.329   5.230   9.357  0.0480  0.1637  0.0974
41245W        W50045  10.193   7.782   2.317 -0.1029 -0.3611 -0.1598
41246W        W50046  26.370   3.441   0.205  0.3781 -0.3109  0.0267
41247W        W50047  21.182   6.923  20.034  0.0684  0.1529  0.0772
41248W        W50048  15.386   5.320  10.842 -0.1565 -0.0196  0.1591
41249W        W50049  13.426   7.512  25.477 -0.2026  0.4886 -0.0508
41250W        W50050  17.005   4.766  22.185 -0.0231  0.2301  0.0081
41251W        W50051   8.687   7.200   0.990 -0.2884  0.0965 -0.1571
41252W        W50052  16.984   4.388  10.140  0.0626 -0.0203 -0.1974
41253W        W50053  20.882   0.998   6.380  0.0953 -0.1412 -0.1814
41254W        W50054  29.204   3.554   8.180 -0.0011  0.0521  0.0658
41255W        W50055   6.635   5.254  23.050 -0.0732  0.1379  0.0663
41256W        W50056  20.449   1.105  23.583 -0.0117 -0.0703 -0.0992
41257W        W50057   0.462   2.335   7.972 -0.0406  0.0558  0.1003
41258W        W50058  21.766   1.760  24.896 -0.0056  0.0281  0.0575
41259W        W50059  30.278   5.758  10.134  0.1835 -0.5181  0.0882
41260W        W50060   5.342   1.866   8.569  0.2335 -0.2285  0.1719
41261W        W50061   1.410   6.121  10.371  0.2488 -0.3023 -0.1192
41262W        W50062   6.495   3.670  18.872 -0.2416 -0.1598 -0.3487
41263W        W50063   0.716   1.117   0.144 -0.0252 -0.3459  0.1605
41264W        W50064  28.172   0.948   5.582 -0.0161 -0.2188  0.1489
41265W        W50065  17.971   6.333   4.343 -0.0747 -0.0953  0.0721
41266W        W50066  24.598   0.989   7.212  0.1219 -0.1674  0.0934
41267W        W50067  14.281   6.957  25.214  0.1081 -0.0732  0.3873
41268W        W50068  28.136   4.644   3.771  0.2034  0.0598 -0.1548
41269W        W50069  24.050   1.438  19.435  0.1103  0.1701 -0.3770
41270W        W50070  25.588   4.204   3.218 -0.0018 -0.1115  0.0354
41271W        W50071  23.670   5.747  15.409 -0.0607  0.2566  0.0259
41272W        W50072   7.550   4.411  24.549  0.2590  0.1561 -0.0216
41273W        W50073  27.511   3.930   8.524 -0.0619 -0.0056 -0.1257
41274W        W50074  22.623   4.320   3.492 -0.2118 -0.2715  0.1481
41275W        W50075   5.698   4.505  18.120 -0.0535 -0.0972 -0.2560
41276W        W50076  12.149   2.883  18.638  0.1911  0.0126  0.1220
41277W        W50077   9.811   3.175  20.462 -0.1569  0.2855 -0.2758
41278W        W50078   5.473   4.976   7.728 -0.0996  0.2112  0.0483
41279W        W50079  24.271   7.106  22.443  0.1460  0.0686  0.0534
41280W        W50080   5.740   3.425   6.747  0.1837  0.1088  0.1141
41281W        W50081   6.356   0.692  23.724 -0.0931  0.4160 -0.1004
41282W        W50082  23.688   6.913   5.887  0.1239  0.0688  0.3353
41283W        W50083  27.680   2.476  24.004  0.0205 -0.1718 -0.0550
41284W        W50084   4.278   1.086  24.119  0.1241  0.1304 -0.2091
41285W        W50085  21.317   1.270  21.846  0.1517  0.0331  0.1624
41286W        W50086   7.332   0.967   1.848  0.3142 -0.4099 -0.1956
41287W        W50087  20.706   2.550   8.748 -0.0343 -0.0480 -0.2415
41288W        W50088  19.990   0.212  16.276  0.0992 -0.3096 -0.3136
41289W        W50089   8.557   3.911   9.837  0.2122 -0.0966 -0.3476
41290W        W50090  17.372   1.985   9.300  0.2364  0.0925  0.1195
41291W        W50091  28.695   4.428  10.617  0.1483 -0.1531 -0.3531
41292W        W50092  21.191   1.650   0.580 -0.0019 -0.0059 -0.1054
41293W        W50093  26.041   4.532   5.911 -0.3774  0.2927 -0.0193
41294W        W50094  31.190   6.533  18.651 -0.1212 -0.0600  0.1829
41295W        W50095  12.849   6.648  23.426  0.1988  0.0802  0.1050
41296W        W50096  24.998   1.057  25.446 -0.1276 -0.0902 -0.1427
41297W        W50097  26.546   2.667  16.542  0.2103 -0.0815  0.3217
41298W        W50098  21.798   6.703  16.803 -0.0001  0.1587  0.0543
41299W        W50099  21.871   3.159   9.212 -0.0402 -0.0470 -0.0237
41300W        W50100  29.487   0.319   2.299  0.0293  0.0375 -0.1243
41301W        W50101  19.635   4.537   2.716 -0.3182  0.2582 -0.0695
41302W        W50102   4.256   6.038   5.163 -0.4366  0.0811  0.1755
41303W        W50103   5.248   6.472   9.975 -0.3583 -0.0674 -0.1971
41304W        W50104   8.022   6.059   8.040 -0.1357  0.0507 -0.4460
41305W        W50105  14.550   6.208   9.680 -0.1664 -0.2194  0.3545
41306W        W50106   9.413   4.986   2.049 -0.2199  0.2024 -0.2255
41307W        W50107  30.940   2.805  25.614  0.1349  0.0466  0.0681
41308W        W50108   7.078   6.571  25.268 -0.3574 -0.2300 -0.0548
41309W        W50109   7.177   2.068  10.992 -0.0998  0.1467 -0.0557
41310W        W50110   8.647   2.307  20.877  0.0460 -0.2065  0.2884
41311W        W50111  17.166   1.862  22.046  0.4291  0.0122 -0.2905
41312W        W50112   9.545   3.306   2.971 -0.2801 -0.0151 -0.0444
41313W        W50113  20.250   3.510   8.153  0.0610  0.0157 -0.3340
41314W        W50114  13.690   3.449   3.350 -0.0888  0.0986  0.1744
41315W        W50115  26.682   2.030  17.939  0.0769 -0.1274 -0.2252
41316W        W50116  29.666   0.806   6.756 -0.0314 -0.0695 -0.2586
41317W        W50117  14.579   1.065   2.175 -0.0226  0.2338 -0.3194
41318W        W50118  25.811   4.283  17.479 -0.2913  0.1992 -0.0525
41319W        W50119  23.421   5.071   0.154 -0.2403 -0.0501  0.0617
41320W        W50120  19.658   5.437  18.259 -0.1448 -0.3046  0.0756
41321W        W50121  28.726   2.813  26.131  0.1612 -0.3379  0.1043
41322W        W50122  15.562   4.795  22.472 -0.2155  0.2013 -0.2047
41323W        W50123   1.878   7.086   8.457  0.1513 -0.0677  0.2241
41324W        W50124  17.565   5.350   0.171  0.1973  0.2012  0.0621
41325W        W50125  28.657   5.177  19.638 -0.1284  0.3538 -0.0669
41326W        W50126  21.723   1.275  23.479  0.1003 -0.0230  0.3427
41327W        W50127  18.080   3.073  25.480  0.1754  0.1105  0.3305
41328W        W50128  19.883   5.464  22.591 -0.2995  0.0699  0.0667
41329W        W50129   9.820   2.042   9.981  0.4008 -0.4327 -0.1829
41330W        W50130  14.603   0.580  18.482 -0.0993  0.2168 -0.0022
41331W        W50131   5.562   4.246   3.362 -0.0175 -0.0983  0.1793
41332W        W50132  15.375   4.924   6.367 -0.2714 -0.1801  0.1867
41333W        W50133  11.040   1.173  25.461  0.2077 -0.0551  0.2988
41334W        W50134   2.941   3.254   0.512  0.0721 -0.1399 -0.2892
41335W        W50135  22.473   1.113  20.512  0.1779 -0.0798 -0.2237
41336W        W50136  26.388   0.219  26.043 -0.2329  0.1826  0.1240
41337W        W50137  26.773   3.206   4.080  0.1003 -0.1485 -0.1345
41338W        W50138  30.411   6.963  17.721  0.1515 -0.1013 -0.1169
41339W        W50139  12.828   1.929  11.463 -0.0805  0.1373  0.0301
41340W        W50140  12.734   6.059  21.120 -0.0483 -0.1872  0.1811
41341W        W50141  20.604   4.137  23.734 -0.2695 -0.0324  0.2995
41342W        W50142   8.700   3.024  18.512  0.0137 -0.0452  0.1260
41343W        W50143  11.209   5.130  25.201 -0.0318 -0.2890 -0.0853
41344W        W50144  22.365   1.813   9.303  0.0627  0.1742  0.1528
41345W        W50145  20.529   3.346  20.068  0.1080 -0.0866 -0.0573
41346W        W50146   2.651   2.253  18.457  0.2694 -0.1187 -0.0449
41347W        W50147  28.417   3.433   8.850 -0.4142  0.1128 -0.2246
41348W        W50148  20.541   3.852  15.715  0.0115  0.0660  0.0503
41349W        W50149  13.052   4.519  25.186 -0.0246  0.2294 -0.0912
41350W        W50150  21.768   3.490   9.744 -0.2801  0.3696 -0.0980
41351W        W50151   8.524   0.436  24.806 -0.0246  0.3369 -0.2644
41352W        W50152   4.661   1.631   1.004 -0.1326  0.1278 -0.1687
41353W        W50153  27.233   0.791  22.397  0.2607 -0.2460 -0.2802
41354W        W50154   0.112   1.887  20.031  0.1447 -0.1601  0.3896
41355W        W50155  17.811   3.790  20.450  0.0400 -0.0487 -0.1401
41356W        W50156  21.084   0.535  14.722 -0.0791 -0.0382  0.2531
41357W        W50157   5.691   2.625   8.417  0.0266  0.0565  0.0108
41358W        W50158  30.203   4.460   6.206  0.0659 -0.0372  0.2703
41359W        W50159  11.302   4.767  20.304 -0.1892  0.0274 -0.3278
41360W        W50160   7.560   1.893  19.439  0.3010  0.5664  0.0371
41361W        W50161  22.091   2.743  19.069 -0.1251 -0.1604  0.2645
41362W        W50162   8.135   5.675  25.114 -0.1227  0.0031  0.0513
41363W        W50163  24.729   0.825  16.725  0.2372 -0.2094  0.2511
41364W        W50164  26.797   2.515  22.362  0.0432 -0.0935  0.4630
41365W        W50165  27.468   1.168   9.783  0.0816  0.2652  0.0253
41366W        W50166   0.478   1.524  19.183  0.1789 -0.0960 -0.0495
41367W        W50167  22.075   6.621  20.773 -0.0515 -0.1352 -0.1169
41368W        W50168  25.920   1.113  22.472 -0.0449 -0.1525 -0.2814
41369W        W50169  16.776   5.533   0.626  0.0446 -0.0618 -0.2081
41370W        W50170  15.236   5.643   2.135  0.0555  0.2421  0.2411
41371W        W50171  18.420   7.801   6.155  0.3757 -0.0201  0.0926
41372W        W50172  26.199   4.611   6.441  0.0814  0.1848  0.1250
41373W        W50173  25.277   1.501   6.875 -0.0597 -0.0674 -0.1941
41374W        W50174  20.223   3.279  22.046  0.2241 -0.2341 -0.2180
41375W        W50175   7.260   0.331   9.456  0.3139 -0.0809  0.0396
41376W        W50176   2.819   6.372   8.635  0.0149 -0.3305  0.4427
41377W        W50177   6.773   3.886  24.615 -0.3365  0.1925 -0.0149
41378W        W50178  10.801   3.044  16.653  0.2275 -0.0940 -0.0532
41379W        W50179   8.049   2.148   4.274  0.0070  0.0371 -0.2156
41380W        W50180   3.305   2.993  16.327 -0.3164 -0.3292 -0.1227
41381W        W50181  22.045   5.617   9.168 -0.1565  0.1353  0.0817
41382W        W50182  26.541   1.997  10.193  0.0488 -0.1568  0.0076
41383W        W50183  18.608   6.906   1.630 -0.1534  0.0988 -0.0615
41384W        W50184  19.790   7.800   3.106  0.1892  0.0710 -0.0570
41385W        W50185   1.200   2.358  23.051  0.0139 -0.1945 -0.0809
41386W        W50186  16.037   3.214  15.580  0.0101  0.0990  0.0016
41387W        W50187  24.929   2.279  22.688 -0.0108  0.1181 -0.2121
41388W        W50188  19.982   1.290   0.885  0.2271  0.1560 -0.3584
41389W        W50189  18.879   0.762  23.008 -0.1293  0.0334 -0.0793
41390W        W50190   0.376   0.541  11.730 -0.0029 -0.1098  0.0256
41391W        W50191  25.548   7.384  18.232 -0.2073  0.2693 -0.0581
41392W        W50192   6.411   4.761   1.847 -0.1759 -0.0343  0.2415
41393W        W50193  13.454   7.132   5.531 -0.0439  0.0709  0.0804
41394W        W50194  21.296   4.231  22.611 -0.2689  0.2135 -0.0938
41395W        W50195   8.380   2.150  17.884  0.0836 -0.1220 -0.0338
41396W        W50196  22.406   0.757  24.585  0.1620 -0.0416 -0.0104
41397W        W50197  25.022   4.348   3.051 -0.1632 -0.1383 -0.0906
41398W        W50198   9.388   4.778   9.539  0.2391 -0.0226 -0.3037
41399W        W50199   3.172   1.923   1.126 -0.4024  0.1986 -0.0130
41400W        W50200  12.418   6.686   1.458  0.2024 -0.2684  0.3727
41401W        W50201  31.133   2.701   3.707 -0.2217 -0.0725 -0.0514
41402W        W50202   9.104   0.243   4.244  0.0395  0.3018  0.1525
41403W        W50203   1.064   6.862   3.206  0.0280 -0.0374  0.0815
41404W        W50204  21.102   7.732   6.973  0.2037 -0.0804 -0.0419
41405W        W50205  15.865   1.782  15.906 -0.1220 -0.0457 -0.0481
41406W        W50206  10.208   4.709   1.486  0.2456  0.0059 -0.2101
41407W        W50207   3.829   2.698  22.859 -0.1626  0.2895  0.0661
41408W        W50208  14.447   4.733  15.022 -0.1020 -0.2226 -0.1308
41409W        W50209   0.251   7.321  22.723 -0.0384 -0.0298 -0.2489
41410W        W50210  30.371   3.883   6.990  0.2328 -0.1811 -0.0091
41411W        W50211   9.591   7.291   5.716 -0.0015 -0.1293 -0.2616
41412W        W50212  25.233   1.389  16.211 -0.1795  0.2611  0.0066
41413W        W50213   9.409   7.493  19.078  0.1516  0.0912  0.2649
41414W        W50214  27.665   6.929  21.086  0.0963  0.2366  0.3876
41415W        W50215   5.297   5.439  16.330 -0.1195  0.0693  0.3900
41416W        W50216   9.104   4.691  26.165  0.2538 -0.0690  0.1716
41417W        W50217  12.869   0.903   1.334  0.1174 -0.1302 -0.3727
41418W        W50218  13.982   4.378   9.661 -0.1594  0.0280 -0.0192
41419W        W50219  24.622   5.235  21.952 -0.0918  0.0783  0.1401
41420W        W50220  21.550   3.284   4.872 -0.0454  0.1565 -0.1414
41421W        W50221  24.737   4.136  24.224 -0.1984 -0.0653 -0.1304
41422W        W50222  13.075   6.019   3.452 -0.0808 -0.2791 -0.1105
41423W        W50223  21.944   1.576  20.895  0.2111  0.0708 -0.0100
41424W        W50224  27.830   5.045  16.063 -0.4491  0.2634  0.0021
41425W        W50225  13.735   0.983  21.387 -0.1179  0.2891 -0.0521
41426W        W50226  27.773   4.393   1.910  0.1784  0.3129  0.2078
41427W        W50227  11.434   2.789  23.465 -0.1139  0.2687 -0.0464
41428W        W50228   7.430   4.640   7.604 -0.0907  0.1554  0.2446
41429W        W50229  26.060   1.386   9.589  0.0755 -0.0605  0.0568
41430W        W50230  18.883   2.808   2.581 -0.3391 -0.0657  0.0309
41431W        W50231  20.472   0.100   2.409 -0.0116  0.0035 -0.1081
41432W        W50232  13.329   1.155  16.743 -0.1938  0.1982 -0.0211
41433W        W50233  21.310   6.695  16.831 -0.0019  0.3092  0.1542
41434W        W50234   0.209   5.616  21.605  0.0595  0.1209  0.2417
41435W        W50235  11.443   5.808  16.320 -0.0409 -0.3413  0.0036
41436W        W50236   3.002   6.442   4.551  0.0592 -0.0099 -0.2608
41437W        W50237  12.090   1.766   9.036 -0.0257 -0.0548 -0.0417
41438W        W50238  29.620   2.573   2.324 -0.2172  0.0739 -0.1517
41439W        W50239  25.155   0.606   2.756  0.0890 -0.0807 -0.1073
41440W        W50240  26.801   3.419  20.447  0.1181 -0.3468  0.1173
41441W        W50241  10.563   0.172   8.672 -0.3204  0.0421 -0.2625
41442W        W50242   0.406   3.181  21.054  0.1667  0.0724 -0.0881
41443W        W50243  30.327   5.345  22.098  0.0933 -0.0445  0.1367
41444W        W50244   6.821   2.698  20.500  0.0023  0.0489  0.2676
41445W        W50245  10.787   4.873  19.278 -0.0630 -0.2301  0.0115
41446W        W50246   2.951   2.010  21.774 -0.0587  0.2819 -0.0158
41447W        W50247   1.800   7.150  23.837 -0.0635 -0.0537  0.0278
41448W        W50248   6.797   4.179  21.293 -0.1070  0.2145 -0.0343
41449W        W50249   8.253   6.272   6.085  0.0389  0.1607 -0.2225
41450W        W50250  13.904   0.873   9.835  0.3117 -0.1359 -0.0994
41451W        W50251   5.345   4.577  19.601 -0.0372  0.0638  0.0570
41452W        W50252   5.084   3.907   9.533  0.1138  0.2769 -0.0525
41453W        W50253   9.026   7.243  22.466 -0.1505  0.0897 -0.1504
41454W        W50254  31.063   1.370  21.547  0.0924 -0.1697  0.0419
41455W        W50255  24.724   4.340  10.365  0.1834 -0.0648  0.0503
41456W        W50256  30.278   3.501  25.693 -0.0028  0.0518 -0.4732
41457W        W50257  17.056   7.639   1.318 -0.0966 -0.0286  0.0958
41458W        W50258  19.995   6.121  20.842 -0.1273  0.2763  0.0192
41459W        W50259  16.201   7.498  14.894 -0.3938 -0.2796 -0.1113
41460W        W50260  13.994   3.735   5.297 -0.2930  0.0388 -0.1941
41461W        W50261   2.025   2.673   3.843 -0.0976  0.1081  0.1013
41462W        W50262  24.219   5.844  16.704 -0.0549 -0.3938 -0.0433
41463W        W50263   5.946   2.611   4.102  0.1200 -0.0793 -0.1558
41464W        W50264  23.677   0.979  16.537  0.2113  0.1221 -0.0326
41465W        W50265  29.662   3.817   5.196  0.1141 -0.1352  0.3102
41466W        W50266  24.100   3.200  18.126  0.0076  0.0297  0.3541
41467W        W50267  28.585   1.583   1.466 -0.0642 -0.1614  0.1740
41468W        W50268  19.820   2.413   8.492  0.2492 -0.0006  0.3793
41469W        W50269  18.968   6.291  25.873  0.0585  0.2230  0.0568
41470W        W50270  10.640   7.458  10.386 -0.0591  0.1021 -0.0047
41471W        W50271  19.135   1.816  16.763  0.1126  0.0519  0.0497
41472W        W50272  18.451   2.523   2.661  0.2128  0.2622 -0.2300
41473W        W50273  20.350   7.711  17.650 -0.0334 -0.0861  0.1678
41474W        W50274   5.675   0.253  25.961  0.1039 -0.1404 -0.2590
41475W        W50275  11.691   4.859   1.927 -0.4022  0.0792 -0.2621
41476W        W50276  13.200   2.605  10.431 -0.0289  0.0550  0.0733
41477W        W50277   7.492   0.567  20.773  0.2010  0.0145  0.2620
41478W        W50278  17.284   6.857  24.129 -0.1530 -0.1457 -0.0310
41479W        W50279   2.832   6.641   5.076 -0.1905  0.1832  0.0984
41480W        W50280  14.128   1.122   6.802 -0.3250 -0.1879 -0.1046
41481W        W50281  25.586   4.640   4.766  0.2420  0.0668  0.0615
41482W        W50282  14.764   1.145   8.883 -0.0904  0.0906 -0.4531
41483W        W50283  12.796   4.595   3.202  0.3570 -0.0400 -0.0791
41484W        W50284   4.538   6.065  19.958  0.0633 -0.0651 -0.1365
41485W        W50285   7.056   6.524  20.773 -0.0470  0.1454  0.0834
41486W        W50286  17.995   6.503  19.245  0.2532 -0.0575  0.5143
41487W        W50287  13.685   1.722  24.738  0.1369 -0.0547 -0.2154
41488W        W50288  27.684   3.145   4.859  0.2682  0.0021  0.2002
41489W        W50289   0.765   1.551  25.345 -0.0504 -0.0490 -0.0902
41490W        W50290  10.260   4.129  21.091 -0.0086 -0.0178 -0.1741
41491W        W50291   7.130   1.464  21.557  0.0400  0.3316  0.1679
41492W        W50292  31.154   1.835  22.565 -0.0852  0.1358 -0.0058
41493W        W50293  10.075   6.577   2.915 -0.2534 -0.3060 -0.2717
41494W        W50294  20.362   6.625  17.915  0.4316  0.0954 -0.4368
41495W        W50295   8.984   1.661   3.202 -0.0900 -0.1082 -0.1296
41496W        W50296  10.840   3.466   9.162 -0.0727 -0.2282 -0.0886
41497W        W50297  21.185   3.209   8.729 -0.1361 -0.2640  0.1325
41498W        W50298  30.889   5.869  10.126  0.2669  0.0579 -0.0805
41499W        W50299  23.393   2.344   1.558  0.1971  0.1803 -0.2161
41500W        W50300  30.422   5.462   3.863 -0.3660 -0.2930 -0.0226
41501W        W50301   0.015   4.562  19.735  0.1837  0.1836  0.0510
41502W        W50302  27.533   6.023   1.860 -0.0652 -0.1356 -0.3000
41503W        W50303  15.059   0.718   8.009 -0.4610  0.0412  0.0359
41504W        W50304   5.193   3.715   2.635 -0.2814 -0.1626  0.0373
41505W        W50305  20.724   3.778  19.894 -0.1497  0.1635  0.4483
41506W        W50306  27.912   2.970  19.294 -0.3328 -0.0260  0.1419
41507W        W50307  19.044   5.084   0.019  0.1116 -0.0032  0.1366
41508W        W50308   8.059   0.945  25.012 -0.0559 -0.1437 -0.2379
41509W        W50309  17.689   6.519  20.432 -0.0999 -0.0436  0.2564
41510W        W50310  18.930   0.738  25.818  0.1237 -0.0860 -0.0134
41511W        W50311   4.202   7.435   8.052  0.2020  0.0751 -0.1078
41512W        W50312   4.767   1.457   4.150  0.0371  0.0981  0.1954
41513W        W50313  25.988   5.213   2.006 -0.1660  0.2117  0.0042
41514W        W50314  17.581   5.039  17.037  0.3409  0.1174 -0.1727
41515W        W50315  19.261   5.298  21.388  0.0854 -0.2905  0.5267
41516W        W50316  18.895   6.586  19.452  0.2513 -0.1704  0.1170
41517W        W50317  21.049   6.243   2.432 -0.0647 -0.0809 -0.0412
41518W        W50318   9.836   3.694  21.908  0.3501 -0.0731  0.1189
41519W        W50319  13.336   0.783  25.458  0.1143  0.1471  0.2758
41520W        W50320  14.891   3.810  23.839 -0.0170  0.1362  0.0633
41521W        W50321  18.783   4.214   4.570 -0.0439  0.2193 -0.2426
41522W        W50322   3.670   4.438   0.434 -0.1458  0.1022  0.0063
41523W        W50323   5.184   1.834   2.274  0.1102 -0.2243  0.2420
41524W        W50324  15.201   2.443  20.644 -0.0229  0.0420  0.1769
41525W        W50325   1.524   2.438   8.808  0.0887  0.0490  0.2649
41526W        W50326  13.222   4.962  25.033 -0.1109  0.0835  0.0224
41527W        W50327  20.279   1.079  19.566 -0.1015  0.1977  0.0240
41528W        W50328  28.623   2.979  10.170 -0.0448  0.1806 -0.1145
41529W        W50329   3.483   1.460  10.582  0.2222 -0.0107 -0.0432
41530W        W50330  25.081   6.708  25.983  0.2052 -0.0436  0.2049
41531W        W50331  25.900   4.700   1.892 -0.0975  0.1381  0.0801
41532W        W50332  22.053   4.283   0.296 -0.0649  0.1557  0.1864
41533W        W50333   9.107   1.439  15.000  0.0294  0.1008  0.3371
41534W        W50334   7.491   5.147   7.662  0.0397 -0.0813  0.1671
41535W        W50335   6.314   2.750  15.535  0.0682 -0.2163  0.0545
41536W        W50336  21.590   4.051   3.275 -0.0870 -0.1725  0.1384
41537W        W50337   3.072   4.888  18.807  0.2796  0.0083  0.0231
41538W        W50338  22.005   2.116   9.794  0.1334  0.1584  0.0415
41539W        W50339  20.703   1.611   0.442 -0.1388  0.2225  0.0679
41540W        W50340  30.115   1.034   4.777  0.0898  0.0951 -0.2417
41541W        W50341  21.373   0.732  21.833 -0.1527  0.0875 -0.2807
41542W        W50342   3.931   7.472  23.837 -0.0870  0.3489  0.1899
41543W        W50343  16.197   7.358  17.852 -0.0345  0.0906 -0.1384
41544W        W50344  10.037   7.404  18.234 -0.4137 -0.2408 -0.4268
41545W        W50345  22.368   7.131   3.373  0.2007  0.3335  0.0172
41546W        W50346   7.596   1.587  22.557 -0.1437  0.1863 -0.0366
41547W        W50347  28.648   7.512   6.683 -0.0268 -0.1628  0.2042
41548W        W50348  24.854   0.792   4.795  0.1322 -0.1648  0.2477
41549W        W50349  21.185   4.836  17.856 -0.0342  0.1948  0.2370
41550W        W50350  23.024   2.927   1.842 -0.1146 -0.1687 -0.0237
41551W        W50351  24.985   4.024  21.403  0.0552 -0.1204 -0.1298
41552W        W50352  27.722   5.939   0.918  0.0586 -0.1043 -0.1930
41553W        W50353  25.227   5.737  23.335 -0.1894 -0.0601 -0.1016
41554W        W50354   0.079   4.560   2.677  0.0708 -0.0411  0.1787
41555W        W50355  30.740   0.663  20.889 -0.3330  0.1462  0.0833
41556W        W50356  11.398   6.140  17.071 -0.1033 -0.1802 -0.1648
41557W        W50357  13.517   4.381  19.170 -0.0937  0.0336 -0.1232
41558W        W50358  20.148   7.044   0.219 -0.0262  0.1097 -0.1907
41559W        W50359  30.730   5.753  16.646 -0.1211  0.0732  0.0301
41560W        W50360  24.067   7.323  24.769 -0.1510  0.0969  0.0032
41561W        W50361   7.836   3.282  18.192 -0.0778 -0.1620 -0.0760
41562W        W50362  15.225   1.020   9.804 -0.0273 -0.1749 -0.3458
41563W        W50363  26.703   5.840  23.900  0.1006 -0.0744 -0.2178
41564W        W50364   2.495   0.118  16.415 -0.0008 -0.1828 -0.2171
41565W        W50365  13.084   6.986  17.368  0.0950 -0.2122  0.0746
41566W        W50366  21.612   5.187  21.014 -0.1671  0.2689 -0.1307
41567W        W50367  15.337   5.030  16.394 -0.0238 -0.0670  0.1069
41568W        W50368   5.911   4.831   1.791  0.1262  0.0824  0.0407
41569W        W50369   8.414   4.451  10.397  0.0106  0.0008 -0.0800
41570W        W50370  23.395   4.702  23.360  0.2859  0.0526  0.1450
41571W        W50371   2.240   7.078   4.793  0.1853 -0.0719  0.0989
41572W        W50372  15.992   3.073   5.127  0.2049  0.0983  0.3169
41573W        W50373   0.765   4.349   8.455 -0.0813 -0.2237 -0.1120
41574W        W50374  22.629   3.285  24.346 -0.1203 -0.0165  0.1436
41575W        W50375   2.821   4.105   4.493  0.0181 -0.1961 -0.2730
41576W        W50376  14.845   3.398   7.294  0.1759 -0.1386 -0.1324
41577W        W50377  22.231   0.905   5.126 -0.1597 -0.2277  0.0269
41578W        W50378   7.511   5.523   8.202  0.1559  0.0011  0.0280
41579W        W50379   4.717   5.329   4.830  0.0027  0.0668  0.1526
41580W        W50380   9.420   1.451   5.568  0.0421  0.2287 -0.2080
41581W        W50381   6.951   5.046   9.702  0.2508 -0.1165 -0.2589
41582W        W50382   4.542   5.765   8.428  0.2562 -0.0016  0.3781
41583W        W50383  27.429   5.810   6.619  0.2012  0.0389  0.1458
41584W        W50384   3.586   0.340  25.698 -0.1904  0.3337  0.1146
41585W        W50385   3.136   2.393  24.861 -0.1020 -0.0582  0.0051
41586W        W50386   1.113   2.813   7.107 -0.1647  0.0928 -0.1803
41587W        W50387  25.712   1.739   7.382  0.1036 -0.1462  0.1010
41588W        W50388   7.984   5.500   5.495 -0.0831 -0.1857  0.0405
41589W        W50389   5.348   7.397   3.731 -0.1458  0.0128 -0.0439
41590W        W50390  24.670   0.119   0.845 -0.0329 -0.3516  0.0728
41591W        W50391  11.545   2.557  16.885  0.0058 -0.0838 -0.4214
41592W        W50392  23.525   0.805   4.713  0.1176  0.0864 -0.0852
41593W        W50393  21.508   0.738  10.467  0.1175  0.0535  0.0315
41594W        W50394  14.830   1.609  21.801 -0.1026  0.0014 -0.5905
41595W        W50395  10.455   2.906  18.750 -0.1026  0.1204  0.1037
41596W        W50396  19.904   5.411  24.302 -0.1490  0.3563 -0.2982
41597W        W50397  12.654   4.597  18.426 -0.0160  0.0611  0.2001
41598W        W50398  28.775   5.009  16.437 -0.0762 -0.3508 -0.0723
41599W        W50399   5.086   4.795  25.927  0.0903  0.1586  0.1673
41600W        W50400  27.340   5.824   2.815 -0.0122  0.4274  0.0836
41601W        W50401  27.798   0.499  18.413 -0.2085 -0.0923  0.0994
41602W        W50402  21.552   3.301   7.357 -0.1021  0.2562  0.0628
41603W        W50403   4.105   5.038  11.376 -0.3501 -0.2672  0.0854
41604W        W50404  30.037   5.011  11.934 -0.0497  0.2754 -0.1244
41605W        W50405   7.622   1.996  17.407  0.1695 -0.0546 -0.2324
41606W        W50406  17.607   1.910   4.824 -0.1575 -0.0517  0.0412
41607W        W50407  29.312   1.515   6.994 -0.2003 -0.0908 -0.4072
41608W        W50408  12.102   0.047   5.222  0.6417  0.2457  0.0680
41609W        W50409   4.507   6.708  17.841  0.0685 -0.0200 -0.1933
41610W        W50410   9.645   5.735  17.390 -0.0417  0.1358 -0.3220
41611W        W50411   0.886   6.353  21.420 -0.0341  0.1216 -0.2052
41612W        W50412  29.096   5.399  19.536  0.1561  0.0671 -0.1264
41613W        W50413  10.619   6.464  24.303  0.0961 -0.0887 -0.2891
41614W        W50414   3.577   0.850   6.788 -0.0554 -0.1072 -0.0065
41615W        W50415  11.051   7.409   0.490  0.1247 -0.0690 -0.0799
41616W        W50416  14.123   6.840   7.142  0.4479 -0.0513 -0.1693
41617W        W50417   8.051   3.940  20.639  0.0544  0.0804  0.2174
41618W        W50418   8.497   2.817  25.697  0.1465  0.0507  0.1217
41619W        W50419  10.686   0.184  18.927 -0.0819  0.2047  0.0569
41620W        W50420  24.179   6.734  18.311  0.1134  0.1923 -0.4168
41621W        W50421  26.886   0.310   1.282  0.0113 -0.0845  0.0315
41622W        W50422  15.243   4.335   2.682  0.0785  0.0514  0.2333
41623W        W50423  30.174   1.400   9.141 -0.0890  0.1951 -0.1240
41624W        W50424   0.537   2.090   6.310 -0.1709 -0.1054 -0.0553
41625W        W50425   4.440   5.984  19.010 -0.2546 -0.1553 -0.1261
41626W        W50426  30.481   6.066  17.925 -0.2081 -0.0219  0.0184
41627W        W50427  21.236   5.996   8.029  0.1315 -0.3033  0.1076
41628W        W50428   5.176   2.609  23.581 -0.2372  0.0382  0.0510
41629W        W50429  10.972   0.073  15.877  0.3013  0.0605 -0.1444
41630W        W50430   5.722   6.773  18.822  0.0258 -0.1111  0.1584
41631W        W50431  20.190   3.058  23.128  0.5659  0.1219  0.0394
41632W        W50432  11.698   3.133   6.734 -0.1880  0.1034 -0.0273
41633W        W50433   7.887   1.694  16.602  0.4104 -0.0553 -0.0055
41634W        W50434   1.774   7.523   4.825  0.2462 -0.3668 -0.3378
41635W        W50435  22.123   5.184  16.096  0.3447  0.0072 -0.2995
41636W        W50436  22.490   5.521  21.518  0.1003  0.2198  0.0760
41637W        W50437  11.602   5.794  25.651  0.2289 -0.1803  0.0001
41638W        W50438  16.101   6.726   2.813  0.1467  0.4028 -0.1493
41639W        W50439   7.962   0.973  21.521  0.1687  0.0110  0.3139
41640W        W50440  20.888   4.306  22.262  0.0898 -0.2482  0.0478
41641W        W50441   2.375   6.871  24.760 -0.0208 -0.0664 -0.1726
41642W        W50442  17.782   7.118   1.767 -0.2937  0.3254  0.1733
41643W        W50443  11.336   5.491   4.736 -0.3463 -0.1105 -0.1291
41644W        W50444  14.693   0.098  24.427 -0.0678 -0.0895  0.2275
41645W        W50445  12.835   3.278  23.139  0.0266  0.0794  0.1919
41646W        W50446  18.140   7.226  21.295 -0.0122  0.0592  0.2775
41647W        W50447   3.269   5.141  22.594 -0.1080  0.2257  0.4601
41648W        W50448   1.628   3.493   3.099 -0.0655  0.0003  0.3970
41649W        W50449   0.680   1.644   9.323  0.1517  0.0309  0.3799
41650W        W50450  20.482   6.828   8.861 -0.1530 -0.0082  0.0740
41651W        W50451   8.432   5.177  22.923  0.2420  0.3303 -0.2075
41652W        W50452  21.617   2.533  25.303  0.0344  0.2402  0.1790
41653W        W50453   7.619   5.786  24.890 -0.0210  0.1533 -0.0103
41654W        W50454  28.229   5.348  24.769 -0.0472  0.2635  0.0179
41655W        W50455  14.511   0.420  18.008 -0.0722  0.2861 -0.0080
41656W        W50456  25.964   6.465  20.095  0.0678 -0.0611 -0.0866
41657W        W50457  17.146   3.841  19.590 -0.1407 -0.2220 -0.1041
41658W        W50458  28.966   6.530  17.596 -0.0545 -0.1046 -0.1591
41659W        W50459  10.624   3.813   5.619 -0.0081  0.0734  0.2634
41660W        W50460  22.121   4.615  19.548  0.0368 -0.1431 -0.0756
41661W        W50461   2.395   1.302   0.912 -0.0246  0.0363 -0.2008
41662W        W50462  19.424   3.903  23.121 -0.2919  0.3659 -0.5471
41663W        W50463   1.449   6.574   9.215  0.1179 -0.0940 -0.0114
41664W        W50464   9.516   3.288   8.807 -0.0824  0.2342 -0.3134
41665W        W50465   9.510   1.657   3.225  0.1010  0.2492  0.0423
41666W        W50466  29.105   3.979  22.327  0.0494 -0.1083  0.0877
41667W        W50467  14.273   6.721   8.495 -0.0780  0.2182  0.0567
41668W        W50468   7.225   5.021  16.577  0.1029 -0.2199 -0.1096
41669W        W50469  30.591   1.286  16.747 -0.1166 -0.2129 -0.1659
41670W        W50470  30.045   5.509  10.607  0.0204 -0.1397  0.2384
41671W        W50471   9.978   3.984  17.794  0.0646 -0.2100  0.3060
41672W        W50472  13.384   4.637  10.370  0.3110 -0.2789  0.0201
41673W        W50473  19.987   4.747  20.837 -0.0512 -0.1009 -0.1869
41674W        W50474   6.048   5.728  20.004  0.0298 -0.2251 -0.1933
41675W        W50475   6.112   0.354   5.980 -0.1792  0.3024  0.1855
41676W        W50476  19.770   1.777   0.989  0.4417  0.1113  0.0266
41677W        W50477  15.357   4.897   1.157 -0.2632 -0.1480  0.1229
41678W        W50478   1.191   1.874   5.965 -0.2085 -0.2254  0.1063
41679W        W50479  22.741   2.912   3.375  0.3077  0.0170 -0.3527
41680W        W50480  25.641   1.394  19.048  0.1403 -0.0363  0.0962
41681W        W50481   1.651   1.105  10.760 -0.0045 -0.4493  0.0750
41682W        W50482  26.068   5.777   3.031  0.1337 -0.1045  0.3284
41683W        W50483  18.690   4.077  20.989  0.0539  0.1598  0.0402
41684W        W50484   5.395   3.236   5.851  0.1120 -0.1472 -0.0096
41685W        W50485   5.919   2.459  18.068  0.0777  0.2083  0.0634
41686W        W50486  28.854   0.909   4.789  0.1034 -0.2395  0.1420
41687W        W50487  19.651   2.771  22.571  0.0954 -0.1232  0.0082
41688W        W50488   9.875   5.537  23.510  0.0051  0.0029 -0.0125
41689W        W50489  30.963   0.123  24.734  0.0671 -0.3450  0.1996
41690W        W50490  31.153   2.356  19.754 -0.1442 -0.0259  0.2052
41691W        W50491   5.579   5.276   1.723  0.0444 -0.0717  0.0489
41692W        W50492  19.217   5.473  19.415 -0.1579 -0.0400  0.1390
41693W        W50493  14.840   5.529   6.039 -0.2657 -0.1560  0.0025
41694W        W50494  25.617   0.873   9.084  0.0671 -0.1174  0.4248
41695W        W50495   6.227   1.907   7.420 -0.3308 -0.0508 -0.2175
41696W        W50496  23.921   1.644  24.581  0.1061  0.2321 -0.1231
41697W        W50497   9.072   2.153   3.366 -0.1096  0.0375 -0.0305
41698W        W50498  15.805   2.230  14.700 -0.0533  0.0912  0.0153
41699W        W50499  24.825   2.151  22.231  0.0859 -0.0810  0.2424
41700W        W50500  28.143   7.693  15.742 -0.0902 -0.1814  0.0738
41701W        W50501  25.226   6.247   8.774  0.0128 -0.1262  0.0815
41702W        W50502   8.547   4.074  21.080 -0.0352  0.0199 -0.0368
41703W        W50503   8.473   0.513   3.551  0.4191  0.0878 -0.0594
41704W        W50504   6.016   7.529  21.288  0.1610 -0.1991  0.0004
41705W        W50505  10.293   4.860   9.109 -0.0130 -0.0502 -0.0253
41706W        W50506  17.906   5.487   6.882 -0.1881 -0.0017 -0.0825
41707W        W50507  23.726   2.135   5.639 -0.0996  0.1753 -0.4776
41708W        W50508  18.990   7.590   6.539 -0.0096 -0.0743 -0.2878
41709W        W50509  16.660   4.492   1.825 -0.0140  0.1042 -0.2379
41710W        W50510  20.234   3.596   1.204  0.1332 -0.2145  0.0202
41711W        W50511  11.200   0.575  19.879 -0.2786  0.1437 -0.1535
41712W        W50512   4.797   4.537   4.422 -0.1768 -0.1743  0.1757
41713W        W50513  17.102   6.352   9.284  0.1313  0.3372 -0.3154
41714W        W50514  10.453   5.095  24.456  0.0869  0.0063  0.3530
41715W        W50515  24.872   7.058   9.772  0.0124 -0.0602  0.1712
41716W        W50516  13.652   6.271  16.312  0.2467  0.0191  0.0932
41717W        W50517   6.146   0.251  20.733  0.1312 -0.1252 -0.0762
41718W        W50518   2.764   5.927   5.677 -0.1976  0.0792  0.1961
41719W        W50519  14.945   0.958   3.329 -0.0922 -0.4138  0.1206
41720W        W50520  25.178   7.230   0.528 -0.0274 -0.5039  0.0401
41721W        W50521  13.592   6.728   9.361  0.0493  0.0979 -0.2262
41722W        W50522  24.366   5.700   2.255  0.0681 -0.3127 -0.3802
41723W        W50523  25.281   3.291   2.242 -0.1178  0.0999  0.2109
41724W        W50524   9.380   0.525  15.892 -0.0904 -0.1196 -0.2802
41725W        W50525  10.559   0.322  10.074 -0.1607  0.2576  0.1596
41726W        W50526   3.455   1.271  21.444 -0.0377  0.1173 -0.2219
41727W        W50527   4.434   3.862   3.556  0.0682 -0.2400  0.0876
41728W        W50528  12.495   3.675  23.102  0.0754  0.2416 -0.1515
41729W        W50529  23.359   7.320  18.849  0.1372  0.0246  0.0110
41730W        W50530  29.694   0.199  16.610  0.1391 -0.0696 -0.0835
41731W        W50531  25.131   7.695  22.750  0.3645  0.3129 -0.0593
41732W        W50532   6.452   2.657   0.424  0.1656  0.1989 -0.2188
41733W        W50533  26.618   6.285   7.553  0.0011 -0.1858  0.0621
41734W        W50534  23.267   2.924   9.674 -0.1284 -0.1587  0.0346
41735W        W50535  30.741   2.532  16.243 -0.0564  0.0129  0.2739
41736W        W50536  30.743   6.315   8.885  0.0307  0.1516  0.0322
41737W        W50537  29.688   3.740  18.038  0.2066 -0.2570  0.0704
41738W        W50538  24.245   3.695  20.039  0.2583 -0.1180  0.1269
41739W        W50539  25.332   5.032   0.827  0.1122  0.0124 -0.1705
41740W        W50540   9.198   4.718   0.741  0.0773  0.0281 -0.0113
41741W        W50541   2.370   2.117  11.745  0.1315  0.2508  0.0638
41742W        W50542   1.085   3.823   9.679 -0.1737 -0.2571  0.0310
41743W        W50543  20.351   5.515  21.230 -0.0038 -0.1027 -0.1682
41744W        W50544   6.549   0.458  10.087 -0.3018 -0.0682  0.0153
41745W        W50545  13.967   2.693   4.331 -0.2693  0.0659  0.0611
41746W        W50546  22.518   0.627  15.685 -0.1493  0.0745 -0.2599
41747W        W50547  13.753   5.473   2.981  0.1211 -0.1124  0.0296
41748W        W50548  30.321   2.165  23.239  0.1357  0.0573  0.1388
41749W        W50549   3.638   6.302   9.972 -0.3131 -0.1366  0.1758
41750W        W50550  10.739   7.502  18.979  0.1231 -0.1749  0.2492
41751W        W50551  22.970   3.717   0.712 -0.2831 -0.0746  0.0021
41752W        W50552   8.924   2.307   0.879 -0.3283  0.0629  0.0359
41753W        W50553   1.568   3.345  24.560  0.0060 -0.1384 -0.0959
41754W        W50554   2.257   3.249   5.414  0.2784  0.0919  0.0892
41755W        W50555  12.847   2.402  18.420  0.1041  0.2173  0.3126
41756W        W50556   9.417   4.219  21.693  0.1259  0.0309 -0.0405
41757W        W50557  28.008   2.133  17.766  0.0719 -0.0514 -0.0902
41758W        W50558   3.288   2.779  22.786  0.0747  0.0995  0.3747
41759W        W50559  17.326   5.680   7.252  0.0509  0.2111 -0.2366
41760W        W50560  28.190   4.088   7.143 -0.0483  0.2960 -0.0592
41761W        W50561  14.348   2.331  14.959  0.1687  0.0884  0.0054
41762W        W50562  13.134   5.125  24.556  0.0580  0.1400  0.1967
41763W        W50563  22.169   0.158   8.640 -0.2508 -0.1142 -0.1953
41764W        W50564   8.764   3.128  19.066 -0.2607 -0.0422  0.1167
41765W        W50565   2.881   6.321   2.517 -0.1456 -0.2798 -0.0847
41766W        W50566  16.421   3.817  25.595  0.2925 -0.2169 -0.0123
41767W        W50567  13.449   5.327  10.082  0.1020 -0.1057 -0.4097
41768W        W50568  16.646   5.250   5.125 -0.1917  0.5939  0.0937
41769W        W50569   3.608   6.965  17.634 -0.4243  0.1152  0.0292
41770W        W50570  13.256   7.046  23.587  0.1807  0.0185  0.1179
41771W        W50571  10.237   6.146  17.497  0.1970  0.1754 -0.2194
41772W        W50572  29.423   3.874   6.045  0.1678  0.2574  0.0835
41773W        W50573  17.932   0.623   7.238  0.1073  0.0344  0.0361
41774W        W50574  17.813   2.227  20.872  0.1138  0.0849 -0.1224
41775W        W50575  21.520   4.384  26.014 -0.2840 -0.1473  0.0189
41776W        W50576  31.066   6.982   3.390 -0.0348 -0.1646 -0.0495
41777W        W50577   9.593   0.918  18.874  0.2004 -0.0619 -0.3198
41778W        W50578  24.267   6.209   2.575 -0.0159 -0.0163  0.0293
41779W        W50579  11.988   6.454   1.851 -0.0090 -0.2816  0.2234
41780W        W50580   6.093   1.601   5.146  0.0613 -0.0634  0.0349
41781W        W50581  25.081   0.529  25.429  0.1777 -0.0948 -0.3628
41782W        W50582  10.938   5.073  16.272 -0.3374  0.0703 -0.0731
41783W        W50583  14.588   0.857  16.147  0.4298 -0.2861 -0.5743
41784W        W50584  12.148   2.328   9.688  0.0040 -0.0755  0.2430
41785W        W50585   3.589   3.673  20.000 -0.0906 -0.0505 -0.0057
41786W        W50586  16.853   4.819  23.566  0.0189  0.1153 -0.1992
41787W        W50587  18.683   5.147   7.116 -0.1428  0.0325 -0.0937
41788W        W50588  20.458   6.486  10.717 -0.3125  0.3568  0.0272
41789W        W50589  11.536   6.113  20.493 -0.1261  0.1700 -0.1427
41790W        W50590  17.013   1.048  18.547 -0.0142 -0.1427 -0.0116
41791W        W50591  16.871   0.801  21.908 -0.1470  0.0051  0.2138
41792W        W50592  10.706   5.651   5.207 -0.1088 -0.0774 -0.3085
41793W        W50593  25.713   7.570   2.301 -0.0510  0.1639 -0.0210
41794W        W50594  11.637   1.429  21.226 -0.2931 -0.1916 -0.2100
41795W        W50595   5.452   2.607  15.815 -0.1585  0.0681  0.2129
41796W        W50596  22.926   1.412   8.755  0.2034  0.2884 -0.1819
41797W        W50597  10.901   1.333  15.742 -0.0253  0.1970  0.1646
41798W        W50598  14.717   7.477  24.084  0.1151  0.0427 -0.1621
41799W        W50599  26.806   0.224  11.307 -0.1449  0.0209 -0.1728
41800W        W50600   7.881   4.821  23.621  0.0966  0.1643  0.1329
41801W        W50601  12.583   6.887   5.782 -0.1059  0.1338 -0.2246
41802W        W50602   6.317   3.478  22.475  0.1069  0.2244 -0.0208
41803W        W50603   7.358   2.646   5.933  0.1280 -0.2506 -0.1809
41804W        W50604   0.603   0.351   2.148  0.2851  0.1870 -0.0123
41805W        W50605  19.214   4.057   5.642  0.0329 -0.1452  0.0598
41806W        W50606  11.674   6.548  25.062  0.1563  0.1179 -0.0869
41807W        W50607  26.522   5.108   2.991  0.1594 -0.0075  0.1295
41808W        W50608  21.625   0.780  15.764 -0.0580 -0.2145 -0.0147
41809W        W50609   6.156   7.056  21.294  0.0191 -0.2325  0.1120
41810W        W50610  26.707   3.559  10.096  0.1032  0.2710 -0.2196
41811W        W50611   6.636   3.411   8.002 -0.0886  0.3215 -0.1328
41812W        W50612  28.969   3.516  15.947 -0.0724 -0.1259  0.0476
41813W        W50613  26.262   3.348   6.955  0.1469 -0.0682 -0.1653
41814W        W50614   9.570   5.857  25.094 -0.0123  0.0809  0.0536
41815W        W50615  13.389   5.851  25.178 -0.0519  0.2238 -0.3780
41816W        W50616   1.322   4.025   4.540  0.1368  0.2961 -0.2202
41817W        W50617  27.275   4.645  18.802 -0.1655 -0.1148 -0.1422
41818W        W50618  11.357   2.114   1.697  0.3293 -0.0095  0.0150
41819W        W50619   3.319   7.562   6.126 -0.1704 -0.0775  0.0966
41820W        W50620   8.973   5.984  21.317  0.0569 -0.1301  0.3391
41821W        W50621  17.425   5.686  20.713 -0.1242 -0.1873 -0.0286
41822W        W50622  20.085   6.497  21.574  0.0317 -0.1844 -0.2613
41823W        W50623  13.486   4.133  16.375  0.2942  0.1129  0.0436
41824W        W50624  27.266   1.948   4.281 -0.0393  0.0556  0.3107
41825W        W50625  14.246   3.597  25.412  0.0193 -0.2738  0.1130
41826W        W50626  10.050   5.839  18.326 -0.1399 -0.1815  0.3138
41827W        W50627   8.543   3.915   5.315  0.2326 -0.1324 -0.0716
41828W        W50628  12.360   7.061  19.921 -0.0475 -0.1025 -0.1032
41829W        W50629   6.245   3.966  21.571 -0.0287  0.1868 -0.0319
41830W        W50630  28.474   0.160  19.387  0.2011 -0.0561  0.0985
41831W        W50631  23.367   7.174  21.848 -0.2484 -0.1180  0.2230
41832W        W50632   9.885   1.307  19.154  0.1775  0.1478 -0.1323
41833W        W50633   0.157   3.237  10.302 -0.0992 -0.0249 -0.3157
41834W        W50634   7.361   1.775  26.153  0.0430 -0.0354 -0.3392
41835W        W50635  14.871   2.882  22.674  0.0095  0.1982 -0.0489
41836W        W50636  27.368   2.650  20.813  0.3247 -0.0533  0.0026
41837W        W50637   3.944   0.685   8.830  0.1115  0.0446  0.0468
41838W        W50638  18.138   6.646   0.420 -0.1241  0.0783  0.1091
41839W        W50639  19.144   6.614  20.116  0.2196 -0.2138  0.0434
41840W        W50640   9.133   3.487  20.726 -0.3122  0.1923  0.1003
41841W        W50641  11.729   7.217  25.199  0.1249  0.0328  0.4604
41842W        W50642   4.299   0.123   4.807  0.0987  0.0502 -0.2545
41843W        W50643   0.679   7.658   8.872 -0.0215 -0.0660 -0.0134
41844W        W50644  15.673   5.990   5.846 -0.0719  0.3150  0.0694
41845W        W50645  27.494   6.318  22.619 -0.1849  0.2483 -0.0035
41846W        W50646  16.577   5.175   2.648 -0.1716  0.0001 -0.2990
41847W        W50647   5.329   3.369  21.883  0.1960 -0.1924  0.0081
41848W        W50648   3.006   1.379   5.937  0.0720 -0.2331  0.4459
41849W        W50649   3.553   5.094  18.696  0.0041 -0.0697 -0.0843
41850W        W50650  22.945   3.335  15.653 -0.0039  0.1610 -0.0802
41851W        W50651   1.452   4.095  19.139  0.2011 -0.0976 -0.4808
41852W        W50652  20.134   5.060   7.745 -0.1519 -0.1959  0.0051
41853W        W50653  30.939   0.057  26.184 -0.0502  0.0887 -0.2167
41854W        W50654   2.446   3.219  10.953 -0.0249 -0.3875  0.0240
41855W        W50655   1.993   4.201  17.594 -0.0517 -0.1087  0.2497
41856W        W50656  12.337   3.985  15.616 -0.1236  0.0327  0.0142
41857W        W50657  18.479   2.246   5.629  0.0639  0.1256 -0.0132
41858W        W50658  30.978   6.092  25.165  0.0882 -0.1140 -0.1196
41859W        W50659  16.189   1.670   3.927  0.0356 -0.2137  0.1423
41860W        W50660  19.902   0.196  25.275 -0.0351 -0.3577 -0.0607
41861W        W50661   8.968   2.746  15.272  0.0140  0.0566 -0.3155
41862W        W50662  28.059   2.427  11.043 -0.1441  0.0009  0.3784
41863W        W50663  19.569   7.704   4.320 -0.1201 -0.0167  0.1011
41864W        W50664  25.210   4.651   7.767 -0.0194  0.0024 -0.1174
41865W        W50665  17.413   6.952  24.714 -0.1658 -0.4268  0.2852
41866W        W50666  12.364   4.693   5.709  0.2691  0.3105  0.0688
41867W        W50667  11.257   2.021  25.879  0.0045 -0.2859 -0.0967
41868W        W50668  12.105   4.833  19.197  0.1522 -0.0571  0.1282
41869W        W50669  15.680   1.936  17.552 -0.1857 -0.0466 -0.1647
41870W        W50670  12.889   6.630  20.270  0.1061  0.0479  0.1454
41871W        W50671  11.310   7.819  23.433 -0.3087 -0.2626  0.1095
41872W        W50672  15.939   5.005   6.521  0.1540  0.2234  0.0415
41873W        W50673  30.210   1.225   1.241  0.2433 -0.0207  0.0766
41874W        W50674  22.595   4.124  11.284 -0.0297 -0.0355  0.1743
41875W        W50675   9.226   0.561   4.678  0.1876 -0.1446 -0.1318
41876W        W50676   6.722   5.054  16.671  0.1618  0.0923  0.0080
41877W        W50677  10.481   1.551  21.265 -0.0743 -0.1339  0.1689
41878W        W50678  18.654   0.855  21.531 -0.0405 -0.1167  0.1611
41879W        W50679  23.334   7.824   0.071 -0.0119 -0.4543  0.0736
41880W        W50680  11.097   0.875   1.726 -0.0441 -0.1283  0.3910
41881W        W50681   5.754   7.412   2.659 -0.1211  0.0374  0.3211
41882W        W50682  21.125   5.725  17.089  0.2160  0.4447 -0.0490
41883W        W50683  17.157   5.081   1.392 -0.0261 -0.0981  0.1795
41884W        W50684   6.404   3.204  11.112 -0.0771 -0.0882  0.0644
41885W        W50685  24.031   4.349   7.156 -0.0285  0.2116  0.2643
41886W        W50686   6.696   5.839   7.816  0.1297  0.0324 -0.2465
41887W        W50687   0.221   1.075  10.179  0.0608  0.0361 -0.0100
41888W        W50688  25.761   3.187   8.612 -0.0080  0.1919  0.0264
41889W        W50689   3.296   1.381   6.514  0.0248  0.0341 -0.1226
41890W        W50690  22.543   4.238   1.429 -0.0889 -0.0705  0.4758
41891W        W50691  27.806   0.669   8.733 -0.0907 -0.2486  0.0720
41892W        W50692  29.049   4.717   2.821 -0.0111  0.0563 -0.0904
41893W        W50693   3.297   0.623   9.575 -0.2741 -0.1294  0.1826
41894W        W50694   7.996   6.471  22.055  0.1684  0.1768  0.1509
41895W        W50695  21.430   1.671   6.687  0.2162 -0.0435 -0.0366
41896W        W50696  25.796   4.586  19.855  0.3148  0.1380 -0.0684
41897W        W50697   1.979   6.656  10.067 -0.1727 -0.1573 -0.1298
41898W        W50698  21.318   1.240  24.816  0.0671  0.1457  0.1457
41899W        W50699   1.085   2.620  24.806  0.2570 -0.2054 -0.0925
41900W        W50700   1.630   2.168  22.832  0.2357 -0.0327 -0.0951
41901W        W50701   3.532   5.753  17.305 -0.0581 -0.1164 -0.3425
41902W        W50702  13.614   6.796  24.400 -0.2365 -0.0231 -0.1354
41903W        W50703  24.814   7.413   4.265 -0.0630  0.0148  0.0615
41904W        W50704   0.224   7.597  25.874 -0.0708  0.2106  0.3869
41905W        W50705  27.481   1.729  21.548  0.0807 -0.3517  0.1580
41906W        W50706  27.635   0.524   9.401 -0.0021 -0.0217 -0.1111
41907W        W50707  22.028   3.425   7.110 -0.1870 -0.0985  0.2225
41908W        W50708   9.635   2.598  10.101 -0.2475 -0.3114  0.1129
41909W        W50709  26.580   5.290  24.651 -0.1191 -0.0290  0.3259
41910W        W50710  22.714   2.041   5.511 -0.4836 -0.0720 -0.0033
41911W        W50711  21.065   7.305  16.193  0.0247 -0.1499  0.0582
41912W        W50712   2.700   4.234   7.035  0.1269  0.0392 -0.0359
41913W        W50713  28.334   5.137  16.764  0.1476 -0.1663  0.1858
41914W        W50714  24.544   4.401   3.820 -0.1255 -0.3177 -0.1481
41915W        W50715  21.235   5.485  21.088  0.1401  0.1166  0.0285
41916W        W50716   8.437   6.294  19.962 -0.1703 -0.1590 -0.0556
41917W        W50717   6.236   5.476  20.646  0.0661 -0.0338  0.0631
41918W        W50718  23.820   5.747  18.024  0.1140  0.0552 -0.1481
41919W        W50719   4.447   2.589  19.809 -0.0461 -0.1031 -0.2292
41920W        W50720  11.080   6.829   9.274  0.1699  0.1567 -0.0624
41921W        W50721  10.726   1.480   1.127  0.0282  0.1043 -0.0268
41922W        W50722   6.068   7.786  18.384 -0.0663  0.1414  0.0973
41923W        W50723  21.941   3.753   0.983 -0.0230 -0.1729 -0.0142
41924W        W50724   8.625   7.691   0.733  0.0312 -0.2790  0.0887
41925W        W50725  19.407   6.305   6.419  0.1883  0.1390  0.2299
41926W        W50726   6.730   2.781  21.643  0.0953 -0.0733  0.2243
41927W        W50727  14.211   6.273   3.463 -0.1536 -0.0503  0.2112
41928W        W50728  15.912   0.390  17.303 -0.2163  0.1208 -0.0059
41929W        W50729  10.413   1.012  16.852 -0.1139  0.2516 -0.0111
41930W        W50730  17.007   4.473  25.433 -0.0802  0.0019 -0.0503
41931W        W50731  27.227   0.628   0.684  0.2861  0.0864  0.1272
41932W        W50732  25.603   6.398  25.723  0.2469 -0.2993  0.0713
41933W        W50733  15.625   4.186   3.732 -0.1663  0.1373 -0.2229
41934W        W50734   3.107   0.398   2.518 -0.1888 -0.0667  0.2641
41935W        W50735  11.248   1.390  16.552 -0.2552 -0.0694 -0.0759
41936W        W50736  27.074   3.739   2.189  0.0816 -0.0108 -0.1178
41937W        W50737   4.315   7.579   4.459  0.1643  0.0002  0.3057
41938W        W50738   5.230   4.218   4.204 -0.3757  0.2307 -0.2049
41939W        W50739  26.136   1.543  11.177 -0.3259  0.0735  0.0657
41940W        W50740  28.267   3.690  22.085  0.1215 -0.2120 -0.0717
41941W        W50741  10.407   2.607  21.756  0.2253  0.2749 -0.0988
41942W        W50742   4.169   6.510  22.401  0.0538 -0.1925 -0.0915
41943W        W50743   5.194   5.907   5.686 -0.0690  0.0247 -0.0754
41944W        W50744  11.166   5.155  23.709 -0.1281 -0.1876 -0.0269
41945W        W50745   9.712   0.925  19.368  0.2140  0.0189 -0.3238
41946W        W50746  16.579   6.976  25.754  0.0930 -0.0814  0.0772
41947W        W50747  27.631   7.119   6.671 -0.0216 -0.2190  0.3528
41948W        W50748  29.538   3.363   4.302 -0.0203  0.1672 -0.0173
41949W        W50749   8.465   1.098   2.204 -0.1016  0.0960  0.4760
41950W        W50750  10.467   1.735   9.215 -0.0897  0.1632  0.2630
41951W        W50751   3.534   6.001  22.536  0.2357 -0.0428 -0.1395
41952W        W50752   1.531   7.147  20.424 -0.3836 -0.2823 -0.1947
41953W        W50753  14.634   7.678  23.225 -0.1060 -0.1728 -0.1211
41954W        W50754  15.503   6.905   0.416  0.0033 -0.0437  0.0389
41955W        W50755  21.651   3.742   1.949  0.0513 -0.4993  0.3678
41956W        W50756  22.569   2.080  22.875 -0.0105 -0.0376  0.0874
41957W        W50757  30.844   3.097   0.692  0.2493 -0.0108 -0.1183
41958W        W50758  15.199   4.035  21.478  0.0783 -0.1435 -0.1226
41959W        W50759  15.719   3.107   0.916  0.3988 -0.0175 -0.0622
41960W        W50760  12.357   2.825   3.211 -0.0970  0.1376 -0.0384
41961W        W50761  24.735   6.273   5.487  0.0706  0.0565 -0.3057
41962W        W50762  29.433   2.506   6.281  0.2708 -0.3107  0.0239
41963W        W50763   4.270   0.753  11.296 -0.2989  0.3862  0.1442
41964W        W50764  25.831   1.390  17.939  0.1543  0.0009 -0.1516
41965W        W50765  22.087   1.262   7.301  0.0508  0.1496  0.0375
41966W        W50766   2.887   2.655   9.879 -0.0225 -0.1193 -0.3642
41967W        W50767  16.493   1.307  17.769  0.0292 -0.1313 -0.3471
41968W        W50768   8.757   6.199   4.175 -0.0907  0.1244  0.1851
41969W        W50769  14.390   3.544   7.233 -0.2245 -0.0881 -0.3918
41970W        W50770   8.213   6.112  22.407  0.1871 -0.0579  0.0428
41971W        W50771   0.010   0.866  21.388  0.0240  0.0036 -0.1365
41972W        W50772  12.897   0.492   5.700 -0.4590 -0.1395 -0.0523
41973W        W50773  26.818   0.165   7.946 -0.0073  0.0099  0.2597
41974W        W50774  27.368   0.006   5.924 -0.0605  0.2302 -0.1201
41975W        W50775   7.471   2.779   1.870  0.1301 -0.0639 -0.1551
41976W        W50776  13.782   1.186   7.330  0.1588 -0.5023 -0.1827
41977W        W50777  19.499   6.981   1.831 -0.0243  0.4072  0.2219
41978W        W50778   0.910   3.430  21.866 -0.1152 -0.0535 -0.2010
41979W        W50779  21.640   6.809  26.068  0.1725 -0.1465  0.1950
41980W        W50780  29.172   4.093  20.754  0.0732 -0.0903 -0.4242
41981W        W50781  12.137   5.602  24.441  0.1046 -0.0275 -0.1103
41982W        W50782   8.283   2.059  25.707  0.2444  0.0201  0.1677
41983W        W50783  26.373   2.347  22.041  0.0059  0.0269 -0.1832
41984W        W50784   5.750   0.291  18.162 -0.2729 -0.3846 -0.1602
41985W        W50785  29.680   4.253   0.873  0.0318  0.0875  0.2425
41986W        W50786  27.760   1.217  23.530  0.2106 -0.0495 -0.1454
41987W        W50787   4.370   4.503   7.308 -0.0736  0.1668  0.2516
41988W        W50788   3.393   1.780   7.743 -0.0322 -0.2293 -0.0692
41989W        W50789   0.010   1.437  19.159 -0.2586  0.0203  0.4683
41990W        W50790   4.035   3.454  23.757 -0.0348 -0.2575  0.1367
41991W        W50791   8.567   5.231  20.551  0.1200 -0.0868 -0.2450
41992W        W50792  21.392   1.810   9.113  0.0498  0.0274  0.2176
41993W        W50793  16.187   1.936  16.264 -0.0887 -0.2009 -0.1501
41994W        W50794  23.096   7.087  26.093 -0.2540 -0.0401  0.0023
41995W        W50795   1.234   5.810   3.039  0.3440 -0.3104  0.0381
41996W        W50796  18.216   3.819   1.389 -0.2015  0.0552 -0.2326
41997W        W50797  26.320   6.107  16.021  0.2079 -0.0846 -0.1688
41998W        W50798   1.443   1.487  17.566  0.0463 -0.0420 -0.2139
41999W        W50799   4.272   3.443  22.556 -0.2341  0.2455 -0.1511
42000W        W50800   8.369   1.735  10.008 -0.0135 -0.2348  0.0320
42001W        W50801  13.235   6.135   1.705 -0.0016 -0.0358  0.3945
42002W        W50802  21.243   6.532  23.974 -0.0731  0.3752 -0.0716
42003W        W50803   2.010   2.533  25.875 -0.2211 -0.2493  0.1952
42004W        W50804   3.517   4.965   8.213  0.0929 -0.2431 -0.0285
42005W        W50805  10.658   6.453   4.589 -0.0149 -0.0372  0.0616
42006W        W50806  16.936   2.314   4.214 -0.1753 -0.1975 -0.1425
42007W        W50807  27.162   6.197  23.005  0.2502 -0.1631  0.0191
42008W        W50808   2.475   6.155  16.749 -0.2877  0.0727 -0.1401
42009W        W50809  28.716   1.762   9.195 -0.0260  0.0598  0.0739
42010W        W50810   3.031   7.291   8.081  0.1364 -0.1779  0.0671
42011W        W50811   7.225   6.072  21.042 -0.0729  0.3028  0.4720
42012W        W50812   7.308   7.342   9.596 -0.2421 -0.0879 -0.1080
42013W        W50813  28.593   3.417   1.434  0.0857  0.1184  0.2117
42014W        W50814  27.248   1.658   3.084 -0.3043 -0.3068 -0.0598
42015W        W50815  29.707   1.339  15.886 -0.0463  0.2403  0.0952
42016W        W50816  16.692   4.448   1.026 -0.0683  0.0361  0.0310
42017W        W50817  21.983   6.122   9.068  0.1385  0.0037 -0.0598
42018W        W50818   1.766   2.319  10.615 -0.3063  0.0541 -0.1742
42019W        W50819  14.969   4.406   7.112 -0.0269 -0.0718 -0.1389
42020W        W50820  28.096   3.453  25.714 -0.0789 -0.0292 -0.0439
42021W        W50821  27.894   6.186   1.561 -0.3331  0.1050 -0.0798
42022W        W50822  22.458   7.766  19.479 -0.4040 -0.0529  0.1206
42023W        W50823  12.086   3.366   7.015  0.1241 -0.0025 -0.2983
42024W        W50824   8.698   6.770   3.405  0.1711 -0.4022 -0.1088
42025W        W50825  14.757   2.371  24.688  0.1094  0.2459 -0.1588
42026W        W50826  12.195   5.803  17.424  0.1119  0.1042 -0.1049
42027W        W50827  19.174   4.716   8.076 -0.0094  0.1119  0.0084
42028W        W50828  17.335   1.822   2.786  0.0984  0.1714  0.0109
42029W        W50829  14.297   3.200  17.388 -0.1117  0.3794 -0.3102
42030W        W50830   1.873   1.490  25.157  0.0770 -0.3401 -0.3241
42031W        W50831  13.371   1.378  19.271 -0.1865  0.1169 -0.0069
42032W        W50832  19.538   4.481  18.306 -0.2233  0.1032  0.2693
42033W        W50833   5.849   7.382  20.304  0.0470 -0.3334 -0.1164
42034W        W50834  20.570   6.368  19.252 -0.0896 -0.1357  0.0895
42035W        W50835  19.467   2.136  14.846 -0.1878 -0.2534  0.3612
42036W        W50836  30.670   5.487   3.310  0.0207 -0.0094  0.2853
42037W        W50837  12.496   4.371  17.919 -0.0711 -0.2423 -0.1810
42038W        W50838  25.324   1.186   6.094 -0.1180  0.2775 -0.0241
42039W        W50839   1.739   2.379   7.667 -0.3287 -0.1696 -0.1308
42040W        W50840   6.578   0.220  23.992  0.2481 -0.0799  0.1053
42041W        W50841   3.155   5.948  11.005 -0.1627 -0.1902 -0.5584
42042W        W50842  29.748   7.483   5.419 -0.2240  0.2185  0.0616
42043W        W50843   6.175   6.845  18.222  0.2678 -0.0097 -0.0645
42044W        W50844  11.346   3.505   9.322 -0.0109  0.0762 -0.2446
42045W        W50845  24.216   4.791  25.186  0.0581  0.1265 -0.1385
42046W        W50846  18.184   1.659  16.454 -0.1689 -0.1467  0.1526
42047W        W50847   8.312   2.404  18.293  0.0976  0.0501 -0.0554
42048W        W50848  21.553   4.081  23.363 -0.0593  0.1758  0.2679
42049W        W50849  13.374   7.240  10.772 -0.0994 -0.0481  0.3895
42050W        W50850   7.865   4.549   9.627  0.2944  0.0572  0.0152
42051W        W50851   2.881   0.290  17.412  0.0364  0.0975  0.2237
42052W        W50852  19.300   0.617   2.839  0.1144  0.0089  0.1594
42053W        W50853   6.141   2.737  11.355 -0.0948 -0.3890 -0.1390
42054W        W50854  26.524   2.787   7.579  0.2329  0.3603 -0.0436
42055W        W50855  26.874   5.359  20.967 -0.1234  0.1604 -0.1890
42056W        W50856   8.081   5.516   3.178  0.1478 -0.0528 -0.0104
42057W        W50857  30.644   6.541  21.350 -0.1678  0.0461 -0.1915
42058W        W50858  14.965   5.398   4.896  0.2245 -0.2723 -0.0845
42059W        W50859  21.523   0.681  20.500  0.2227  0.0435 -0.1049
42060W        W50860  17.551   7.253  15.477  0.0588  0.0692  0.4916
42061W        W50861   7.549   4.976  25.217  0.3135  0.1553 -0.0063
42062W        W50862  23.825   6.976   3.698  0.3322 -0.1286 -0.0507
42063W        W50863  21.126   6.987  17.929  0.1831  0.1791  0.0864
42064W        W50864   3.169   6.828   0.203  0.1229  0.0004 -0.1408
42065W        W50865  11.024   5.219  20.309 -0.2072 -0.0026  0.3152
42066W        W50866   8.007   4.311  18.283  0.1413  0.0302 -0.0999
42067W        W50867   9.260   1.915   8.563 -0.1343 -0.1049 -0.0136
42068W        W50868  10.331   6.361   8.696  0.0676 -0.3055 -0.0141
42069W        W50869  19.252   7.139  24.058  0.1375  0.0792 -0.0670
42070W        W50870  15.746   4.670   4.735  0.1307  0.2589  0.0482
42071W        W50871  16.755   7.696  15.423 -0.0470 -0.0894 -0.2448
42072W        W50872  18.167   2.221  23.620  0.0326  0.3538  0.0273
42073W        W50873   2.822   3.394   2.331 -0.0605  0.0199  0.0228
42074W        W50874   3.336   5.260   3.220  0.0916 -0.0440 -0.1861
42075W        W50875   8.897   1.267  24.225  0.0843  0.1421  0.0665
42076W        W50876   5.163   2.187   9.003 -0.5692 -0.0812  0.1413
42077W        W50877  25.876   4.732  16.193  0.1371 -0.0422 -0.1852
42078W        W50878  29.298   3.851  17.721  0.1302  0.0945 -0.0381
42079W        W50879  26.917   6.670  20.280 -0.0410 -0.0588  0.1928
42080W        W50880  15.214   7.507  14.618  0.0422  0.0429 -0.0047
42081W        W50881   8.517   6.277   0.219 -0.2952  0.0711 -0.2558
42082W        W50882   7.791   5.638  24.054 -0.2431  0.0315 -0.0164
42083W        W50883  22.012   6.851   2.194 -0.1507  0.1781  0.1436
42084W        W50884   2.651   1.755  22.203  0.0337  0.0904  0.0671
42085W        W50885  26.275   4.518   9.044 -0.0778 -0.3662  0.0325
42086W        W50886   1.504   2.391  23.424 -0.0936 -0.3971  0.2681
42087W        W50887   2.378   1.324   7.617 -0.2993 -0.0880 -0.0682
42088W        W50888  10.833   6.233   4.150 -0.1353 -0.0104  0.2160
42089W        W50889  25.133   1.528  21.794  0.0269  0.0137 -0.3850
42090W        W50890  19.732   1.477  17.722  0.0069 -0.0168 -0.0546
42091W        W50891  13.905   5.942  17.552 -0.3427 -0.0693  0.3658
42092W        W50892  11.154   2.718  16.528  0.1471 -0.0520  0.1097
42093W        W50893  21.790   2.280  16.050  0.0567  0.0283 -0.0222
42094W        W50894  20.249   3.751   4.117  0.0964 -0.1886  0.0712
42095W        W50895  10.166   7.716  17.893 -0.0637 -0.0018 -0.0189
42096W        W50896  27.044   2.579  18.550 -0.3236 -0.0245  0.1854
42097W        W50897  27.241   2.978  10.410 -0.1103 -0.1745  0.2250
42098W        W50898   4.889   1.356  23.182  0.0152 -0.2954 -0.0819
42099W        W50899  19.588   1.278  20.550 -0.1550 -0.0693 -0.0712
42100W        W50900   8.111   1.845   7.343 -0.1506 -0.0227  0.0205
42101W        W50901  20.639   2.300  18.261  0.3774 -0.3799 -0.0440
42102W        W50902  27.640   3.436   1.966  0.2138  0.0098 -0.0230
42103W        W50903   1.511   1.146  25.991  0.0853  0.2276 -0.1599
42104W        W50904  22.736   1.239   0.972 -0.1191  0.0499 -0.0290
42105W        W50905  11.744   7.430  23.947  0.0391  0.4730 -0.2146
42106W        W50906  22.995   4.739   5.246 -0.0694 -0.1384  0.2422
42107W        W50907  12.351   6.616   9.201  0.1406  0.0217 -0.1685
42108W        W50908   9.369   0.385  23.208 -0.0313 -0.1278 -0.2027
42109W        W50909  22.523   1.549   3.724 -0.2736  0.0522  0.1314
42110W        W50910  24.048   2.117  20.701 -0.5598  0.3896 -0.2527
42111W        W50911  29.470   3.680  21.323 -0.2651  0.2193 -0.2752
42112W        W50912  21.781   5.735  24.733  0.2526  0.0602 -0.1944
42113W        W50913  25.036   2.458   9.246 -0.1136  0.2404  0.1796
42114W        W50914   3.909   4.945   4.983  0.0477  0.0856  0.0716
42115W        W50915  13.620   2.861  10.482 -0.0714 -0.1063  0.1221
42116W        W50916   7.453   5.627  25.657  0.1894 -0.1074 -0.1491
42117W        W50917  16.473   3.944  20.826  0.0459  0.0701  0.0508
42118W        W50918  21.149   4.318  21.088 -0.0815 -0.1540 -0.2969
42119W        W50919   8.473   7.611   8.983  0.3597 -0.1808 -0.1369
42120W        W50920  15.957   1.927  24.512 -0.3291 -0.2826 -0.0037
42121W        W50921  17.311   6.405   3.793  0.1032 -0.1762 -0.0756
42122W        W50922  20.121   7.394   8.662  0.1062  0.1397  0.0160
42123W        W50923  22.734   5.551   1.816  0.2400  0.1773  0.2610
42124W        W50924   8.137   7.666  16.020  0.0237  0.0696  0.2812
42125W        W50925   4.042   3.874   7.968  0.0795 -0.1443  0.0743
42126W        W50926   7.406   1.767  17.843  0.2923  0.1911 -0.1656
42127W        W50927   2.265   1.443   3.586 -0.4324 -0.0228  0.1207
42128W        W50928   8.631   4.886  22.537  0.1191  0.3675  0.0746
42129W        W50929  14.980   7.824   1.587  0.3055 -0.2225  0.1874
42130W        W50930  29.510   0.366  19.039 -0.0281 -0.0965 -0.0986
42131W        W50931  27.689   7.015   8.388  0.1501 -0.0396 -0.1085
42132W        W50932  18.357   5.671   1.257 -0.1707 -0.2607  0.0049
42133W        W50933   9.387   1.161   1.909  0.2724 -0.0007  0.0128
42134W        W50934  28.844   0.383  22.112 -0.3752 -0.1304 -0.3746
42135W        W50935  11.707   0.123  18.596 -0.0995 -0.0958 -0.4748
42136W        W50936   6.072   2.167  19.962 -0.4151 -0.2708 -0.1613
42137W        W50937  27.448   2.279   8.424 -0.0618  0.0327  0.0420
42138W        W50938  20.063   4.122  22.319 -0.0769  0.1114 -0.0440
42139W        W50939   7.609   3.645  20.484 -0.0041 -0.3309  0.0381
42140W        W50940   3.183   0.930   4.358  0.0155 -0.4469 -0.0468
42141W        W50941  20.607   7.713   5.622  0.2598 -0.1094 -0.1251
42142W        W50942  20.785   6.605   3.527  0.0757  0.0949 -0.1632
42143W        W50943  13.396   5.047  17.307  0.0930  0.0010  0.0154
42144W        W50944  16.301   4.496  24.942  0.0696 -0.0539 -0.0809
42145W        W50945  10.003   2.986   1.312 -0.1897 -0.2148 -0.0665
42146W        W50946  28.064   7.798  20.092  0.0859  0.1988 -0.3417
42147W        W50947   6.301   2.743   9.487 -0.1341 -0.2465 -0.2151
42148W        W50948  16.121   2.415   2.526  0.0544  0.1005 -0.1206
42149W        W50949   0.869   4.587   3.918 -0.0807  0.0351  0.4941
42150W        W50950  20.490   4.955  26.054 -0.1704  0.1923  0.1224
42151W        W50951  20.263   6.444   5.184 -0.1673 -0.2187  0.2226
42152W        W50952   8.183   0.249  24.297  0.3056 -0.1611 -0.3678
42153W        W50953  10.202   4.267  16.156  0.3143  0.0876 -0.1375
42154W        W50954  30.399   3.975  21.212  0.0462 -0.2118 -0.0027
42155W        W50955  21.818   3.233  24.041  0.1903  0.2121  0.1040
42156W        W50956  11.026   2.590   3.468 -0.1193  0.2091  0.0791
42157W        W50957  22.840   0.353   5.294  0.0843 -0.3469  0.1042
42158W        W50958   9.940   4.290   9.347  0.2703 -0.0759 -0.1472
42159W        W50959  18.132   4.419  17.337  0.0022 -0.0645  0.2509
42160W        W50960   4.281   0.360  23.497 -0.0255 -0.0104  0.1046
42161W        W50961  15.815   2.622   1.673 -0.1429 -0.1468 -0.1568
42162W        W50962  11.550   4.942   2.388 -0.1285 -0.2941 -0.2237
42163W        W50963  22.189   3.759  15.381  0.1566  0.1474  0.0292
42164W        W50964  12.799   3.542  21.705  0.0776  0.1596  0.1386
42165W        W50965   1.976   4.410  20.418 -0.1772  0.0770  0.0746
42166W        W50966  15.820   6.587   2.105 -0.3496 -0.1764  0.0609
42167W        W50967  26.798   3.729   5.581 -0.1651  0.0317 -0.1815
42168W        W50968  31.075   2.147  14.989  0.2924  0.1541  0.0657
42169W        W50969  13.150   2.629  19.960  0.0100  0.3910 -0.0851
42170W        W50970  23.621   5.923  23.040 -0.0589  0.1079  0.2280
42171W        W50971  18.783   0.010  22.341 -0.1218 -0.2294 -0.1602
42172W        W50972  16.851   5.816   2.164 -0.2638  0.0450 -0.1753
42173W        W50973  14.066   2.458   3.906  0.1842 -0.1304  0.1574
42174W        W50974  18.233   1.418   4.333  0.1593 -0.1893 -0.0556
42175W        W50975   7.582   0.775   4.721  0.1448 -0.1626  0.1917
42176W        W50976  23.291   2.355  23.939  0.1588 -0.0160  0.1386
42177W        W50977  22.375   2.471   8.068 -0.0454 -0.3888 -0.0750
42178W        W50978  19.092   0.543   8.927  0.0067  0.0916 -0.3202
42179W        W50979  29.023   0.915  17.626 -0.3788  0.0460 -0.1677
42180W        W50980   1.034   0.385  18.865 -0.0959 -0.2070 -0.0834
42181W        W50981  15.427   6.122  20.400  0.0680 -0.2336 -0.0588
42182W        W50982  20.205   2.007   8.205  0.2922 -0.0508 -0.1198
42183W        W50983  14.535   3.263   8.905  0.2278  0.1154  0.3719
42184W        W50984   7.322   5.321   2.787  0.1308 -0.0171  0.0768
42185W        W50985  24.722   4.567   7.886  0.0794  0.1641  0.1435
42186W        W50986  11.716   5.356  14.819  0.1512 -0.0029 -0.1494
42187W        W50987  25.170   4.755  23.208 -0.1049 -0.2826  0.2509
42188W        W50988  15.328   5.166   7.572  0.0175 -0.0578  0.0948
42189W        W50989  25.285   0.906   9.472 -0.1728 -0.0503  0.3315
42190W        W50990  22.800   6.444  16.272 -0.0042  0.2621 -0.1668
42191W        W50991  24.324   0.005   2.699  0.2500  0.0812  0.2057
42192W        W50992  25.492   7.231  24.707  0.0602  0.1830  0.1436
42193W        W50993  13.440   0.063   4.516  0.0404 -0.0824 -0.0621
42194W        W50994  17.281   1.356   0.639 -0.0143  0.0891  0.2092
42195W        W50995   3.661   4.899   0.327  0.3045 -0.3710 -0.3029
42196W        W50996  27.876   2.575   8.075 -0.1780  0.3462  0.2529
42197W        W50997   9.678   5.531   1.048 -0.1641  0.1495  0.1867
42198W        W50998   5.287   3.606  17.510 -0.2870 -0.0299  0.1139
42199W        W50999  16.923   6.631  10.593  0.1484 -0.0664 -0.0655
42200W        W51000  30.268   5.638  16.311 -0.3326 -0.1172 -0.1136
42201W        W51001   9.744   6.170  10.066 -0.1333  0.1287  0.1409
42202W        W51002  19.707   7.409  22.880  0.1202  0.0079 -0.2101
42203W        W51003  11.419   1.179  24.857  0.0167  0.3589 -0.0806
42204W        W51004   4.219   6.224  16.341 -0.1887  0.0523 -0.2159
42205W        W51005   5.567   0.358   9.679 -0.0812 -0.1088  0.0467
42206W        W51006  18.247   1.011   0.367  0.0004 -0.1046  0.2412
42207W        W51007  25.963   6.855  24.448  0.0433 -0.0848 -0.2281
42208W        W51008   9.239   5.981   3.365  0.1824  0.0450  0.3227
42209W        W51009  13.882   6.957  22.004  0.0311  0.0881 -0.3996
42210W        W51010  27.970   6.436  21.079  0.1681  0.3280 -0.0250
42211W        W51011  14.963   1.351  18.211  0.0775 -0.2715 -0.1061
42212W        W51012   1.386   5.053  10.074  0.1806 -0.0259 -0.1245
42213W        W51013  18.411   7.554   4.136  0.0774  0.0142 -0.5136
42214W        W51014  21.143   5.641   4.241 -0.1612  0.0267 -0.1371
42215W        W51015  28.045   2.247  15.609  0.1493 -0.0624 -0.2154
42216W        W51016  10.218   0.116  22.741  0.0784  0.2358 -0.3110
42217W        W51017   4.485   5.704  20.528  0.1102  0.0163 -0.0044
42218W        W51018  20.738   1.425   4.804  0.1012  0.1306  0.0120
42219W        W51019  16.059   2.438  25.370  0.0017 -0.0217 -0.0685
42220W        W51020   2.814   2.667  21.809  0.0055  0.1044 -0.0669
42221W        W51021  17.667   2.042  19.675  0.0694 -0.2053  0.2478
42222W        W51022   3.726   4.294  23.937  0.1491 -0.0210  0.0970
42223W        W51023  17.062   4.693  19.110  0.0274  0.1198  0.1889
42224W        W51024   0.404   6.445  25.422  0.1606  0.0193 -0.2945
42225W        W51025   7.291   3.582   9.538  0.0324  0.1059 -0.3506
42226W        W51026  21.906   6.142  19.317 -0.2557  0.0741  0.3705
42227W        W51027  11.911   3.836   1.197  0.3405 -0.0082  0.3589
42228W        W51028  19.719   2.470  10.670  0.1411  0.0508 -0.0725
42229W        W51029  13.754   4.149  10.455  0.3574 -0.1972 -0.0093
42230W        W51030   0.469   1.086   2.734  0.1518  0.1661  0.1361
42231W        W51031  11.490   2.298   9.884  0.2692  0.3956  0.2125
42232W        W51032  17.301   6.412   1.737 -0.0935  0.4869 -0.0429
42233W        W51033  18.565   0.705   9.247  0.0791  0.1119  0.3445
42234W        W51034   6.471   3.424  21.834  0.1317  0.0553  0.1582
42235W        W51035   8.918   3.868  24.750  0.1983 -0.2669  0.1218
42236W        W51036   6.442   5.259  19.610  0.0176  0.0086  0.4318
42237W        W51037   2.748   5.544   9.211 -0.0858  0.1112 -0.1101
42238W        W51038  23.270   2.531  17.517 -0.0346 -0.0126  0.1719
42239W        W51039  20.535   1.667   6.738  0.4969 -0.1110 -0.0646
42240W        W51040  27.730   5.704  18.521 -0.0053  0.0106  0.1638
42241W        W51041   0.314   1.209  18.174 -0.0056  0.1648 -0.2652
42242W        W51042  25.446   7.227   6.993 -0.1083  0.0612 -0.1669
42243W        W51043  10.078   4.121  25.726 -0.0170  0.1253 -0.1987
42244W        W51044  20.355   3.672  16.166 -0.1361 -0.0264  0.0271
42245W        W51045  24.943   3.355  16.813  0.2907 -0.1604 -0.1853
42246W        W51046   9.185   3.061   7.563  0.1749  0.0061  0.0425
42247W        W51047  21.053   2.567  18.161 -0.2022  0.0598 -0.0439
42248W        W51048   1.726   5.673   8.948  0.1316  0.1061  0.3269
42249W        W51049  16.126   1.661  25.824 -0.0223  0.0488  0.0853
42250W        W51050  13.806   2.955   6.826  0.1383  0.0590 -0.1188
42251W        W51051  17.647   6.640  21.839 -0.2671  0.2681  0.1794
42252W        W51052  22.173   0.337   4.162  0.3572 -0.0707 -0.0743
42253W        W51053   9.899   6.764  24.749  0.2054  0.0646  0.1004
42254W        W51054  21.672   0.556  21.411 -0.2897  0.2852  0.1000
42255W        W51055  26.018   2.006  25.846  0.0142 -0.2219  0.2650
42256W        W51056   5.030   7.451   0.620 -0.4206  0.2667  0.0950
42257W        W51057  10.191   2.355   6.158  0.1517  0.1101 -0.0081
42258W        W51058  18.101   7.531   8.348 -0.3132  0.1937  0.2754
42259W        W51059  27.862   5.068  19.300 -0.0481  0.1273 -0.2576
42260W        W51060   6.549   0.949  23.352 -0.3279 -0.1433 -0.0508
42261W        W51061  23.818   7.820   3.411  0.0910  0.1642  0.1566
42262W        W51062   5.690   1.142  22.958  0.0633  0.1251  0.1638
42263W        W51063  28.763   1.912  20.383 -0.2517  0.0117 -0.1807
42264W        W51064   9.188   6.014  22.263 -0.2660  0.4624  0.3068
42265W        W51065  29.191   3.100  21.125  0.0401  0.0819  0.0618
42266W        W51066  13.643   2.107  24.411  0.1435  0.1359  0.2337
42267W        W51067  14.581   0.032  23.795 -0.1238 -0.0471  0.1297
42268W        W51068   5.546   6.362   5.844 -0.0683  0.1991  0.1748
42269W        W51069   9.438   7.307   4.028  0.0802  0.0129 -0.0907
42270W        W51070   0.629   4.082   9.484  0.0583  0.1225  0.1938
42271W        W51071  17.138   7.201   4.428  0.1260 -0.0532 -0.0940
42272W        W51072  20.332   1.118   6.634 -0.2540  0.5008 -0.1643
42273W        W51073   0.812   4.964  22.361  0.1127 -0.1145 -0.0243
42274W        W51074   3.562   2.145  20.227  0.1493 -0.0725  0.0868
42275W        W51075  17.815   7.167   8.174 -0.1131  0.0846 -0.2034
42276W        W51076  19.020   3.890  18.170 -0.1660 -0.2385  0.0330
42277W        W51077  25.906   6.577  10.656  0.2243  0.0513 -0.1440
42278W        W51078  14.980   3.989  25.871 -0.0946 -0.1558  0.0256
42279W        W51079  22.058   5.153  19.595  0.0062  0.0686  0.1587
42280W        W51080   7.755   6.951  16.670 -0.1487 -0.0322  0.1926
42281W        W51081   3.663   3.954   6.717 -0.1147  0.1585 -0.3365
42282W        W51082  23.156   2.839   5.464 -0.0718 -0.3012 -0.0841
42283W        W51083   5.719   4.899  23.754  0.0488  0.0131 -0.0139
42284W        W51084  26.378   7.229  19.107  0.2382  0.2044 -0.0451
42285W        W51085   8.523   0.969  10.538  0.1384 -0.0925  0.0381
42286W        W51086  12.879   6.058   7.238 -0.3093  0.1715 -0.1347
42287W        W51087  23.642   1.569   4.263 -0.0286 -0.1662  0.0933
42288W        W51088   9.646   5.613  23.920 -0.2840 -0.0878  0.1582
42289W        W51089   9.854   7.145  25.545  0.1058 -0.0611 -0.1220
42290W        W51090  11.129   5.751  17.283 -0.3897  0.1448 -0.1168
42291W        W51091   2.302   0.485  24.203 -0.2904  0.1613  0.1405
42292W        W51092   0.797   0.690  25.048 -0.1888 -0.1501  0.0717
42293W        W51093  13.527   0.125   4.035  0.2756  0.0306 -0.2935
42294W        W51094   8.590   7.803  20.129 -0.1677 -0.0708  0.2196
42295W        W51095   6.755   7.246  17.423 -0.0574 -0.0134  0.0334
42296W        W51096  25.826   1.829   3.039  0.1900 -0.1478  0.0041
42297W        W51097  24.110   0.881   5.502  0.0888 -0.0748 -0.1837
42298W        W51098  28.671   4.156  24.599 -0.0402  0.2150  0.0394
42299W        W51099   4.031   5.586   8.295 -0.3152  0.0620  0.0637
42300W        W51100  13.871   4.493  24.594 -0.0006  0.0087  0.3706
42301W        W51101   0.034   3.397   4.802  0.3683 -0.0143  0.0734
42302W        W51102  21.994   1.962  22.108 -0.3368 -0.2490  0.0676
42303W        W51103  17.870   2.731   9.779  0.0767  0.3546 -0.1270
42304W        W51104  12.534   5.275   1.616  0.1901  0.1730 -0.1839
42305W        W51105   4.603   5.047  11.107  0.1598 -0.0524  0.1914
42306W        W51106   3.232   6.904  15.861  0.0451 -0.1763  0.0909
42307W        W51107  22.115   6.470  24.448 -0.3674  0.1363  0.0024
42308W        W51108  12.139   0.310  21.738  0.0064  0.2776  0.2366
42309W        W51109  15.747   2.364   3.931 -0.1239 -0.1084  0.0194
42310W        W51110   9.826   5.375  16.963  0.0960  0.2921 -0.1964
42311W        W51111   5.054   2.912   7.574  0.1363 -0.2845 -0.0761
42312W        W51112  21.689   6.775   4.411  0.0966  0.1609  0.0594
42313W        W51113   8.447   0.483  16.532 -0.0011  0.2702  0.2303
42314W        W51114  29.432   4.651  20.866  0.0215  0.3054  0.1729
42315W        W51115  12.107   6.405   2.765  0.1643  0.1414 -0.1012
42316W        W51116   2.406   0.493   1.824  0.0038  0.0764 -0.1726
42317W        W51117  25.938   0.350  24.285  0.0272  0.3120  0.3873
42318W        W51118   6.846   6.688  11.006  0.2932  0.0795 -0.2149
42319W        W51119  20.203   4.355   9.723  0.1003 -0.4482 -0.4572
42320W        W51120  14.602   5.778   8.827  0.1365 -0.0751 -0.2192
42321W        W51121  22.606   5.098   7.568 -0.3597 -0.1191 -0.2548
42322W        W51122  17.076   3.615  17.650  0.0198  0.1332  0.0449
42323W        W51123  24.301   2.593  24.832 -0.2936  0.1452 -0.0300
42324W        W51124   6.474   0.078   0.709 -0.0731 -0.5426 -0.1341
42325W        W51125  19.364   5.179   8.330  0.1348 -0.4349 -0.0902
42326W        W51126   6.294   4.008   9.264  0.1191 -0.0470 -0.1185
42327W        W51127  18.451   2.236  21.579  0.0729  0.0953  0.1786
42328W        W51128  26.417   5.820  15.285  0.1973 -0.1578 -0.2081
42329W        W51129  19.523   6.485  17.976 -0.2238  0.0797  0.1367
42330W        W51130  29.223   3.831  23.365  0.1906 -0.1955  0.1412
42331W        W51131  18.785   1.608   7.698  0.0783  0.1413  0.1714
42332W        W51132  28.420   7.577  24.294 -0.0794 -0.1254 -0.0355
42333W        W51133   4.756   4.249   7.120 -0.1485 -0.1930  0.3020
42334W        W51134   1.257   0.961   9.080 -0.1133  0.1051  0.2382
42335W        W51135  16.050   7.819  15.826  0.3095  0.0804  0.1258
42336W        W51136  11.933   6.338  17.517  0.0134 -0.0832  0.0100
42337W        W51137   3.938   3.839   4.165 -0.1185  0.0482  0.0474
42338W        W51138  18.433   4.174  19.984  0.1408 -0.3723  0.2758
42339W        W51139  27.104   4.577  17.099  0.1358  0.0445 -0.2536
42340W        W51140  22.556   2.031  17.633  0.2332 -0.0420  0.0084
42341W        W51141  14.853   1.804  17.841 -0.1551  0.2138  0.0306
42342W        W51142  18.130   1.607  17.960  0.0767 -0.2125  0.1370
42343W        W51143  21.448   5.327   9.751  0.3756 -0.1128 -0.0808
42344W        W51144  21.797   5.221  24.772 -0.1301 -0.1409 -0.0353
42345W        W51145   7.536   6.658   5.975 -0.2223 -0.2096 -0.0535
42346W        W51146  19.763   6.489  22.283  0.0098 -0.1503  0.0998
42347W        W51147  18.739   7.418  18.383  0.0337 -0.1660 -0.2461
42348W        W51148  27.104   6.635  24.939 -0.2479 -0.1044 -0.1660
42349W        W51149   5.790   3.984  23.601 -0.0480 -0.1198 -0.0867
42350W        W51150  16.685   2.795   1.853  0.1727  0.0604  0.1819
42351W        W51151   3.941   5.393   9.532 -0.0233 -0.0064 -0.0427
42352W        W51152  20.272   1.676   8.852 -0.4061 -0.3013 -0.0001
42353W        W51153  21.374   5.073   6.828  0.1713  0.0988 -0.2247
42354W        W51154  20.789   5.442  16.779  0.1390 -0.0236  0.3597
42355W        W51155  20.432   5.902  19.296  0.0168  0.0669  0.2344
42356W        W51156   5.413   2.578  24.138 -0.0296 -0.0330 -0.0219
42357W        W51157  29.669   3.408  19.564 -0.1002 -0.0990 -0.1445
42358W        W51158  11.586   2.240  19.177  0.1103  0.1533 -0.1239
42359W        W51159   8.055   5.544   6.800 -0.2664 -0.1948 -0.1986
42360W        W51160  22.022   2.275  21.352  0.0001  0.1719 -0.0837
42361W        W51161  17.973   1.696   1.524  0.0978  0.5245 -0.0672
42362W        W51162  11.714   5.849  21.804  0.0045  0.0307 -0.0683
42363W        W51163  17.826   6.500   1.655 -0.0024 -0.0845 -0.1093
42364W        W51164   5.441   1.367   8.547 -0.2277 -0.4023 -0.2658
42365W        W51165   7.844   2.970   4.746  0.0730  0.1615  0.1672
42366W        W51166  29.498   5.199   5.923  0.1143 -0.0507  0.0739
42367W        W51167   6.876   3.766  25.782 -0.1353 -0.1844 -0.2792
42368W        W51168  12.087   6.765  23.176  0.0755 -0.3727 -0.0848
42369W        W51169  24.956   6.855   8.868 -0.0203  0.0505 -0.1756
42370W        W51170  18.601   1.761  21.487  0.3684  0.2022  0.0036
42371W        W51171  27.247   0.456   6.164 -0.2131 -0.0115  0.1498
42372W        W51172   3.817   6.792  10.115 -0.1009  0.0489  0.0959
42373W        W51173  20.336   0.561   2.528 -0.0050 -0.2897  0.0394
42374W        W51174   8.002   5.322   6.396  0.1957  0.0801 -0.2462
42375W        W51175   1.117   6.183   4.867 -0.1647 -0.1598 -0.1564
42376W        W51176   8.050   3.649   5.435  0.0008 -0.0096  0.0337
42377W        W51177  19.203   0.847   4.176  0.0842  0.0927  0.2928
42378W        W51178  15.018   7.606  18.390  0.1072 -0.2182 -0.3413
42379W        W51179  24.708   5.664   3.503 -0.1271  0.1094  0.0360
42380W        W51180  19.831   2.197  21.815  0.1915 -0.1283  0.1231
42381W        W51181  19.493   3.454  20.940 -0.1510  0.2452  0.1435
42382W        W51182   3.405   3.384   5.968  0.0723 -0.0027  0.1746
42383W        W51183   6.953   3.552  23.140  0.0860 -0.0771 -0.3605
42384W        W51184  19.013   0.053  18.170 -0.1096  0.2381 -0.1725
42385W        W51185  20.000   3.161  22.652 -0.1589 -0.1413  0.0332
42386W        W51186   6.713   6.668   5.646  0.1621 -0.1481  0.0295
42387W        W51187   8.077   1.660  14.851  0.0484 -0.0618  0.0047
42388W        W51188   5.284   3.023  22.779 -0.1697  0.0663  0.0171
42389W        W51189  27.683   5.342  24.813 -0.1245  0.1925  0.3711
42390W        W51190   6.433   0.190  11.470  0.0154 -0.0338  0.0570
42391W        W51191  27.518   7.620   1.790  0.4300 -0.0345 -0.1139
42392W        W51192  24.409   3.446  18.989 -0.2389  0.0865  0.0045
42393W        W51193  27.771   1.624  23.093 -0.0712 -0.0828 -0.1188
42394W        W51194  23.970   5.011   8.944 -0.2365 -0.0764 -0.0635
42395W        W51195  30.030   1.146  25.770 -0.1770 -0.0513 -0.4306
42396W        W51196  27.524   5.963  19.103  0.1725  0.1501 -0.2982
42397W        W51197   8.790   7.528   1.325  0.0182 -0.4685  0.4485
42398W        W51198   3.831   4.062   9.858 -0.1411  0.0976  0.2535
42399W        W51199  12.144   7.039  22.582 -0.2086 -0.1398 -0.1866
42400W        W51200   8.572   1.911  18.633  0.0352  0.2856 -0.0597
42401W        W51201  13.207   4.236  11.290  0.2084  0.1970 -0.0571
42402W        W51202   4.132   4.585  25.103  0.2871 -0.1871 -0.1655
42403W        W51203  17.689   4.212  16.648 -0.3528 -0.2705 -0.0342
42404W        W51204   9.894   0.117   9.858 -0.0683 -0.1433 -0.1149
42405W        W51205  21.329   3.863   1.580 -0.5589 -0.1056 -0.4015
42406W        W51206   8.590   2.051   5.533 -0.2245 -0.1360  0.2608
42407W        W51207  21.643   5.606  18.027  0.0513  0.1378  0.2331
42408W        W51208  18.617   2.816  19.456 -0.1446  0.2185  0.2615
42409W        W51209  26.365   3.457   1.191  0.0277 -0.0365  0.0974
42410W        W51210   1.893   4.706  15.243 -0.1716  0.0566  0.1078
42411W        W51211   0.723   1.059  25.514 -0.2528 -0.2034 -0.2758
42412W        W51212  25.312   7.034   2.445  0.4275  0.0966  0.0868
42413W        W51213  18.643   1.008   8.755 -0.0858 -0.0503  0.1324
42414W        W51214  16.176   4.541   2.167  0.1963 -0.1502  0.3391
42415W        W51215  27.490   1.548   9.449 -0.0875 -0.0064 -0.0100
42416W        W51216  14.186   2.361   8.495  0.1275 -0.2845 -0.2363
42417W        W51217   9.549   2.247  23.574 -0.1253 -0.2915  0.0049
42418W        W51218  28.143   2.832   5.717  0.0293 -0.0778  0.2369
42419W        W51219   9.220   0.097  18.830 -0.1439 -0.1785  0.2227
42420W        W51220  30.764   0.483  10.083 -0.1164  0.0688 -0.0042
42421W        W51221   3.038   0.191   8.846 -0.2117 -0.0302  0.0854
42422W        W51222  18.561   2.595   1.657 -0.1597 -0.0447  0.0456
42423W        W51223  22.314   4.717  16.300 -0.0162 -0.0971 -0.0541
42424W        W51224  26.429   2.048  26.117 -0.1849 -0.2747  0.0226
42425W        W51225   7.766   1.815  16.096 -0.2831 -0.2322  0.0097
42426W        W51226  19.183   0.947   6.211 -0.0631  0.1054 -0.0885
42427W        W51227  16.613   6.155   4.080  0.1926  0.1026  0.3223
42428W        W51228  16.332   6.191  24.600 -0.1231  0.0717  0.1473
42429W        W51229   0.526   6.109   9.934  0.1171 -0.0279 -0.2502
42430W        W51230  18.440   3.087  17.684 -0.1608 -0.1982 -0.0662
42431W        W51231   8.587   1.659   2.147 -0.3375  0.3170  0.0366
42432W        W51232  24.625   5.044   8.350  0.0751 -0.3293 -0.0612
42433W        W51233  29.328   6.329   4.236 -0.4703 -0.2721 -0.3359
42434W        W51234   0.539   5.085   7.376 -0.1494 -0.2820 -0.0453
42435W        W51235  24.814   5.101  16.657  0.1151 -0.2844 -0.0692
42436W        W51236  16.619   1.140   9.871  0.1484 -0.3458  0.2457
42437W        W51237  17.852   7.128  23.425  0.0277 -0.0834 -0.0910
42438W        W51238  16.190   7.588  22.791 -0.1280  0.1704  0.0036
42439W        W51239   9.199   7.165   7.615  0.0735 -0.1823 -0.0425
42440W        W51240  11.162   1.758  17.593 -0.1180  0.0734  0.1862
42441W        W51241   9.530   5.067  20.228  0.2386 -0.0563  0.1730
42442W        W51242  22.318   6.930   4.938 -0.2044 -0.0555  0.1361
42443W        W51243   2.415   7.463  25.546 -0.0532 -0.0079 -0.2058
42444W        W51244  27.623   4.314  20.065  0.0830  0.1921 -0.0435
42445W        W51245  10.234   0.099  21.761  0.2022  0.1072  0.3226
42446W        W51246  27.436   0.703   7.259 -0.0682  0.2401 -0.0559
42447W        W51247  15.550   3.553  15.029 -0.2054 -0.2779 -0.0014
42448W        W51248  19.990   3.428   9.369  0.1655 -0.0891 -0.0102
42449W        W51249  25.084   4.700   0.394  0.1137 -0.1612 -0.0143
42450W        W51250  21.538   4.616  20.798  0.0434 -0.0780  0.0719
42451W        W51251  27.870   2.261  24.481  0.0262 -0.3096  0.0544
42452W        W51252   3.822   0.637  16.243  0.0707  0.1283  0.1493
42453W        W51253  30.161   6.119  16.347  0.3161 -0.2558 -0.1617
42454W        W51254  24.068   7.037  23.331  0.0596  0.0237 -0.2930
42455W        W51255  27.693   1.788  25.322 -0.1659  0.2131  0.1635
42456W        W51256   1.424   6.461  23.298 -0.0089  0.0861  0.1894
42457W        W51257  27.012   7.365  25.845 -0.1443 -0.2598 -0.0274
42458W        W51258  16.894   7.282   2.073 -0.0439 -0.3746  0.0947
42459W        W51259  25.676   0.907   3.590  0.2127 -0.0830  0.1411
42460W        W51260  25.397   0.095   8.903 -0.0046  0.0690  0.2331
42461W        W51261  11.183   4.497  22.364 -0.2561  0.0465  0.1417
42462W        W51262  10.940   0.609   3.837 -0.0241  0.2117 -0.0868
42463W        W51263  16.361   1.437   6.882 -0.0640  0.2065  0.0150
42464W        W51264   7.637   5.792   6.911  0.0271  0.1561 -0.0923
42465W        W51265   9.291   7.390  20.005 -0.2313  0.0389 -0.1677
42466W        W51266   5.496   3.240  20.387  0.2891 -0.1755 -0.1090
42467W        W51267  15.030   6.843   4.580  0.0508 -0.4172  0.1441
42468W        W51268  27.584   0.373   2.680  0.2072 -0.0310 -0.0742
42469W        W51269   6.899   4.217   7.037  0.1778  0.3799 -0.0757
42470W        W51270   4.185   0.813  10.809  0.2101  0.1631  0.2956
42471W        W51271  21.294   3.903  22.946  0.1090  0.0129 -0.0350
42472W        W51272   7.871   1.362  25.728  0.2917  0.2271  0.0747
42473W        W51273  30.585   7.320  22.345 -0.0580 -0.0574 -0.0240
42474W        W51274  16.144   2.311   1.347 -0.1352 -0.0518  0.0098
42475W        W51275   0.316   4.494  15.115  0.5029  0.0921  0.1400
42476W        W51276  16.891   4.921   5.569  0.0849  0.0898 -0.0431
42477W        W51277   9.066   0.792   2.012  0.1059 -0.2947  0.2969
42478W        W51278  27.507   5.492  14.968 -0.2810 -0.1482 -0.1349
42479W        W51279  24.753   0.644   8.848  0.0895 -0.0097 -0.2753
42480W        W51280  13.114   3.969   9.751 -0.1498  0.1213 -0.0205
42481W        W51281   8.852   4.500  16.953 -0.0765 -0.0406 -0.1488
42482W        W51282   0.493   0.079   7.693 -0.0472  0.0764 -0.0787
42483W        W51283   4.528   3.119  20.584  0.0709 -0.3442 -0.0848
42484W        W51284  12.088   3.353  20.762 -0.0160 -0.1750  0.3629
42485W        W51285  21.050   0.438  19.483 -0.1716 -0.0609  0.1334
42486W        W51286  14.183   2.267  24.345 -0.0786  0.1405 -0.0524
42487W        W51287   8.022   3.611  25.040 -0.0044 -0.1638  0.1708
42488W        W51288  25.267   2.656  21.421  0.0058  0.1198 -0.0645
42489W        W51289  10.705   0.198   1.009 -0.1889  0.0540  0.1588
42490W        W51290   6.758   1.242  10.285  0.3956 -0.3466 -0.0616
42491W        W51291  30.703   2.761  22.551  0.2713 -0.1015 -0.3690
42492W        W51292  24.795   0.366   3.587  0.1599 -0.0501  0.1174
42493W        W51293   2.271   6.173  23.246 -0.0051  0.2975  0.2139
42494W        W51294   4.679   5.500   0.655  0.2580 -0.4338  0.0157
42495W        W51295   9.745   3.864   9.815  0.1378  0.0779 -0.2095
42496W        W51296  17.618   0.922  23.311 -0.1759 -0.2850 -0.0372
42497W        W51297   3.815   5.003  16.789 -0.0164 -0.1157  0.1374
42498W        W51298  13.721   0.997  22.402  0.0982  0.3636 -0.1504
42499W        W51299  21.432   1.796  18.701  0.4226 -0.0217  0.0517
42500W        W51300  25.759   1.720   1.251  0.0133  0.0231 -0.0271
42501W        W51301   5.559   6.686   0.251 -0.2783  0.1606  0.2944
42502W        W51302  24.880   5.612  14.646  0.2365 -0.0856  0.1231
42503W        W51303  14.794   0.336   8.031  0.1898  0.2839  0.1211
42504W        W51304  12.367   2.537   8.625 -0.1694  0.2112  0.1112
42505W        W51305   9.993   6.346   6.414  0.0081 -0.0689  0.0857
42506W        W51306   4.289   2.283   4.509 -0.2313  0.0790 -0.1123
42507W        W51307  20.627   3.731  17.731  0.1739  0.0554  0.3140
42508W        W51308  30.178   6.467  17.642  0.0581 -0.0005 -0.0016
42509W        W51309  17.950   6.986  14.644 -0.1862 -0.2803 -0.0979
42510W        W51310  22.115   6.912   5.459 -0.0955  0.1794 -0.0380
42511W        W51311  29.855   7.419   9.390  0.2104 -0.1570  0.1307
42512W        W51312  19.382   6.700  21.944  0.0681 -0.0509 -0.1410
42513W        W51313   0.700   6.757   2.912 -0.2220  0.0963  0.1000
42514W        W51314  30.008   4.859  10.526 -0.1756  0.3223 -0.1384
42515W        W51315  14.499   1.417   3.137  0.1601  0.3840  0.0934
42516W        W51316   4.737   5.235   1.733 -0.2301  0.0908  0.1089
42517W        W51317   3.447   6.188   3.439  0.1944  0.0325 -0.0710
42518W        W51318  13.011   3.272  23.629  0.0215  0.0584 -0.0132
42519W        W51319  23.776   1.883  20.104  0.0218  0.0444  0.0326
42520W        W51320  13.653   4.704   6.710  0.0713 -0.1536 -0.0517
42521W        W51321  11.347   1.752  22.762  0.1081 -0.1149  0.1489
42522W        W51322  20.932   4.163  20.353 -0.0544  0.0451 -0.1825
42523W        W51323   2.439   6.943  22.456  0.0936  0.0416 -0.2782
42524W        W51324   8.532   3.256   3.077  0.2080 -0.0392 -0.0590
42525W        W51325  13.132   5.342  20.776 -0.2368  0.0093  0.0769
42526W        W51326   7.478   5.588  18.235  0.0308 -0.0875 -0.1110
42527W        W51327  14.641   1.268  23.229 -0.0400  0.1763 -0.1019
42528W        W51328   1.196   1.909  10.025  0.1019  0.2182  0.0066
42529W        W51329  15.373   0.881   7.648 -0.3232  0.1578 -0.0346
42530W        W51330   1.209   6.944   8.358  0.2155 -0.0198  0.0440
42531W        W51331  24.176   7.544  20.393 -0.4017  0.2197 -0.2560
42532W        W51332  16.952   5.517   5.944 -0.2783 -0.0465  0.0078
42533W        W51333  15.547   2.618  21.742  0.1888 -0.0127  0.0713
42534W        W51334  12.093   5.088  20.822 -0.2158  0.1611 -0.0486
42535W        W51335   2.357   2.938  20.222  0.0373 -0.0739 -0.1948
42536W        W51336  18.605   5.512   8.286  0.1674  0.1237 -0.1116
42537W        W51337  14.127   4.373  19.867  0.0760  0.1215  0.3145
42538W        W51338  16.268   1.981   9.215 -0.0681  0.2915 -0.0232
42539W        W51339  28.353   5.388  22.919  0.0907 -0.1131  0.1973
42540W        W51340   0.185   3.940  24.456  0.1821  0.3553  0.2040
42541W        W51341  24.407   2.310   4.455  0.1785  0.1092  0.1608
42542W        W51342  14.477   1.061   5.345  0.0532  0.0094 -0.1027
42543W        W51343   7.499   0.582   4.276  0.0731 -0.2087  0.2266
42544W        W51344  22.882   4.954   6.381  0.0678  0.0325  0.2553
42545W        W51345  18.240   5.965  19.441 -0.1138 -0.2045  0.3061
42546W        W51346  10.090   6.147  15.778  0.0100  0.0971 -0.1618
42547W        W51347   0.667   5.639   9.683  0.0928  0.0138 -0.0403
42548W        W51348  26.761   0.823   0.589  0.4104 -0.1318  0.0527
42549W        W51349  17.458   0.571   7.496  0.2778 -0.3072 -0.2236
42550W        W51350  23.864   4.562  11.403  0.1293  0.1863  0.0088
42551W        W51351  25.687   3.534  15.776  0.0735  0.4347 -0.0638
42552W        W51352  12.296   6.310  24.113 -0.0848  0.0058 -0.1110
42553W        W51353  13.267   2.445   3.091  0.1247 -0.0503 -0.1698
42554W        W51354   9.310   4.656  20.493  0.1022  0.1318  0.0548
42555W        W51355  13.049   7.263  14.702 -0.0409 -0.2684  0.0817
42556W        W51356  10.060   4.810   7.720 -0.2066 -0.2568  0.3603
42557W        W51357  17.662   0.346  16.370 -0.2561  0.0049  0.1830
42558W        W51358   7.638   3.791   5.128  0.1336  0.0385  0.1033
42559W        W51359  25.102   2.138   7.833 -0.0526 -0.2695  0.0040
42560W        W51360  19.550   6.719  24.184 -0.0207  0.0810 -0.0011
42561W        W51361   5.828   1.047  10.707 -0.0376 -0.0038 -0.1439
42562W        W51362   8.010   0.803   5.084 -0.2156 -0.2865  0.0457
42563W        W51363  26.691   1.456   2.004  0.3511  0.4514  0.0454
42564W        W51364  31.256   0.993  24.991 -0.0892 -0.0151 -0.0949
42565W        W51365   6.699   6.458   7.738  0.0078 -0.1629 -0.0271
42566W        W51366   6.988   4.064   2.375 -0.0701 -0.0731 -0.0854
42567W        W51367  13.057   1.128  19.556  0.1155 -0.0900  0.0388
42568W        W51368   5.395   0.275   8.036  0.0219  0.2532  0.1461
42569W        W51369   3.261   5.777  18.446 -0.0359 -0.0577 -0.0255
42570W        W51370   6.564   0.720  25.882 -0.1655 -0.3054  0.2213
42571W        W51371  23.065   2.557   6.292  0.0326 -0.0193 -0.0833
42572W        W51372  27.070   2.296   9.718 -0.1852 -0.0997 -0.0470
42573W        W51373  14.804   2.354   9.852 -0.5061 -0.1135  0.1829
42574W        W51374  26.750   5.071  20.544  0.0068  0.1612  0.2989
42575W        W51375  17.211   6.140   6.794  0.0992 -0.1188 -0.0305
42576W        W51376   3.242   3.229  25.813  0.1844  0.1614 -0.3535
42577W        W51377   0.723   5.444  19.450 -0.1833 -0.1212  0.2547
42578W        W51378  12.986   5.471   3.586  0.1157 -0.0546  0.0880
42579W        W51379  21.211   5.286  22.869 -0.0893  0.1692 -0.0264
42580W        W51380  13.316   1.187  17.271  0.1727  0.1362  0.0715
42581W        W51381   1.374   7.689   7.320 -0.1175 -0.3148  0.4008
42582W        W51382   3.506   6.981   1.092  0.0012 -0.1492 -0.0028
42583W        W51383  14.169   1.821  15.384 -0.2626 -0.2473  0.1588
42584W        W51384  30.720   0.954   5.323  0.3055 -0.0696  0.1589
42585W        W51385  25.423   2.584   9.617 -0.0467  0.1794  0.0249
42586W        W51386  23.086   4.983  25.220  0.0153 -0.0051  0.0590
42587W        W51387  25.554   4.654  24.261  0.3646 -0.0972  0.1804
42588W        W51388   1.694   6.354  20.821 -0.2139  0.3472  0.0371
42589W        W51389  13.800   3.084  17.185 -0.2241 -0.2043  0.2266
42590W        W51390  10.156   6.638  24.256  0.1807  0.1291 -0.3168
42591W        W51391   6.779   0.683  22.240 -0.0265  0.1172  0.0538
42592W        W51392  29.525   2.454  25.200  0.1014  0.0565  0.0754
42593W        W51393  11.065   0.511  19.001  0.1727  0.0483 -0.1524
42594W        W51394  18.262   4.552  15.865  0.0623  0.1548  0.0816
42595W        W51395   3.934   1.459  24.153 -0.0503  0.0405  0.3307
42596W        W51396   5.551   4.010   8.916  0.2292  0.0664  0.0605
42597W        W51397  15.900   2.616  16.802 -0.1062 -0.0442  0.0646
42598W        W51398  17.161   1.786  22.881  0.2927 -0.2118  0.1312
42599W        W51399  17.477   2.272   3.398  0.1128  0.1927  0.1261
42600W        W51400   6.604   4.150  23.881 -0.0446 -0.2267  0.2661
42601W        W51401  12.265   0.779   2.512  0.0911  0.2192  0.2013
42602W        W51402  18.634   2.549   2.213  0.1559  0.0584  0.1766
42603W        W51403  16.068   4.658  25.397 -0.1430  0.0077  0.0166
42604W        W51404   7.070   4.765  15.778  0.2952  0.0906 -0.1202
42605W        W51405  19.948   4.537  10.380  0.1637  0.1322 -0.1972
42606W        W51406   6.289   4.791   5.972 -0.0403 -0.0037  0.1592
42607W        W51407  22.027   7.163  16.859 -0.2267  0.0391  0.0791
42608W        W51408  19.823   5.978  25.219 -0.0060  0.2668  0.0496
42609W        W51409  29.621   4.822  17.755 -0.0886  0.1721 -0.0111
42610W        W51410  25.668   7.377  11.288 -0.0102  0.2774 -0.3141
42611W        W51411   0.826   0.551   1.386  0.0958  0.0727  0.1615
42612W        W51412  30.909   4.920   0.041  0.1219  0.0886 -0.2110
42613W        W51413  23.189   2.404   5.729  0.1198 -0.2900 -0.2697
42614W        W51414  20.432   7.464   9.683  0.2762  0.0783  0.1118
42615W        W51415  28.917   6.174  17.947  0.3618 -0.1408  0.1485
42616W        W51416  16.127   0.496  21.942 -0.0488  0.0872 -0.1166
42617W        W51417   1.371   7.035   2.175 -0.1836  0.0907  0.0845
42618W        W51418  28.925   7.570   8.756 -0.0671  0.1312 -0.2751
42619W        W51419  24.321   2.430  21.004 -0.0813  0.0602  0.0062
42620W        W51420  18.012   4.227  22.069  0.0681  0.1756 -0.0576
42621W        W51421  18.516   3.147   1.844  0.1505 -0.1024  0.1388
42622W        W51422  18.437   2.683  26.096  0.1722  0.1683 -0.0554
42623W        W51423   6.584   6.075   8.321 -0.3679 -0.0321 -0.1626
42624W        W51424  11.398   2.294  16.415 -0.2718  0.0226  0.0416
42625W        W51425   5.993   5.405  15.214 -0.0743 -0.1383  0.0123
42626W        W51426  23.188   7.216  14.490  0.3640 -0.1515  0.5623
42627W        W51427  27.940   4.294  20.488  0.1944  0.2202 -0.0929
42628W        W51428  19.419   2.617  24.730 -0.0463 -0.1551 -0.0396
42629W        W51429  23.379   0.983   6.839  0.0690  0.1104  0.2081
42630W        W51430   8.823   7.058  22.027 -0.2149  0.1172 -0.1588
42631W        W51431   3.227   6.476   0.697  0.0444  0.1773  0.1037
42632W        W51432   0.409   2.120  21.029  0.3310 -0.1143 -0.1314
42633W        W51433  18.693   0.435  25.510  0.4400  0.1420  0.1572
42634W        W51434  16.579   1.395  18.603 -0.0871  0.1666 -0.3321
42635W        W51435  24.573   6.804   5.657 -0.1057 -0.0094  0.2482
42636W        W51436  30.646   2.846   3.699 -0.1893  0.0882 -0.0776
42637W        W51437  23.326   4.296   1.883  0.1330  0.0683 -0.2044
42638W        W51438  14.330   7.804   9.616 -0.0126 -0.1117  0.0402
42639W        W51439  17.430   3.916  22.181 -0.0993  0.0942 -0.1026
42640W        W51440  30.799   2.053   8.338 -0.1056  0.2595 -0.0183
42641W        W51441  15.577   3.294  23.137  0.3445 -0.3917 -0.1530
42642W        W51442  28.959   7.087  18.325  0.0151 -0.1733 -0.0684
42643W        W51443   8.675   3.732  21.438 -0.0700 -0.1562  0.0911
42644W        W51444  16.386   7.488  21.640 -0.0617  0.3761 -0.2757
42645W        W51445  18.452   3.712  19.712  0.0153 -0.0162 -0.1553
42646W        W51446  24.841   6.564  10.521 -0.0911 -0.0018 -0.1658
42647W        W51447  13.929   3.060  19.729  0.0277  0.0526 -0.2182
42648W        W51448  28.431   3.765   1.724 -0.0987 -0.2047 -0.0334
42649W        W51449  16.799   4.954   7.002  0.4214 -0.2194  0.2010
42650W        W51450  27.911   3.255  14.855 -0.1409  0.1061 -0.0591
42651W        W51451  24.734   0.303  20.262  0.2511  0.1599  0.5551
42652W        W51452  30.424   0.208  25.472 -0.1677 -0.3786 -0.2062
42653W        W51453  21.140   4.978  21.109  0.3055  0.1977 -0.1439
42654W        W51454   1.754   2.038  10.091  0.2720  0.1443 -0.3170
42655W        W51455  17.944   7.619   3.519  0.4635  0.1849 -0.1072
42656W        W51456   8.543   4.080   3.403 -0.0491  0.3061 -0.0604
42657W        W51457  21.196   3.541   6.576 -0.1250  0.2471  0.0765
42658W        W51458  16.656   3.817  16.845 -0.0493 -0.1651 -0.1533
42659W        W51459  20.094   4.879  17.086 -0.1397  0.1505 -0.2071
42660W        W51460  20.332   2.194   6.711  0.0498  0.1762  0.0890
42661W        W51461  11.792   5.017  21.457  0.1375 -0.0128 -0.0038
42662W        W51462  17.610   4.753  20.567  0.1957  0.0098 -0.0163
42663W        W51463   9.786   7.509  10.355  0.0594 -0.1421  0.1744
42664W        W51464  26.959   3.512   1.427  0.1619 -0.0973  0.0833
42665W        W51465  22.953   2.308   6.801 -0.1467  0.0209  0.3516
42666W        W51466   6.870   1.039   6.244 -0.1553 -0.1415  0.0544
42667W        W51467   1.539   5.578  25.566 -0.0073 -0.0133 -0.2123
42668W        W51468  25.654   4.170   0.066  0.0220 -0.0037  0.1379
42669W        W51469   2.888   7.228   3.660  0.0092 -0.0731 -0.0072
42670W        W51470  30.567   6.223  22.427 -0.1180  0.2626  0.0979
42671W        W51471  12.688   7.566  15.676  0.0667 -0.2507  0.0400
42672W        W51472  29.342   7.147  20.271  0.4186 -0.0455  0.0239
42673W        W51473   8.456   6.717  22.181  0.2379  0.0689  0.0113
42674W        W51474  10.765   3.908  19.389  0.0453 -0.0602 -0.0534
42675W        W51475  14.538   2.261   3.665 -0.0181 -0.1269 -0.1617
42676W        W51476  24.630   3.075   1.098 -0.1623 -0.1413  0.3112
42677W        W51477  30.027   1.945   0.717 -0.0883 -0.1283 -0.1473
42678W        W51478  21.524   2.121   8.738 -0.1149  0.4145 -0.0144
42679W        W51479  19.747   3.203   7.396  0.2218 -0.2995  0.0914
42680W        W51480   6.591   2.575  10.386  0.1423  0.0720  0.5652
42681W        W51481   4.794   5.833   1.883 -0.1260  0.1612  0.1307
42682W        W51482  20.024   4.474   7.840  0.1921  0.0035  0.1782
42683W        W51483  19.558   5.329  25.280  0.2756 -0.0282 -0.3431
42684W        W51484  17.346   5.147  22.924 -0.0612 -0.0114 -0.1131
42685W        W51485  30.216   3.005   1.590 -0.0420  0.0620 -0.1406
42686W        W51486   7.384   0.611  22.286  0.0850 -0.0851  0.2105
42687W        W51487   2.752   1.438  21.053  0.1091  0.2272  0.1823
42688W        W51488   4.107   2.378  17.583  0.2108  0.1583 -0.0859
42689W        W51489  26.072   0.951  23.038  0.1103  0.0165 -0.2683
42690W        W51490  17.189   3.714   2.821 -0.0504  0.0702 -0.1255
42691W        W51491   8.394   2.374  25.359  0.1373 -0.0356 -0.1533
42692W        W51492  13.137   4.920   9.456  0.3018 -0.2489 -0.3756
42693W        W51493  29.458   4.698  23.575 -0.3970 -0.2229  0.1299
42694W        W51494  28.552   4.230   9.248 -0.1853  0.0994 -0.1248
42695W        W51495   4.544   5.227   6.406 -0.5558  0.1291  0.0486
42696W        W51496  13.021   7.631   5.332 -0.0151 -0.0070 -0.2229
42697W        W51497  20.142   4.144  21.450  0.0735  0.0258 -0.0836
42698W        W51498  13.202   4.561   1.685 -0.1249 -0.0759 -0.0255
42699W        W51499  25.446   6.443   5.206  0.0217  0.2306 -0.0230
42700W        W51500  15.723   3.662   2.167 -0.4272 -0.1056  0.0030
42701W        W51501   5.697   6.158   6.766 -0.5184  0.0100  0.0968
42702W        W51502  22.489   2.716   2.147  0.0153 -0.0560 -0.0554
42703W        W51503  11.163   7.724  19.022 -0.2315  0.0505 -0.3040
42704W        W51504  22.747   6.559  17.769 -0.2245  0.2029 -0.0783
42705W        W51505  26.223   4.669  22.446  0.1800 -0.1877 -0.4543
42706W        W51506  13.473   5.498  21.243 -0.0159  0.1671  0.0986
42707W        W51507  24.955   2.339  17.520  0.1362  0.0403 -0.2349
42708W        W51508  18.117   1.530   0.410 -0.4023  0.1752 -0.1874
42709W        W51509   5.784   4.622   5.985  0.0849 -0.2490  0.0430
42710W        W51510  23.788   6.581  23.317  0.2069 -0.0395 -0.0488
42711W        W51511  21.153   0.233  14.290 -0.0292  0.0764 -0.1501
42712W        W51512  23.883   3.903   3.121 -0.1225  0.0242 -0.1662
42713W        W51513  10.170   5.673  23.077 -0.1658 -0.2058  0.1181
42714W        W51514   9.157   2.263   8.203  0.1876  0.2087  0.0994
42715W        W51515   9.229   7.721   4.961  0.2990 -0.2228  0.0700
42716W        W51516  11.304   6.090   8.372  0.0293  0.2908  0.0202
42717W        W51517  22.027   5.246  21.313  0.4335  0.0738  0.2811
42718W        W51518  27.033   5.489  21.474 -0.2020 -0.0590  0.0498
42719W        W51519   5.605   4.252  18.636  0.0453  0.1792  0.3729
42720W        W51520  31.201   2.999  24.812  0.2015  0.0621 -0.4193
42721W        W51521   5.120   5.772   5.189 -0.2234 -0.0770 -0.1909
42722W        W51522  30.217   4.372  15.680  0.2161 -0.1892  0.1000
42723W        W51523  10.462   6.828  24.643  0.0031  0.0384  0.0272
42724W        W51524  19.110   3.070   5.578  0.0723 -0.2660 -0.0463
42725W        W51525  29.110   4.236  24.924 -0.0370  0.0439  0.1315
42726W        W51526  11.588   4.152  17.639 -0.0453  0.1956 -0.0918
42727W        W51527  14.201   6.101   7.914 -0.4345  0.0151 -0.1926
42728W        W51528   5.405   1.301   0.920 -0.1348  0.2539  0.1240
42729W        W51529  12.248   1.639  23.806  0.0094  0.1771  0.0554
42730W        W51530   3.660   2.306  10.326  0.0181 -0.1932  0.0755
42731W        W51531   1.979   2.039  11.452 -0.3753  0.0770 -0.0875
42732W        W51532  21.651   0.234  24.133 -0.2064  0.0450 -0.0518
42733W        W51533   1.360   6.093   3.863  0.2266  0.0523  0.3236
42734W        W51534  17.606   6.485  18.174 -0.0062  0.0212  0.2335
42735W        W51535  15.974   1.885   3.579 -0.0499  0.1514 -0.0297
42736W        W51536  11.722   4.905  16.661  0.4177  0.0559 -0.0649
42737W        W51537   9.783   7.629   7.346 -0.1956 -0.3589 -0.2117
42738W        W51538  21.538   6.643  25.029  0.0051 -0.1932  0.1856
42739W        W51539   1.787   2.851   7.426 -0.1098 -0.0959  0.1405
42740W        W51540  10.089   6.040  23.425  0.1429  0.0013  0.0255
42741W        W51541  16.692   3.059  17.436 -0.0522 -0.1814 -0.2914
42742W        W51542  26.865   5.838   2.623 -0.1365 -0.1397  0.0994
42743W        W51543  26.039   2.802   3.922  0.2083 -0.0533 -0.2117
42744W        W51544   7.416   6.928  15.541 -0.1722 -0.0818 -0.0821
42745W        W51545   8.141   2.651   9.718  0.0034  0.2086  0.1692
42746W        W51546   7.439   5.187   0.679 -0.2804  0.2965  0.2559
42747W        W51547  20.360   1.523  19.451 -0.1401 -0.2283  0.2020
42748W        W51548   5.367   6.801   8.181  0.1547 -0.1776  0.1062
42749W        W51549  20.352   6.481   0.917  0.0782 -0.1862 -0.0834
42750W        W51550   2.902   2.812   3.613 -0.1974  0.1053 -0.0832
42751W        W51551   5.386   5.723   0.029 -0.3291  0.0522  0.1693
42752W        W51552  23.042   7.752  16.851 -0.0637  0.1912  0.1631
42753W        W51553   6.702   6.240  22.078  0.3099  0.2655  0.1929
42754W        W51554   2.877   3.926  20.507  0.0500  0.1180 -0.0583
42755W        W51555  28.369   0.540  16.890 -0.2421  0.0466 -0.3415
42756W        W51556  19.254   2.945  17.958  0.2967 -0.0341  0.2052
42757W        W51557  11.081   7.587  20.229  0.0209 -0.0198 -0.0233
42758W        W51558   6.275   2.397   9.925 -0.1363 -0.3270 -0.0572
42759W        W51559  25.767   0.533  19.298  0.0776 -0.0876  0.4111
42760W        W51560  25.005   3.661  16.418  0.4070 -0.0293 -0.0644
42761W        W51561  24.905   4.193  17.168  0.4370  0.1657  0.1670
42762W        W51562   5.263   1.073  21.144 -0.1711  0.0560 -0.1096
42763W        W51563   7.740   4.893  16.557  0.1582  0.2671 -0.0204
42764W        W51564  20.988   4.345   2.703  0.0457 -0.0758 -0.0723
42765W        W51565  23.778   1.986   2.608  0.0021 -0.2511  0.0426
42766W        W51566  12.472   0.630  19.981 -0.1333 -0.0113 -0.0623
42767W        W51567   5.911   3.162  21.306 -0.1739  0.0497  0.0003
42768W        W51568   0.227   3.845   9.323 -0.0851 -0.0893 -0.2830
42769W        W51569  14.652   5.227  15.591  0.0740  0.1689  0.1826
42770W        W51570  23.979   4.974  18.231 -0.0805 -0.1615  0.0320
42771W        W51571   8.774   3.408  10.997 -0.0488  0.2493 -0.2640
42772W        W51572  25.346   1.750   3.260 -0.2792 -0.0297  0.0726
42773W        W51573  11.063   6.323   6.974 -0.4856  0.1225 -0.0620
42774W        W51574  15.174   6.009  15.698 -0.0006 -0.2615 -0.2414
42775W        W51575   0.006   7.322   3.118  0.3732 -0.1969  0.2232
42776W        W51576   5.975   6.139   2.106  0.2581 -0.0333  0.2364
42777W        W51577   1.882   1.098  23.960 -0.0721  0.0992  0.0392
42778W        W51578   5.274   4.272   5.150 -0.1777  0.1882 -0.2877
42779W        W51579   7.507   0.490   0.450  0.2364  0.0490  0.2249
42780W        W51580  18.288   0.248   5.618 -0.1113 -0.0198  0.0046
42781W        W51581  24.045   1.468  19.965  0.0302  0.2940  0.0161
42782W        W51582  28.396   0.944   9.725 -0.0930  0.1966  0.2730
42783W        W51583  25.392   6.789   6.645 -0.0857 -0.0304  0.1132
42784W        W51584  15.043   4.051  20.731  0.2070  0.1397  0.4176
42785W        W51585  25.817   4.968   4.342 -0.0276  0.0390  0.0775
42786W        W51586  17.374   3.764   3.351 -0.2762  0.1894 -0.0774
42787W        W51587   9.082   1.269  21.705  0.1692  0.0598  0.1151
42788W        W51588  24.273   0.118   4.444  0.2456  0.0006 -0.3380
42789W        W51589  18.800   1.202   4.125  0.0160  0.1371 -0.1868
42790W        W51590  13.299   0.930  20.260  0.0283 -0.0122 -0.2333
42791W        W51591  12.748   4.136  18.276 -0.0626  0.0704  0.0854
42792W        W51592  13.059   0.357  22.273  0.2984  0.1035  0.2245
42793W        W51593  24.661   1.859  11.029 -0.0948  0.2561 -0.1090
42794W        W51594  18.771   7.753  24.861  0.2859 -0.2162  0.1813
42795W        W51595  15.966   3.103  24.675 -0.1503 -0.1752  0.0668
42796W        W51596   6.754   2.048   4.433 -0.0259  0.0917 -0.0024
42797W        W51597   5.376   5.466   5.599 -0.0742 -0.0521 -0.1209
42798W        W51598  14.074   2.703  10.569 -0.1347  0.2758  0.3419
42799W        W51599  26.504   3.831   8.495  0.1421  0.1045 -0.0398
42800W        W51600  12.885   3.616  10.067  0.4550 -0.2399  0.0406
42801W        W51601   7.142   6.652  24.279 -0.0039 -0.1439  0.2141
42802W        W51602   1.772   7.063   4.496  0.0728  0.2685  0.3492
42803W        W51603  15.770   2.341   2.150  0.1694 -0.3172 -0.1460
42804W        W51604   4.985   7.759  25.605  0.1407 -0.4977 -0.1683
42805W        W51605   9.927   0.102  19.657 -0.1628  0.1100  0.0097
42806W        W51606   2.869   0.176  10.194 -0.0508  0.3891  0.0647
42807W        W51607  28.771   5.524   7.938  0.1270  0.0114  0.1618
42808W        W51608  20.732   5.415  19.374  0.0306 -0.0637 -0.0106
42809W        W51609  26.407   1.685  19.396  0.0543 -0.0370 -0.1753
42810W        W51610  26.048   6.842   1.466 -0.1149 -0.0053  0.0499
42811W        W51611  16.405   2.393   5.793  0.1245  0.1844 -0.1247
42812W        W51612   2.590   5.954   7.567 -0.0211 -0.1878 -0.4187
42813W        W51613  12.661   1.271  22.837 -0.0506 -0.1598 -0.0853
42814W        W51614   0.200   5.126   5.232  0.0284  0.0795 -0.1879
42815W        W51615   4.612   3.054  22.376  0.1495 -0.1123 -0.1639
42816W        W51616   9.395   5.484  17.961 -0.0639 -0.0378  0.0668
42817W        W51617   4.298   7.323   0.709  0.0434 -0.0285 -0.0354
42818W        W51618   4.887   3.592   9.226  0.0003  0.2913 -0.0408
42819W        W51619  17.789   0.193  10.390  0.1013 -0.3320 -0.2407
42820W        W51620  19.405   3.386  23.283 -0.1259 -0.0252  0.0884
42821W        W51621  22.183   7.406   5.670 -0.1082 -0.1234 -0.0470
42822W        W51622   7.689   0.425  10.820 -0.0979 -0.0887 -0.1437
42823W        W51623   7.000   4.975  23.978  0.3156 -0.0293  0.0327
42824W        W51624  21.939   2.572   5.109  0.2420  0.0288 -0.0527
42825W        W51625  24.620   3.247  21.626  0.2692  0.2629 -0.1250
42826W        W51626  23.263   0.967   1.942 -0.5117  0.2450  0.3770
42827W        W51627  29.496   2.710  22.810 -0.0377  0.0647  0.0170
42828W        W51628   0.859   6.666  25.201 -0.0160  0.0390 -0.0591
42829W        W51629  19.952   6.806   3.227 -0.1917 -0.0859  0.0937
42830W        W51630   6.164   7.250   5.905 -0.0122 -0.1959 -0.2075
42831W        W51631   6.901   4.915   5.119 -0.0399 -0.1278  0.0020
42832W        W51632   2.029   0.188  19.460 -0.2636 -0.0227  0.0050
42833W        W51633   4.327   4.630   1.077  0.0318  0.0131  0.0182
42834W        W51634  10.985   2.404   0.910 -0.0928  0.1183  0.0461
42835W        W51635  25.154   0.115   4.093  0.1751  0.0840 -0.0452
42836W        W51636   6.513   2.920   2.887 -0.1986 -0.0414 -0.1692
42837W        W51637   7.061   3.512   2.146  0.2282 -0.0231 -0.1904
42838W        W51638  19.416   6.819  19.701  0.1555 -0.0488 -0.2303
42839W        W51639  17.666   3.429  15.896  0.2247  0.0946 -0.1008
42840W        W51640  16.459   2.311   6.257  0.0194  0.2139  0.0357
42841W        W51641   4.936   0.276  10.632  0.0468  0.0246 -0.0276
42842W        W51642   5.186   6.388  21.999  0.1460  0.1771  0.0707
42843W        W51643  22.114   2.720  21.536  0.2510 -0.0260  0.1035
42844W        W51644  12.619   2.013  19.439 -0.0008  0.0875  0.1144
42845W        W51645  17.376   7.186   2.009 -0.0954  0.3554 -0.3026
42846W        W51646   7.302   1.608  11.001 -0.1177  0.0021 -0.1770
42847W        W51647  24.958   2.650   7.963  0.3231  0.1094  0.1965
42848W        W51648  14.139   1.287  16.905 -0.2949 -0.0970 -0.2323
42849W        W51649  27.487   6.442  18.979 -0.0406  0.0126  0.2013
42850W        W51650   8.746   1.793   5.984 -0.0408  0.2938 -0.0475
42851W        W51651  13.630   3.628   2.022  0.0901 -0.0136 -0.2229
42852W        W51652  10.771   4.150   9.612  0.0075 -0.0119  0.1244
42853W        W51653  18.563   1.455  19.815  0.0021  0.0626 -0.2638
42854W        W51654   0.170   3.312  23.522  0.3041  0.1355 -0.0508
42855W        W51655  13.445   5.571  17.340  0.1031  0.0395 -0.3279
42856W        W51656   5.422   0.766  20.437  0.2461 -0.0264  0.2796
42857W        W51657  31.196   1.776   2.978 -0.0782 -0.1281 -0.0385
42858W        W51658  12.488   2.287  25.119  0.1085 -0.1878  0.0694
42859W        W51659  29.047   4.290  23.642 -0.1865  0.0310  0.2031
42860W        W51660  15.986   0.069   2.288  0.0916 -0.0185 -0.0465
42861W        W51661  19.876   7.461   1.423  0.2269 -0.0111  0.0901
42862W        W51662  17.211   3.302  20.063 -0.3492  0.0552  0.1025
42863W        W51663  18.020   2.481  16.277  0.0133 -0.0820 -0.0491
42864W        W51664  25.275   1.151  23.873 -0.2315  0.2235  0.0931
42865W        W51665  13.437   2.857  20.753 -0.1414 -0.0993 -0.0499
42866W        W51666   2.424   0.848  18.067 -0.0421  0.1155  0.0479
42867W        W51667   3.797   0.126  23.604  0.0228 -0.0022 -0.0151
42868W        W51668   8.942   4.323  19.967 -0.1255  0.0684  0.2334
42869W        W51669   1.015   4.904   9.866  0.0803  0.6661 -0.0422
42870W        W51670  18.165   6.681  21.344  0.0193  0.2039 -0.2418
42871W        W51671  24.440   4.448  24.511 -0.1094  0.4426  0.4045
42872W        W51672  25.263   2.610   3.612  0.1818  0.1213  0.1029
42873W        W51673  15.096   0.005  25.863  0.1464  0.0401 -0.1875
42874W        W51674  17.400   4.127   0.926  0.0366  0.1378  0.1923
42875W        W51675  29.310   3.394  20.702 -0.0741  0.3335  0.1411
42876W        W51676  27.902   1.405   3.263 -0.3046  0.1057  0.1516
42877W        W51677  21.557   3.639  19.212 -0.0918 -0.0266  0.2633
42878W        W51678   2.723   1.701   8.255 -0.0009 -0.0673  0.4876
42879W        W51679  27.458   5.074  22.735  0.1958 -0.0454  0.2811
42880W        W51680   5.196   2.281   3.264 -0.3875 -0.0124 -0.2937
42881W        W51681  11.645   3.597  19.392  0.0351 -0.0470 -0.2426
42882W        W51682   7.753   1.868   2.022  0.1664 -0.2159 -0.0933
42883W        W51683  16.680   0.304   3.355 -0.1232 -0.1921  0.0883
42884W        W51684  30.898   6.527   2.202  0.1081  0.0202  0.1180
42885W        W51685  29.830   0.774   9.845  0.1624 -0.2411 -0.0753
42886W        W51686  13.189   3.681  22.206  0.0992 -0.0381  0.0423
42887W        W51687   3.351   4.893   1.913  0.3788 -0.0741  0.1388
42888W        W51688  30.892   4.299   3.812  0.0782 -0.0855 -0.1485
42889W        W51689  18.180   3.100   9.657  0.2845  0.1707 -0.2039
42890W        W51690  23.980   3.561   7.415  0.0083  0.0653  0.0030
42891W        W51691  19.440   1.372  19.144 -0.3397  0.2571 -0.2274
42892W        W51692   7.404   7.551  17.150 -0.3346 -0.0031  0.1914
42893W        W51693   4.681   0.367  23.083 -0.0648 -0.1104  0.2296
42894W        W51694  21.604   1.606  23.099  0.0369 -0.1510  0.2883
42895W        W51695  11.472   7.168   3.014 -0.1792  0.0457  0.2064
42896W        W51696  10.528   6.442   8.045  0.0008 -0.1672 -0.3306
42897W        W51697  15.822   5.596  22.240 -0.0827  0.1678  0.0944
42898W        W51698  29.020   4.877  24.280 -0.0153  0.1319  0.1754
42899W        W51699   1.695   6.660  25.472  0.0561 -0.0180 -0.1594
42900W        W51700  10.138   0.652   9.800  0.1603 -0.0035  0.1634
42901W        W51701  13.054   6.245  17.598  0.2074  0.0388 -0.1432
42902W        W51702  21.359   1.472  20.273 -0.0025  0.1178  0.0876
42903W        W51703  24.467   2.307   7.725  0.0464 -0.0927  0.0827
42904W        W51704  22.828   6.603   6.477 -0.0230 -0.1860  0.1232
42905W        W51705  18.416   4.930  24.673  0.0632 -0.2894 -0.0262
42906W        W51706  25.537   6.226  16.578 -0.2466  0.0193 -0.2037
42907W        W51707  24.377   1.608   6.985 -0.1721 -0.1373 -0.2999
42908W        W51708   9.166   4.840   7.231  0.1476  0.0337  0.0153
42909W        W51709  25.692   3.559   9.697  0.1866  0.2269 -0.2043
42910W        W51710  11.968   6.211  17.048  0.1920  0.2253 -0.2591
42911W        W51711  27.701   2.410   8.852  0.2665 -0.1139  0.0557
42912W        W51712  15.577   4.112   8.218  0.2867  0.2193  0.1939
42913W        W51713   7.193   1.949  15.921 -0.0189 -0.0788  0.1902
42914W        W51714   0.452   4.915   0.655  0.0918 -0.2169 -0.0420
42915W        W51715  10.901   6.418  18.524 -0.1966  0.1482  0.0508
42916W        W51716  16.605   1.736   3.122  0.1659 -0.0472 -0.0114
42917W        W51717  12.540   6.721   4.407 -0.1554  0.0485 -0.1709
42918W        W51718  11.380   2.405  20.526  0.1439  0.0253 -0.4631
42919W        W51719  18.660   3.039  24.798  0.1834  0.1080 -0.1124
42920W        W51720  15.536   6.341  16.097  0.0488  0.2175  0.2952
42921W        W51721  26.099   3.389  24.523  0.0845 -0.1829 -0.1353
42922W        W51722  24.349   0.592   0.349 -0.2748 -0.0850 -0.1030
42923W        W51723   2.883   6.758  16.353  0.1282  0.1107  0.3214
42924W        W51724  20.765   3.191   5.195  0.0960  0.3587 -0.1572
42925W        W51725   0.565   4.530   2.477  0.0310 -0.0763 -0.1945
42926W        W51726  13.342   0.107   5.893 -0.0093 -0.0867  0.0460
42927W        W51727  19.548   7.544  16.609 -0.2740 -0.1831 -0.3351
42928W        W51728   8.097   1.425   9.812  0.0955  0.0788 -0.0506
42929W        W51729  15.683   4.730   9.268 -0.1191  0.0068  0.0064
42930W        W51730   5.659   3.454   4.717 -0.0482 -0.3308  0.2420
42931W        W51731   2.540   3.237  18.012 -0.0623  0.0782 -0.3091
42932W        W51732  22.663   1.985  19.171  0.1413  0.2113  0.0895
42933W        W51733  11.968   6.039  24.932 -0.0426 -0.3300 -0.3053
42934W        W51734  29.105   1.819  24.666 -0.1736 -0.2261 -0.3219
42935W        W51735  24.073   7.077  21.824 -0.1224 -0.2308  0.1819
42936W        W51736   3.598   5.475   4.912  0.1285  0.0255 -0.1098
42937W        W51737  14.244   1.118   7.864 -0.3362  0.1431  0.2122
42938W        W51738  20.156   2.236   0.639  0.0179  0.0746 -0.1240
42939W        W51739   3.311   6.442  19.815  0.1547  0.0595  0.2846
42940W        W51740  19.269   7.193   9.259 -0.0787  0.2997 -0.1320
42941W        W51741  12.855   3.008   1.762 -0.0512  0.0451 -0.1444
42942W        W51742   9.065   3.383  24.512 -0.0465 -0.0409 -0.1342
42943W        W51743  12.092   7.074  23.583  0.2786  0.2004  0.0557
42944W        W51744   7.289   2.777   5.260  0.0588  0.1994  0.1671
42945W        W51745  22.955   6.899  15.965 -0.2510  0.5930 -0.2048
42946W        W51746  20.260   0.665  16.165 -0.2448 -0.1723  0.1677
42947W        W51747  26.677   1.957  19.113  0.1508 -0.2071  0.0319
42948W        W51748   5.991   1.488  19.660  0.1990 -0.1235  0.2193
42949W        W51749   4.349   4.275   0.283  0.2584  0.4219  0.3380
42950W        W51750  15.018   3.611  11.200 -0.1669 -0.0080  0.0782
42951W        W51751  23.901   4.183  25.938 -0.1005 -0.0176  0.0506
42952W        W51752  20.833   7.720  21.556 -0.2554 -0.2593  0.0767
42953W        W51753   7.862   6.777   7.448  0.0038 -0.1516 -0.0687
42954W        W51754  24.734   2.596  26.086 -0.1970  0.1235  0.1627
42955W        W51755   7.006   4.807  17.023  0.0985  0.1588 -0.1609
42956W        W51756  15.229   7.764   3.810 -0.2124  0.0106  0.4393
42957W        W51757  24.861   7.571   9.687  0.0172 -0.0736 -0.2198
42958W        W51758  31.110   3.178  20.373 -0.0342  0.1800  0.2446
42959W        W51759  30.820   7.573   2.874 -0.5633 -0.1340  0.1157
42960W        W51760   6.894   1.700  21.920  0.1278 -0.0469 -0.1987
42961W        W51761  17.052   1.038  22.322  0.2973 -0.0985  0.3373
42962W        W51762  14.397   2.188  20.127 -0.1923  0.3059  0.1717
42963W        W51763  15.102   6.632   5.623  0.0200 -0.0728  0.0911
42964W        W51764   0.939   2.216  10.374  0.0065 -0.0799  0.1667
42965W        W51765   3.830   3.818  15.903 -0.0091  0.2447 -0.1813
42966W        W51766  11.217   6.524   0.055  0.2761  0.0024  0.0443
42967W        W51767  19.329   4.626   7.158  0.2445  0.0774 -0.1407
42968W        W51768  10.534   4.768  21.591 -0.0983 -0.0251  0.1495
42969W        W51769   5.165   0.563  16.075 -0.3554 -0.1424  0.0815
42970W        W51770  15.289   0.342  21.169  0.0825  0.0006  0.2833
42971W        W51771   2.430   6.261   6.924  0.1205  0.0135  0.2902
42972W        W51772  15.303   5.116  24.748  0.1739  0.0314 -0.1603
42973W        W51773  29.681   0.733  18.277  0.0151 -0.0692 -0.1374
42974W        W51774  28.457   0.679  15.838  0.1198  0.1364 -0.3221
42975W        W51775  15.328   1.604  21.689 -0.0350  0.1314  0.1983
42976W        W51776  28.286   2.526   6.054  0.1406  0.0988  0.2114
42977W        W51777  21.527   0.501  26.065  0.1691 -0.0677 -0.1070
42978W        W51778  25.040   0.401   4.517 -0.0644 -0.0135 -0.0862
42979W        W51779  21.810   1.381   9.958 -0.0574 -0.2466 -0.1779
42980W        W51780   1.893   3.250  10.031  0.0516 -0.0163 -0.1248
42981W        W51781  11.869   6.677  18.807 -0.0500  0.2482 -0.1201
42982W        W51782   7.445   7.194  10.066 -0.1203 -0.1841 -0.2325
42983W        W51783  13.367   0.267   8.462  0.0806  0.3271  0.1995
42984W        W51784  12.711   0.032   7.549  0.0758  0.3797 -0.2617
42985W        W51785  27.670   0.135   0.129  0.1935  0.2246  0.0047
42986W        W51786   1.469   6.627   8.673 -0.2707 -0.1165 -0.1709
42987W        W51787   3.459   2.083   3.843  0.3785 -0.2464 -0.0117
42988W        W51788  24.592   0.726   2.325 -0.2498  0.2247  0.1865
42989W        W51789   2.254   4.897   4.218  0.2128 -0.0311  0.3272
42990W        W51790  27.256   6.084  17.130  0.2021  0.2060 -0.0169
42991W        W51791  23.184   0.554  17.350  0.4450 -0.1379 -0.3124
42992W        W51792  11.830   1.313  20.776  0.1009  0.2959 -0.4805
42993W        W51793   0.256   3.346   9.184 -0.3074  0.0558  0.2520
42994W        W51794  19.159   1.238  22.094  0.1948  0.3660 -0.3757
42995W        W51795  31.053   4.495   8.706  0.1408  0.0769  0.1761
42996W        W51796  30.061   1.345   7.499 -0.4769 -0.3789  0.1179
42997W        W51797  16.509   0.694  22.225 -0.1540  0.2972  0.2182
42998W        W51798   0.921   6.194   5.677 -0.0906 -0.0440  0.1375
42999W        W51799  22.261   6.285  23.060 -0.1754  0.1449 -0.0493
43000W        W51800  17.753   5.373   4.307  0.3781  0.0632 -0.1178
43001W        W51801  26.167   3.519  10.104  0.1829  0.1116 -0.0206
43002W        W51802  17.638   5.794   4.537 -0.1705  0.1605 -0.1294
43003W        W51803  19.795   7.551  22.209 -0.3288 -0.0637 -0.3523
43004W        W51804  21.562   4.807  19.159 -0.1887 -0.1550 -0.0198
43005W        W51805   6.380   2.624   1.093 -0.1900  0.4200 -0.0771
43006W        W51806  19.878   1.370  19.458  0.0099  0.1048 -0.0965
43007W        W51807   3.751   6.466  23.973 -0.0396 -0.0010 -0.1967
43008W        W51808  15.812   3.788  14.692 -0.4164  0.3302 -0.2174
43009W        W51809  19.930   7.808  21.352  0.0429 -0.0993 -0.2469
43010W        W51810  21.405   3.878  20.186  0.0022  0.3236 -0.2606
43011W        W51811   7.096   6.136   7.722  0.0258  0.0269 -0.0729
43012W        W51812  18.270   6.317   7.996  0.0889  0.1000 -0.1547
43013W        W51813  29.865   6.107   6.978  0.0570  0.2346 -0.1581
43014W        W51814   1.302   1.549   2.088  0.1480 -0.3344 -0.2597
43015W        W51815  21.977   1.027   9.107  0.0369  0.1851 -0.2607
43016W        W51816  27.420   4.729  24.148  0.1625  0.1286  0.0222
43017W        W51817   0.465   3.945  26.118 -0.1055 -0.1541  0.2458
43018W        W51818  13.493   3.578   7.526 -0.0601 -0.1880 -0.1557
43019W        W51819  10.327   7.199   0.674 -0.1958 -0.0910 -0.6337
43020W        W51820  18.093   1.385  23.891  0.3165 -0.2818  0.3538
43021W        W51821  25.242   4.407  24.772  0.0963  0.1103  0.2739
43022W        W51822  23.384   1.534  24.313  0.0585 -0.1867 -0.0436
43023W        W51823  18.139   1.369  22.650 -0.0450 -0.0893  0.1531
43024W        W51824  29.869   5.598  11.129 -0.1293  0.1290 -0.1724
43025W        W51825  22.178   6.492  19.125  0.0584  0.0645 -0.0444
43026W        W51826   0.999   4.682  15.645 -0.1805 -0.0008 -0.0157
43027W        W51827  28.112   3.978  25.916  0.2125  0.4633 -0.0562
43028W        W51828   5.512   2.718  20.541  0.0191  0.2756  0.1091
43029W        W51829  14.482   3.497  18.649 -0.1859 -0.1959  0.1923
43030W        W51830  16.235   0.554   6.920 -0.1136 -0.0977  0.0856
43031W        W51831  13.325   4.629  21.140  0.0396 -0.2566 -0.3020
43032W        W51832  12.833   5.725  23.593  0.1501  0.0121 -0.0153
43033W        W51833   0.334   7.730  10.794 -0.0470  0.0202  0.2947
43034W        W51834   7.016   0.694  20.957  0.1571 -0.0182 -0.1654
43035W        W51835  17.427   5.055   5.956  0.0471 -0.0378 -0.0378
43036W        W51836  18.087   3.659  19.372  0.0205 -0.1710 -0.1478
43037W        W51837  28.461   5.678  25.697 -0.2245 -0.0484 -0.1711
43038W        W51838  12.666   6.325   4.145  0.1376 -0.1071 -0.0776
43039W        W51839  21.231   6.811   2.672  0.0668  0.0867 -0.2818
43040W        W51840  24.795   2.425  21.835 -0.1079 -0.3380  0.0220
43041W        W51841  30.553   5.869   6.505  0.0839 -0.2508  0.3842
43042W        W51842  26.577   5.774  20.116  0.3952  0.1167  0.1677
43043W        W51843  22.299   3.419   9.601 -0.0355  0.0036  0.1959
43044W        W51844  11.012   7.035  22.356 -0.1105 -0.0371 -0.1405
43045W        W51845  28.559   5.862  15.990 -0.0141 -0.0796 -0.0664
43046W        W51846  21.272   5.780  22.924  0.2985 -0.0091  0.2642
43047W        W51847  23.442   4.395  19.845 -0.0858  0.2124 -0.2168
43048W        W51848   4.263   4.106   5.142 -0.3362  0.0995  0.0563
43049W        W51849  24.804   3.864   5.839  0.1812 -0.0307 -0.1397
43050W        W51850  22.746   3.799  15.607  0.3360 -0.2443 -0.0277
43051W        W51851  10.472   6.591   9.804 -0.2749  0.0137  0.0728
43052W        W51852  13.328   2.219  18.749  0.0263 -0.0614 -0.0940
43053W        W51853   0.438   3.998   8.897  0.1080 -0.1345 -0.2192
43054W        W51854  15.023   2.055  21.901 -0.3889  0.1849 -0.1423
43055W        W51855  28.462   7.156   8.156 -0.2918 -0.5443  0.1897
43056W        W51856  15.564   7.025  21.877 -0.0372 -0.3646  0.0711
43057W        W51857  28.260   6.652   3.205 -0.0660  0.0275 -0.2005
43058W        W51858  13.020   1.441   1.423  0.1724  0.0544 -0.1095
43059W        W51859   1.887   7.662   9.940  0.0294 -0.1925  0.0247
43060W        W51860   9.040   5.537  18.297  0.0500  0.2304  0.0857
43061W        W51861   1.326   3.874  18.104  0.0004 -0.0426  0.4923
43062W        W51862  27.381   6.524   1.877 -0.0735  0.1950  0.0708
43063W        W51863  12.889   4.348   8.466 -0.2470 -0.0531 -0.0053
43064W        W51864  20.705   3.510   6.468  0.0225 -0.0542 -0.0101
43065W        W51865  15.749   4.463   2.363  0.0799 -0.2407 -0.0581
43066W        W51866  26.830   7.472  25.281  0.0966 -0.3492  0.0179
43067W        W51867   5.491   0.705  23.197  0.1123 -0.3262 -0.2775
43068W        W51868   1.834   0.323   6.542 -0.2546 -0.1412 -0.1636
43069W        W51869  14.131   5.838   6.947 -0.0899 -0.0059  0.2926
43070W        W51870  22.884   4.398  25.121 -0.1458  0.0383  0.1572
43071W        W51871  24.783   7.803  14.805 -0.1028  0.1616  0.0692
43072W        W51872  25.642   0.869   5.969  0.2190  0.0271 -0.1081
43073W        W51873  27.060   2.988   4.702  0.2662  0.0421  0.1278
43074W        W51874   9.099   6.857  17.566  0.2171  0.1686  0.1031
43075W        W51875   9.461   0.120  22.189  0.3571  0.1113 -0.1281
43076W        W51876  23.199   5.993  24.312 -0.0601  0.0170  0.0156
43077W        W51877  21.742   6.096  17.939  0.1154  0.1934  0.0293
43078W        W51878  27.279   4.591  25.179 -0.0063  0.0042 -0.2886
43079W        W51879   5.065   4.405  19.976  0.3014 -0.0165 -0.0516
43080W        W51880   7.152   5.567   9.142 -0.0179  0.0919 -0.1309
43081W        W51881  25.632   4.142  10.416  0.1166  0.0232  0.2077
43082W        W51882  28.123   5.486  16.064 -0.1040 -0.1812 -0.0360
43083W        W51883  14.742   1.858   0.533 -0.1336  0.0716 -0.2133
43084W        W51884  18.325   1.302  15.203  0.1386  0.1553  0.1403
43085W        W51885  16.444   5.667  17.399  0.3603  0.1048 -0.2093
43086W        W51886  11.670   5.290  17.058  0.1379 -0.2134  0.4139
43087W        W51887  23.123   2.636  16.736  0.2239  0.0189  0.2882
43088W        W51888  13.191   1.522  20.364  0.0844  0.0683 -0.0467
43089W        W51889   7.098   5.916  25.921 -0.3422 -0.0422 -0.0101
43090W        W51890  10.914   0.026   4.684  0.0698 -0.2007 -0.0375
43091W        W51891   0.867   7.262   2.161  0.1847  0.2258  0.0774
43092W        W51892  13.352   5.052  15.597  0.0057 -0.2508  0.1083
43093W        W51893   7.461   0.903   5.749  0.2022 -0.4105  0.1125
43094W        W51894  19.952   7.747   3.874  0.1437  0.0574 -0.0796
43095W        W51895  13.308   6.561  23.676 -0.0116 -0.0339 -0.2756
43096W        W51896   1.135   3.283  24.062 -0.2911  0.1014  0.5184
43097W        W51897   4.464   7.007  26.147  0.1888 -0.0029  0.0184
43098W        W51898  20.228   2.489  20.447  0.1502  0.0522  0.2954
43099W        W51899   5.174   5.111  15.243 -0.1100  0.0582 -0.0983
43100W        W51900   2.655   2.554  17.564 -0.0510 -0.1039 -0.2602
43101W        W51901   3.391   4.193  16.938  0.0113 -0.0603  0.0905
43102W        W51902   3.836   2.819   5.324  0.1516  0.0236  0.0733
43103W        W51903  20.403   1.808   3.219  0.0453 -0.0497 -0.4608
43104W        W51904  27.419   4.222  21.812 -0.2407 -0.0781  0.1082
43105W        W51905   3.276   3.207   4.723 -0.1586  0.0529 -0.1618
43106W        W51906  10.008   2.095  18.533 -0.0613 -0.0725  0.0034
43107W        W51907  19.681   0.007  15.589 -0.1391  0.0237 -0.2174
43108W        W51908  26.182   0.338  22.349 -0.0816 -0.0153 -0.0510
43109W        W51909  13.784   5.708  20.254 -0.0583 -0.0149  0.0297
43110W        W51910  17.916   4.214  25.467  0.0489 -0.1326  0.1675
43111W        W51911  28.060   7.421   2.546  0.1602  0.0999  0.0915
43112W        W51912  16.973   6.353   9.788  0.1651 -0.0046 -0.2100
43113W        W51913  26.198   5.341  18.540 -0.3632  0.3503  0.0739
43114W        W51914   2.364   7.630  20.923  0.0257  0.1761  0.1661
43115W        W51915  14.516   1.698  18.922 -0.0446  0.0099 -0.1428
43116W        W51916  14.782   2.783   9.458 -0.3992 -0.2754  0.2438
43117W        W51917  25.219   1.674  18.786  0.0062  0.3648 -0.0762
43118W        W51918  13.358   4.844   9.893 -0.2043  0.0680  0.2315
43119W        W51919  13.647   7.822  19.832  0.0415  0.1451 -0.0817
43120W        W51920  26.964   2.674   2.311 -0.1574 -0.3007  0.0143
43121W        W51921  18.138   0.185   2.595 -0.2188  0.2530 -0.4470
43122W        W51922  20.627   4.650  15.208  0.0090  0.6637  0.1505
43123W        W51923  16.149   6.614  19.330 -0.1887  0.1012 -0.1903
43124W        W51924  21.730   0.332   5.160  0.6233  0.1827 -0.0197
43125W        W51925  29.313   7.543  22.736 -0.0342 -0.0630 -0.0450
43126W        W51926   7.692   5.165  10.338 -0.0176 -0.0694 -0.0237
43127W        W51927   2.291   3.049   8.654  0.1580  0.2082  0.5069
43128W        W51928  24.034   7.187  18.121 -0.0813 -0.6563  0.1101
43129W        W51929  26.385   1.048  15.334 -0.1635  0.0197 -0.0343
43130W        W51930  19.935   6.301  16.839 -0.0898 -0.0286  0.1061
43131W        W51931   8.113   4.009  23.331 -0.0319  0.2085  0.0585
43132W        W51932  10.661   3.339  25.988 -0.2094 -0.0352  0.1607
43133W        W51933  30.241   7.640  10.711 -0.0481 -0.3079  0.1795
43134W        W51934  28.242   1.506  10.003  0.0012  0.1550 -0.0284
43135W        W51935  24.847   0.116  18.322 -0.2048  0.1393 -0.0849
43136W        W51936  28.619   0.358  10.441  0.0477  0.2218  0.0250
43137W        W51937  12.987   2.489   0.452 -0.0205 -0.0549 -0.0878
43138W        W51938   1.210   6.406  17.162  0.3194  0.0124 -0.1927
43139W        W51939   5.358   3.677   8.511  0.2425  0.1366 -0.0775
43140W        W51940  18.997   7.149  17.482  0.1132 -0.1469 -0.2211
43141W        W51941  26.753   6.745   4.972  0.2043  0.1234 -0.0637
43142W        W51942  23.580   4.896  17.166  0.1950  0.2145  0.0974
43143W        W51943   1.845   4.400   1.904 -0.2902 -0.0944 -0.2383
43144W        W51944   3.297   3.626  23.117  0.3458  0.0412 -0.3513
43145W        W51945   8.176   1.930  18.313 -0.2034  0.1103  0.2012
43146W        W51946  11.037   7.319  18.138 -0.1337 -0.2372  0.0902
43147W        W51947  26.662   2.559  25.955 -0.0410 -0.0905 -0.0210
43148W        W51948  26.691   6.509  19.246 -0.0166 -0.1252  0.1259
43149W        W51949  10.289   0.880   2.209 -0.0879 -0.1814  0.2921
43150W        W51950  14.460   0.424  24.705 -0.1660  0.0938  0.3286
43151W        W51951  16.509   2.877  17.905 -0.2812  0.0854 -0.1892
43152W        W51952  15.975   7.545   3.248  0.0386  0.1089 -0.1710
43153W        W51953  16.620   5.324   5.664  0.1898  0.0643 -0.2374
43154W        W51954  16.616   4.837  17.056  0.1790 -0.0765 -0.3296
43155W        W51955  21.921   1.172  23.010 -0.3180  0.3392 -0.0017
43156W        W51956  27.973   1.308  17.407 -0.1094 -0.1319  0.1072
43157W        W51957  20.941   1.003  17.994 -0.0289 -0.0233 -0.2163
43158W        W51958   9.176   6.704  23.339  0.1998 -0.2110 -0.0298
43159W        W51959  30.188   4.964  11.454  0.0027 -0.1842 -0.2988
43160W        W51960  25.605   7.646  17.793 -0.2891 -0.1036  0.1399
43161W        W51961   1.315   6.251  19.496  0.2494 -0.0434  0.1839
43162W        W51962  11.912   7.054  18.049  0.0685 -0.0383 -0.1697
43163W        W51963  17.462   3.387   4.667  0.0494  0.4126 -0.1190
43164W        W51964   0.849   3.290   5.222  0.3879  0.1960 -0.0865
43165W        W51965  10.149   7.098  23.973 -0.0425  0.2928 -0.0232
43166W        W51966  30.868   1.363   3.068 -0.0037  0.0656 -0.0702
43167W        W51967   6.858   2.266  18.209  0.1517 -0.1081  0.0364
43168W        W51968  12.835   3.369   7.785  0.2507  0.1174 -0.0917
43169W        W51969   9.683   3.298  16.211  0.1169  0.2979 -0.0499
43170W        W51970  11.484   0.641   5.528  0.0263 -0.2898 -0.0690
43171W        W51971  22.802   6.779   0.264 -0.0811  0.2470  0.0704
43172W        W51972   9.262   2.479  21.832 -0.1577 -0.0131 -0.1113
43173W        W51973  25.435   2.298   5.814 -0.0369 -0.1442 -0.3555
43174W        W51974  27.011   4.940  16.660 -0.0282  0.3155 -0.2404
43175W        W51975  13.583   6.816   2.696 -0.0280  0.0284 -0.1671
43176W        W51976   6.272   4.705   5.064 -0.0121 -0.3780  0.4005
43177W        W51977   6.618   3.730  10.390 -0.0382 -0.1050  0.0088
43178W        W51978  28.652   5.072   1.018 -0.1306 -0.0002 -0.0897
43179W        W51979  10.066   1.186   7.303 -0.2666 -0.1815  0.0485
43180W        W51980  15.885   4.502   4.063  0.0208  0.1692 -0.0709
43181W        W51981  20.551   3.211   7.330  0.2539  0.0711 -0.0236
43182W        W51982  24.181   0.072  17.259 -0.0539 -0.0088 -0.2214
43183W        W51983  26.961   3.170   8.879  0.1388 -0.0005  0.1984
43184W        W51984  20.423   4.435  22.278 -0.3177 -0.0465  0.0363
43185W        W51985   3.841   1.161  19.599  0.0335 -0.2165  0.0897
43186W        W51986   6.538   1.625   4.324 -0.0244 -0.1237  0.1569
43187W        W51987  30.524   6.248  16.672  0.2532 -0.1494 -0.0132
43188W        W51988  18.480   1.596  23.055  0.2188  0.1741 -0.0156
43189W        W51989  21.432   4.778  18.357 -0.2085  0.0512  0.0217
43190W        W51990   1.947   0.513  23.416  0.2427 -0.0554  0.1952
43191W        W51991  21.569   4.187  16.011 -0.0605  0.0577 -0.2284
43192W        W51992   9.585   2.552  25.926  0.3891 -0.0059  0.1475
43193W        W51993  29.646   5.212  26.190 -0.2021 -0.0684  0.2285
43194W        W51994  19.277   1.548   0.561 -0.0848 -0.1968  0.0085
43195W        W51995   0.017   5.257   7.356  0.0218  0.1509  0.0965
43196W        W51996  21.449   4.781  20.215 -0.0827 -0.1380  0.0371
43197W        W51997   3.970   1.500  21.594  0.5136  0.3332  0.1430
43198W        W51998  28.155   4.678  23.263  0.0843 -0.1815  0.0711
43199W        W51999  19.071   6.301  21.928 -0.0375  0.1669 -0.0620
43200W        W52000  16.968   3.663  22.041 -0.0151 -0.1529  0.0572
43201W        W52001  28.220   4.451  18.448 -0.1294 -0.2824 -0.1627
43202W        W52002  27.526   4.132   7.164  0.0837  0.0567  0.2511
43203W        W52003  23.581   1.240   7.193 -0.0322 -0.2651 -0.1955
43204W        W52004  30.687   0.158   8.140  0.0683 -0.0901 -0.0729
43205W        W52005   4.585   1.449  24.194 -0.1777 -0.0173 -0.0999
43206W        W52006   7.131   2.983  21.936  0.2607 -0.0241  0.3164
43207W        W52007   5.179   6.230  22.871  0.0597 -0.0192  0.1548
43208W        W52008   9.428   5.984  25.924  0.2048  0.2376 -0.1245
43209W        W52009  30.065   2.984   4.087  0.2079 -0.0547  0.0272
43210W        W52010  27.482   7.797   5.026  0.1547  0.2001  0.2636
43211W        W52011   2.831   5.864   4.689 -0.0740  0.0874  0.0699
43212W        W52012   7.167   5.185  24.404 -0.4707 -0.2756  0.2375
43213W        W52013  19.186   7.613  20.833  0.0172  0.2517  0.1036
43214W        W52014   7.853   2.505   5.736  0.0196 -0.1621  0.2159
43215W        W52015   1.643   3.866   6.404  0.0705 -0.3676 -0.3486
43216W        W52016   7.601   6.081   1.128 -0.0955 -0.0544  0.3718
43217W        W52017   3.610   4.326  16.016  0.2772  0.2042 -0.0671
43218W        W52018  28.035   1.262   4.279 -0.0900 -0.0573  0.1959
43219W        W52019  30.342   2.903  22.206 -0.1334  0.1223 -0.2442
43220W        W52020  24.015   4.537   1.193  0.1294 -0.0889  0.2552
43221W        W52021  15.607   4.731   7.758 -0.1965 -0.0837  0.0026
43222W        W52022   2.216   3.847  18.563  0.3183 -0.0445  0.1973
43223W        W52023   2.876   0.160   4.426 -0.0899 -0.1519  0.0727
43224W        W52024  28.307   2.396  17.047  0.0695  0.3254  0.0248
43225W        W52025  19.119   2.902  24.468  0.0237 -0.0441 -0.0537
43226W        W52026  18.588   7.026  25.326  0.0993 -0.1880  0.3370
43227W        W52027   0.800   2.191  24.107 -0.0206  0.1880 -0.1816
43228W        W52028  19.285   2.199  15.623  0.2080 -0.2233  0.3111
43229W        W52029  17.951   2.019   7.416 -0.2337 -0.3882 -0.2377
43230W        W52030  10.678   4.886   9.500 -0.0487 -0.1245  0.0245
43231W        W52031  29.163   0.805  16.243  0.0371  0.1668  0.0668
43232W        W52032  24.924   0.245  19.324  0.1910  0.0331 -0.2728
43233W        W52033  29.223   0.776   8.424  0.0071 -0.2606 -0.0737
43234W        W52034  27.925   3.096   2.268 -0.3038 -0.1727 -0.5646
43235W        W52035  18.032   7.041  17.730  0.0890 -0.1501  0.1531
43236W        W52036   2.189   2.102  21.561  0.0003  0.2818 -0.1680
43237W        W52037   2.948   6.180   3.169 -0.1794 -0.1952  0.0541
43238W        W52038   8.772   6.962   5.660 -0.1882  0.0201 -0.2794
43239W        W52039  13.823   1.724  17.629 -0.0535 -0.5068 -0.1946
43240W        W52040  17.306   3.972   5.514  0.2045  0.1581 -0.2737
43241W        W52041   7.486   6.815   3.155  0.1949 -0.6084 -0.0693
43242W        W52042   4.418   7.244  22.769  0.0582  0.1775 -0.2020
43243W        W52043   4.024   5.467   4.262 -0.0736  0.0264  0.2839
43244W        W52044  19.905   4.582   6.221 -0.0806  0.0347  0.1553
43245W        W52045  15.151   6.150   9.456  0.2149  0.1854  0.0822
43246W        W52046  27.220   3.716  18.599 -0.0614 -0.0553 -0.3038
43247W        W52047  20.109   4.900   1.726 -0.0864  0.0305 -0.3204
43248W        W52048  29.780   7.798   6.958  0.0581  0.2076  0.1463
43249W        W52049  17.350   1.660  18.271 -0.0689 -0.2493 -0.0088
43250W        W52050  29.501   7.580  16.444  0.1502 -0.0792  0.4041
43251W        W52051   1.710   7.425  22.548  0.1467  0.0113 -0.1463
43252W        W52052   0.311   2.008  23.092  0.2472 -0.1118 -0.0529
43253W        W52053  23.322   4.443  18.664  0.1333 -0.0742 -0.1679
43254W        W52054  29.606   6.690  16.798 -0.3502 -0.1918  0.0531
43255W        W52055  19.714   2.650  20.925 -0.1778  0.4918  0.3587
43256W        W52056  16.196   6.736  19.993 -0.0657  0.2885 -0.0690
43257W        W52057   4.755   0.025   2.635  0.0854  0.1233 -0.1435
43258W        W52058  24.294   7.170   0.658 -0.1427 -0.1010  0.0355
43259W        W52059  12.228   5.560  18.627 -0.3078  0.2523  0.1108
43260W        W52060  17.749   0.276   5.545  0.1220  0.2241 -0.0184
43261W        W52061  14.388   2.937  16.461  0.1648  0.4845 -0.0324
43262W        W52062   7.750   7.457   0.698  0.4056 -0.0108  0.0149
43263W        W52063  27.759   2.347  18.727  0.1816 -0.0574  0.0375
43264W        W52064   0.219   1.120  24.554  0.1869  0.2044  0.4569
43265W        W52065  27.972   7.175  10.272  0.0434 -0.0432 -0.3218
43266W        W52066  10.298   6.016   1.973  0.1027  0.0253  0.0077
43267W        W52067  19.065   4.256  23.280 -0.0061  0.2143 -0.1950
43268W        W52068  17.456   6.347   2.228 -0.0513 -0.1380 -0.0821
43269W        W52069   5.198   6.401  24.813  0.0974  0.0348  0.0948
43270W        W52070  12.906   5.727   0.056 -0.0014 -0.3176 -0.2142
43271W        W52071  22.751   6.084  22.561  0.1468  0.1016 -0.0423
43272W        W52072   6.143   2.046   4.415 -0.1630  0.1606 -0.2778
43273W        W52073  22.113   3.022  17.592 -0.0553 -0.3570  0.2107
43274W        W52074   2.850   0.747   9.629 -0.0434 -0.2769  0.0739
43275W        W52075  25.556   5.731  19.102  0.0153  0.3531 -0.2520
43276W        W52076   3.822   2.018   1.739 -0.2918 -0.2716 -0.1390
43277W        W52077  10.475   6.939  21.253 -0.0643  0.3133 -0.1582
43278W        W52078  19.732   7.579  25.707 -0.0051  0.0908  0.0567
43279W        W52079  28.256   7.217  15.793 -0.2561 -0.2228 -0.0970
43280W        W52080  10.439   0.937   8.360  0.3669 -0.3724  0.0071
43281W        W52081  14.394   5.130  19.363  0.1762 -0.0139  0.1199
43282W        W52082  10.863   4.291  25.950  0.1862  0.1348  0.2612
43283W        W52083  17.641   3.252  22.258 -0.2213 -0.2950  0.1738
43284W        W52084   1.631   1.274  18.046 -0.2240  0.0717 -0.1095
43285W        W52085  20.468   6.716   1.829 -0.0005 -0.0385  0.3464
43286W        W52086  12.862   2.917   4.697  0.0948  0.2148 -0.1032
43287W        W52087  25.682   3.567   2.638 -0.0184  0.3055  0.3346
43288W        W52088  14.912   2.647   3.691 -0.0509  0.1015  0.2934
43289W        W52089  20.362   6.221  25.965  0.0573 -0.0756 -0.0931
43290W        W52090  25.518   6.715  17.381 -0.0502 -0.1747  0.0044
43291W        W52091  25.534   3.129  21.376  0.1404  0.1094 -0.0101
43292W        W52092  20.100   3.738   3.642  0.1074  0.0282  0.2029
43293W        W52093   9.016   7.659   5.800 -0.1133 -0.1271  0.0096
43294W        W52094  18.198   4.927  16.241 -0.1032  0.0439  0.0067
43295W        W52095  22.192   1.472   0.831 -0.0450 -0.1433  0.0554
43296W        W52096  26.049   4.027  14.889  0.2086 -0.0189  0.1468
43297W        W52097  21.128   7.508  17.758  0.1418  0.3985  0.4347
43298W        W52098   0.756   3.628  12.132 -0.1068 -0.1614 -0.1029
43299W        W52099  29.448   3.419  23.006 -0.0067  0.3300 -0.1824
43300W        W52100  30.443   3.662   9.172  0.0925 -0.3108 -0.1869
43301W        W52101  12.997   7.615   8.458  0.1292  0.1604  0.0989
43302W        W52102   3.817   3.906   8.559 -0.0672  0.0541 -0.0397
43303W        W52103  10.703   2.174  19.105 -0.0977  0.0478 -0.2629
43304W        W52104  30.670   0.973   9.299  0.2120 -0.1314 -0.3607
43305W        W52105  19.417   4.268   9.169 -0.3607  0.0556 -0.1120
43306W        W52106   5.165   3.057   9.304 -0.1402 -0.3620  0.1424
43307W        W52107  30.130   3.946   4.268 -0.0413 -0.4386 -0.0267
43308W        W52108  30.982   1.748   0.995 -0.4488 -0.1172  0.1946
43309W        W52109   4.776   0.681  21.470 -0.0621 -0.1191 -0.0722
43310W        W52110  25.854   7.800   9.835  0.2585  0.4127  0.3479
43311W        W52111   2.660   1.176  23.518 -0.3008 -0.2363 -0.0024
43312W        W52112   8.263   7.015  15.248  0.2497 -0.3947 -0.2253
43313W        W52113  17.714   5.106  14.494 -0.0217  0.3379 -0.0331
43314W        W52114   4.570   4.775  17.873  0.1895 -0.2810  0.1126
43315W        W52115  23.482   5.499  17.802  0.0660  0.0447  0.0296
43316W        W52116   2.515   7.710   3.013  0.3576  0.1596 -0.3009
43317W        W52117  22.716   4.145   9.089  0.0631  0.0704  0.1479
43318W        W52118  12.600   1.698  23.069 -0.0618  0.0567 -0.1469
43319W        W52119  23.055   7.763   2.986  0.1323 -0.2175  0.1380
43320W        W52120   8.344   2.455  14.801  0.2095 -0.1139  0.0551
43321W        W52121  30.156   1.080  21.711  0.0724 -0.0238 -0.0482
43322W        W52122  25.393   3.983  20.596  0.1708 -0.1174  0.0613
43323W        W52123  27.206   4.828  17.497  0.3756 -0.0532  0.3912
43324W        W52124  13.100   4.321   7.016  0.1295  0.1278 -0.2150
43325W        W52125  24.415   4.086  21.803  0.1804 -0.2321 -0.2693
43326W        W52126  20.973   2.626   1.926 -0.1274  0.1636 -0.1313
43327W        W52127  20.600   1.758   5.747 -0.0363 -0.0463  0.0770
43328W        W52128   0.815   6.437   5.147  0.1415 -0.0323 -0.0855
43329W        W52129  12.777   6.199   2.260  0.0339 -0.2565 -0.1409
43330W        W52130  29.458   5.759  15.671 -0.0727  0.1233  0.0325
43331W        W52131   1.981   2.886  20.684 -0.1138 -0.1294  0.0060
43332W        W52132  20.456   1.465   0.014  0.0619 -0.0287 -0.2820
43333W        W52133  13.325   3.369   3.024 -0.0666 -0.0753 -0.0850
43334W        W52134  24.779   1.180  18.955 -0.2482  0.2382  0.3042
43335W        W52135  20.773   6.544   2.845  0.0404 -0.2006  0.0098
43336W        W52136  30.202   6.222   8.658 -0.0465 -0.3476  0.0347
43337W        W52137   3.211   2.463  23.654 -0.1116  0.1674 -0.0446
43338W        W52138  14.097   5.626   1.487  0.2206 -0.0889  0.1632
43339W        W52139  27.968   1.217   7.298 -0.0059  0.0921 -0.3936
43340W        W52140   6.892   7.190   2.701 -0.1790 -0.0469  0.0791
43341W        W52141   9.974   2.865   4.601 -0.1571  0.0112 -0.2888
43342W        W52142  23.817   2.193  25.946 -0.0226  0.4953 -0.1078
43343W        W52143   8.798   3.993  21.845 -0.2997  0.0944  0.0346
43344W        W52144   9.472   0.592   2.731  0.1680  0.0573 -0.0031
43345W        W52145   0.946   7.406   3.015 -0.0967  0.1713 -0.3567
43346W        W52146  19.230   5.354   8.867 -0.0781 -0.3627 -0.1218
43347W        W52147  11.849   1.376  20.250 -0.0795  0.1470  0.2361
43348W        W52148  29.697   0.327   6.549 -0.1972  0.1916  0.0082
43349W        W52149  27.918   5.411   9.868  0.1032  0.2209 -0.0623
43350W        W52150  31.240   2.499   2.478 -0.0225 -0.2048 -0.0288
43351W        W52151  21.263   2.207  16.096  0.2496  0.3404 -0.1988
43352W        W52152  30.965   3.132   1.824  0.0248  0.1141 -0.0947
43353W        W52153  27.409   0.844   5.012 -0.0277 -0.1223  0.0313
43354W        W52154  17.079   1.004   2.080 -0.0146  0.0890 -0.1696
43355W        W52155  20.682   7.574  19.523 -0.0110 -0.1206  0.1920
43356W        W52156  10.575   2.356   3.365  0.0189  0.2877 -0.0604
43357W        W52157  22.464   3.574  22.605 -0.0536  0.1449  0.4510
43358W        W52158  16.582   2.572  17.491 -0.0173  0.3709 -0.1889
43359W        W52159   7.362   7.757   0.324 -0.0434 -0.4026  0.0377
43360W        W52160  17.615   3.716  16.757  0.0547 -0.2421  0.0399
43361W        W52161   6.468   2.567   7.816 -0.2448  0.1783 -0.0459
43362W        W52162  12.690   4.104   7.975  0.0741 -0.2680  0.0209
43363W        W52163  23.740   7.370  26.002 -0.1455 -0.1058  0.0152
43364W        W52164   3.339   1.245  19.413  0.1365 -0.0296 -0.2857
43365W        W52165  29.346   7.259   0.127 -0.0108 -0.0249 -0.1773
43366W        W52166  28.655   2.228  17.329  0.1134 -0.0041  0.0695
43367W        W52167  22.547   7.736  18.705 -0.0612  0.2631  0.2482
43368W        W52168  17.809   1.208  17.080 -0.0707  0.1129  0.2031
43369W        W52169  22.219   6.571  21.243  0.0698 -0.0250 -0.0135
43370W        W52170   9.761   1.123   0.991  0.3245  0.3672  0.1687
43371W        W52171  11.212   1.393   4.043 -0.0221 -0.0395  0.1381
43372W        W52172  28.737   4.840  16.940 -0.0595  0.2669 -0.4227
43373W        W52173  13.282   7.280   1.828  0.1355  0.2028  0.1001
43374W        W52174  22.657   1.922  15.616 -0.2097  0.0581 -0.4678
43375W        W52175  17.997   4.711   6.657  0.3205  0.0944 -0.0370
43376W        W52176  16.679   6.808   5.608  0.0713  0.0714 -0.2808
43377W        W52177  18.849   3.325  18.005 -0.0171 -0.1558  0.2055
43378W        W52178  22.641   4.226   5.054 -0.2022  0.3114 -0.0414
43379W        W52179   1.803   2.110   8.513  0.1742 -0.2178 -0.5066
43380W        W52180   1.632   5.023   1.490  0.0487 -0.2508  0.0424
43381W        W52181   9.491   5.868  23.498 -0.1782  0.2991  0.0772
43382W        W52182  11.462   1.001   6.797  0.1139  0.1089 -0.0131
43383W        W52183  18.811   1.833  22.785 -0.2917  0.0015 -0.0092
43384W        W52184   9.917   7.579   2.752  0.0471 -0.0622  0.1503
43385W        W52185   9.459   3.725  25.995  0.1023 -0.0472 -0.1624
43386W        W52186   0.142   7.541   6.969 -0.3940  0.2342 -0.0085
43387W        W52187  18.179   6.080  17.486  0.1382  0.0816  0.2231
43388W        W52188   2.593   3.429  22.801 -0.1265  0.2021  0.1843
43389W        W52189  17.891   2.254  23.255  0.1407 -0.0078 -0.0106
43390W        W52190  11.942   0.520  19.329  0.0906  0.0254 -0.1839
43391W        W52191  24.735   3.171  17.610 -0.1699 -0.3292 -0.1325
43392W        W52192   2.050   2.932  16.548  0.0544 -0.0684 -0.0746
43393W        W52193  23.716   2.863  25.820  0.0174  0.2053 -0.1274
43394W        W52194   5.688   0.459  15.136 -0.3578 -0.0055  0.0358
43395W        W52195   9.189   5.646   2.675 -0.0795  0.1162 -0.2926
43396W        W52196  26.198   0.539   2.937 -0.3196 -0.1736  0.1341
43397W        W52197  23.582   1.529  22.959 -0.0063 -0.3576 -0.2354
43398W        W52198  12.573   0.838   5.433  0.3762  0.2058 -0.0427
43399W        W52199  25.075   2.830  17.386  0.3127 -0.1027  0.0610
43400W        W52200  19.131   2.336   0.427 -0.0389  0.0956 -0.1410
43401W        W52201  13.629   6.245   0.822  0.0993  0.2671 -0.1395
43402W        W52202   7.235   2.498  18.589 -0.3641  0.2891  0.1855
43403W        W52203  27.681   7.143  16.214 -0.0293 -0.1106 -0.1190
43404W        W52204   0.191   7.345  18.280 -0.1584  0.0375 -0.1214
43405W        W52205  11.175   0.591   6.778 -0.0223  0.4749  0.2355
43406W        W52206   6.018   7.094  19.835  0.0917 -0.0931  0.0809
43407W        W52207  26.227   4.090  20.503 -0.2375  0.2689 -0.1191
43408W        W52208  15.199   3.281  21.838 -0.1831  0.3770 -0.2354
43409W        W52209   0.011   3.093   8.241  0.6133 -0.1403 -0.0349
43410W        W52210  26.020   2.922  24.544  0.4300 -0.1560  0.0060
43411W        W52211  14.634   1.479  22.670  0.0853  0.0494  0.3565
43412W        W52212   4.605   5.914   2.390 -0.0618 -0.0080  0.0055
43413W        W52213  30.710   1.430   1.378  0.1749  0.0119  0.1539
43414W        W52214  24.822   2.333   0.900 -0.0196 -0.0213  0.0008
43415W        W52215   5.135   1.895  20.103 -0.0399 -0.0403  0.0227
43416W        W52216  12.504   5.192   6.184  0.0704 -0.1161  0.0312
43417W        W52217  22.551   6.425   9.659  0.0408 -0.3990  0.1421
43418W        W52218  15.240   4.271  25.125 -0.0765 -0.1013 -0.0210
43419W        W52219  17.045   2.268  10.252 -0.0710  0.1038  0.0477
43420W        W52220   4.916   0.513   9.259 -0.0849 -0.0801 -0.0520
43421W        W52221  13.804   1.318  20.973  0.0647  0.0685 -0.0933
43422W        W52222  13.307   0.970   4.166 -0.0584 -0.2999  0.0086
43423W        W52223  19.692   4.435  20.411  0.1349 -0.1021 -0.0816
43424W        W52224  29.143   2.153   4.285 -0.0516  0.0045  0.1244
43425W        W52225   9.415   3.749  16.161  0.0750  0.2482  0.1804
43426W        W52226  13.769   3.847  20.982  0.1462 -0.0216  0.0205
43427W        W52227  13.543   4.278   3.329 -0.0422 -0.1474 -0.1174
43428W        W52228  19.021   3.355  25.233 -0.2127 -0.0283  0.0200
43429W        W52229  10.241   0.573   0.931  0.0715 -0.0625 -0.2698
43430W        W52230  14.881   7.216  19.617  0.0954  0.2152  0.1820
43431W        W52231  12.205   2.723  21.791 -0.0349 -0.0418 -0.2067
43432W        W52232  13.613   3.549   4.411 -0.1693  0.0962  0.2661
43433W        W52233  10.988   4.474  17.319 -0.1805  0.1176 -0.0284
43434W        W52234   6.056   3.237   9.607  0.0564 -0.2760 -0.2745
43435W        W52235  28.304   2.573  15.959 -0.1498 -0.0305  0.1255
43436W        W52236  28.944   0.437  16.907  0.0392  0.0523  0.0726
43437W        W52237  15.143   1.355   1.664 -0.3300 -0.1748  0.1433
43438W        W52238   9.169   5.518  22.130  0.1015 -0.4329 -0.1168
43439W        W52239  14.963   2.510  18.035  0.1309 -0.3018  0.2073
43440W        W52240   8.411   4.883  21.058 -0.3723 -0.0460  0.0212
43441W        W52241   1.618   4.233  17.063  0.1198  0.1962 -0.3190
43442W        W52242  23.812   2.305  16.071 -0.3745 -0.2228  0.2078
43443W        W52243  17.545   2.843   7.578 -0.1010  0.0318 -0.1581
43444W        W52244  23.609   4.234  20.901  0.0917  0.3413  0.2106
43445W        W52245  30.759   7.236   7.610 -0.0237  0.0374  0.0825
43446W        W52246  12.347   6.126   3.123 -0.4300 -0.0347  0.1300
43447W        W52247   7.523   4.813   5.312 -0.0490  0.0312  0.0960
43448W        W52248   0.498   2.407  22.196 -0.0421  0.1836 -0.2377
43449W        W52249  29.947   7.192   8.268  0.0122  0.3914  0.1287
43450W        W52250   9.589   6.530   0.279 -0.0418 -0.1240  0.2182
43451W        W52251  20.487   7.263  24.839 -0.0323 -0.1113 -0.0155
43452W        W52252  29.438   5.748   1.753 -0.1146  0.0239  0.1743
43453W        W52253  15.283   3.845  10.151 -0.1781  0.1108 -0.0070
43454W        W52254  30.307   0.673  24.168 -0.0905  0.1088 -0.2337
43455W        W52255  29.448   6.310   1.758 -0.1070  0.1332  0.1663
43456W        W52256   2.327   2.690   6.201  0.1330  0.0494 -0.1002
43457W        W52257  19.965   2.990   0.516 -0.1111  0.0750  0.2109
43458W        W52258  15.406   2.672   8.221  0.0197  0.2413 -0.1356
43459W        W52259  10.790   1.426   4.329 -0.2281 -0.1981  0.0306
43460W        W52260  18.017   6.267   0.699  0.0327  0.0306  0.0578
43461W        W52261   7.422   1.709   2.422  0.0903  0.0122  0.0820
43462W        W52262  14.619   6.351  20.382  0.1425 -0.0733 -0.0155
43463W        W52263  22.091   5.069  23.698  0.1792 -0.2896 -0.0199
43464W        W52264  14.579   2.287  21.791 -0.0401  0.1073 -0.0058
43465W        W52265  26.163   2.698   6.759 -0.1010 -0.2359 -0.0713
43466W        W52266  30.692   2.138   1.098 -0.1694  0.0907  0.1136
43467W        W52267  13.266   4.212  19.595  0.0265 -0.0323  0.2302
43468W        W52268   7.893   0.915  15.360  0.0933  0.0305 -0.0011
43469W        W52269  12.236   5.557   3.007 -0.1564 -0.2226  0.0923
43470W        W52270  19.829   4.922  25.152 -0.1707  0.0559 -0.1167
43471W        W52271  21.087   1.906   9.542 -0.3144 -0.5817 -0.0453
43472W        W52272   0.198   3.306  20.021  0.0373 -0.0335 -0.1322
43473W        W52273  19.628   7.228   6.360  0.3634 -0.0623  0.0150
43474W        W52274  16.444   1.240  22.957  0.1590 -0.0760  0.1661
43475W        W52275  11.148   3.131   5.499  0.1116  0.1151  0.0576
43476W        W52276   1.924   2.972  25.547 -0.2011 -0.3155 -0.1270
43477W        W52277  18.877   0.879   2.155  0.1858 -0.2145  0.0156
43478W        W52278  17.623   6.909  19.129  0.4685  0.3578 -0.2041
43479W        W52279  22.849   5.524  26.044  0.2518 -0.1000 -0.2427
43480W        W52280  16.457   1.673   0.051  0.3313  0.0351  0.0723
43481W        W52281  30.022   1.965  20.158 -0.1636  0.2306  0.0249
43482W        W52282  25.313   3.713  18.931 -0.1553  0.2132 -0.3700
43483W        W52283  17.957   0.675  23.712  0.0807  0.2187  0.1171
43484W        W52284  28.003   6.897   1.877  0.0345 -0.1435 -0.1948
43485W        W52285  13.730   1.781   2.675  0.0496 -0.3949 -0.0719
43486W        W52286  29.441   3.972   9.582  0.5151  0.1710 -0.1921
43487W        W52287  19.452   7.067   3.108  0.2614 -0.0278  0.0171
43488W        W52288  20.565   2.059   2.795 -0.1274 -0.0495  0.0202
43489W        W52289  27.081   5.388   8.576 -0.0819 -0.1137  0.1915
43490W        W52290  19.478   3.090   0.772 -0.1816  0.1933  0.0391
43491W        W52291  14.442   5.562  24.058 -0.0312 -0.1067  0.3648
43492W        W52292   1.156   2.272  17.050  0.1166 -0.0537 -0.0348
43493W        W52293   1.235   7.090  16.306 -0.1327  0.0348 -0.2518
43494W        W52294   9.964   1.921   6.187  0.3435  0.0805 -0.1273
43495W        W52295   7.381   2.308   8.104 -0.0865  0.0744  0.0733
43496W        W52296   4.127   4.264  15.995  0.0949  0.0615 -0.2010
43497W        W52297  16.889   7.337   2.959  0.4672  0.2212 -0.2625
43498W        W52298  11.923   0.922   0.922  0.1895  0.3406  0.2523
43499W        W52299  14.208   4.899  22.873 -0.3654 -0.0380  0.1356
43500W        W52300  14.471   7.157   3.057  0.1184 -0.2133  0.0796
43501W        W52301  21.370   6.089   5.058  0.1964  0.3255  0.1880
43502W        W52302  14.429   5.716   6.578  0.1862 -0.0369  0.2223
43503W        W52303  26.320   0.998   2.122 -0.0823  0.1044  0.0588
43504W        W52304  27.119   3.482  11.034 -0.0146  0.2653 -0.0560
43505W        W52305  24.545   5.312  22.487  0.3565  0.0897 -0.0244
43506W        W52306  30.229   5.429  18.664  0.0401  0.0028 -0.0517
43507W        W52307  29.252   0.944   4.399  0.3195 -0.3524  0.0936
43508W        W52308   9.303   1.718  21.338 -0.1285 -0.2264 -0.2780
43509W        W52309  14.142   1.515   5.389  0.0930 -0.0303 -0.1194
43510W        W52310  26.148   3.043  22.620 -0.0668 -0.1307  0.0203
43511W        W52311  22.730   3.257   5.521  0.3384 -0.3132  0.0520
43512W        W52312  11.418   3.103  15.641  0.3136 -0.0920  0.1158
43513W        W52313  26.347   4.500   9.663 -0.3087  0.0634  0.2257
43514W        W52314   8.934   6.483   3.762 -0.1533  0.2095 -0.3026
43515W        W52315   2.708   5.688   7.120  0.1237 -0.1192  0.1600
43516W        W52316  17.761   6.923  26.049  0.0342 -0.0689 -0.0910
43517W        W52317  13.227   0.599   0.342 -0.1936 -0.1496 -0.2862
43518W        W52318  18.148   2.575  22.847 -0.1706 -0.0759  0.0475
43519W        W52319  25.984   1.544  20.176 -0.1632 -0.1325  0.0071
43520W        W52320   1.800   7.197  12.066 -0.0601 -0.0879  0.0611
43521W        W52321  27.036   1.450  14.775 -0.2501  0.2017 -0.2111
43522W        W52322  24.813   0.789   5.899  0.0234 -0.1087 -0.0175
43523W        W52323  27.192   4.573   0.923 -0.0668  0.1240  0.3074
43524W        W52324   6.041   5.378  22.398 -0.2614  0.2507  0.1472
43525W        W52325  18.381   2.980   1.177 -0.1601  0.0280 -0.1090
43526W        W52326  12.829   6.202   3.090  0.1304 -0.3969 -0.1801
43527W        W52327  27.571   3.541   6.720 -0.0700  0.1141  0.0675
43528W        W52328  25.492   5.305  24.898 -0.0997  0.0047  0.1138
43529W        W52329  12.657   2.064  21.140  0.0314 -0.1335 -0.0824
43530W        W52330   9.731   1.575   2.750 -0.0023 -0.0416  0.0186
43531W        W52331   0.769   6.872   1.005 -0.0417  0.1933  0.1260
43532W        W52332  15.551   7.080  24.460  0.2014 -0.0676 -0.1230
43533W        W52333  15.856   2.605   8.465 -0.1453  0.0370 -0.0266
43534W        W52334   2.996   2.740   6.743  0.1276 -0.2535  0.0330
43535W        W52335  16.505   2.750   8.705 -0.0651 -0.0717  0.2859
43536W        W52336  26.442   3.471  25.423  0.3002  0.0785  0.2893
43537W        W52337  20.576   0.590  22.120  0.0112 -0.3377  0.1825
43538W        W52338   3.920   6.955   9.287  0.0624 -0.2101  0.1831
43539W        W52339  25.946   7.417  20.729  0.0674  0.0194  0.3006
43540W        W52340  25.126   4.181   7.865 -0.1411  0.0480  0.0566
43541W        W52341  11.722   3.183   2.639 -0.0240 -0.0646 -0.3644
43542W        W52342  15.575   4.524  23.454 -0.0966  0.1162  0.0773
43543W        W52343   2.503   0.466  10.721 -0.2795  0.0488  0.0325
43544W        W52344  19.644   1.636  22.240 -0.1103  0.0761  0.1901
43545W        W52345  27.783   7.505   8.584 -0.1488  0.0724  0.0288
43546W        W52346  28.963   6.665   2.457 -0.1335  0.1570 -0.1557
43547W        W52347  13.814   3.543  19.386  0.1353 -0.1519  0.1261
43548W        W52348   9.252   7.089   6.432  0.1384 -0.1709 -0.0244
43549W        W52349  22.072   2.751   3.730  0.0767  0.2215  0.1760
43550W        W52350  11.913   2.652   1.239 -0.0407 -0.0796  0.0676
43551W        W52351  10.356   1.398  22.084  0.1923  0.0706  0.3046
43552W        W52352  16.362   3.559   4.278  0.2547 -0.0057 -0.3306
43553W        W52353  15.311   1.561  17.973 -0.0536  0.1380 -0.4681
43554W        W52354  20.067   5.580  25.292 -0.0227 -0.2030  0.0920
43555W        W52355   8.690   1.831   9.349 -0.2932  0.0265  0.0272
43556W        W52356  11.396   0.204  20.148  0.0393  0.0210  0.1311
43557W        W52357  24.214   5.058  22.227 -0.0400  0.1545 -0.1761
43558W        W52358  22.935   6.554  25.943 -0.1837 -0.1481 -0.3079
43559W        W52359  21.227   3.381   5.211  0.0118  0.1296  0.0824
43560W        W52360  24.546   0.853  15.325 -0.1003 -0.0109 -0.0360
43561W        W52361  15.961   7.005   6.115  0.2100  0.2019 -0.1870
43562W        W52362   0.645   5.945  16.397  0.1983 -0.1652  0.3178
43563W        W52363  12.129   1.176  16.855  0.2000  0.1738  0.0684
43564W        W52364  23.993   1.770   7.387 -0.0503  0.1851 -0.0140
43565W        W52365  27.730   7.021   9.736 -0.0186 -0.0464 -0.0999
43566W        W52366  18.882   4.112   7.441  0.3907 -0.1133 -0.2733
43567W        W52367  28.894   5.318  20.173 -0.0031  0.0733  0.1460
43568W        W52368  21.221   7.775  24.403  0.1490 -0.0242  0.2275
43569W        W52369  29.142   3.030  15.611  0.0387 -0.2361 -0.0262
43570W        W52370   4.182   3.385   2.319 -0.2142  0.1752 -0.0824
43571W        W52371  15.796   5.361  18.601  0.1574 -0.0575  0.2103
43572W        W52372   1.485   1.046   3.359 -0.1804  0.0360 -0.0350
43573W        W52373  19.975   3.314   9.866  0.1284  0.1965 -0.5826
43574W        W52374  15.506   3.816   1.679  0.0909  0.1631  0.1391
43575W        W52375  10.619   0.106  24.803 -0.2198  0.0332 -0.0238
43576W        W52376   4.351   3.320  24.250  0.2166  0.0097  0.0228
43577W        W52377   7.182   5.159   2.303 -0.3522 -0.0478 -0.0334
43578W        W52378  16.191   3.380   7.416  0.1213  0.1132 -0.1673
43579W        W52379  24.005   3.764   7.954 -0.3249  0.1383 -0.1523
43580W        W52380  27.647   0.962  21.997  0.0038 -0.2156  0.0068
43581W        W52381   8.731   5.666   7.416 -0.1574  0.1384 -0.0216
43582W        W52382  13.080   2.573  26.173 -0.2757 -0.0126  0.0113
43583W        W52383  25.728   2.778   0.083 -0.2106 -0.2297 -0.2618
43584W        W52384   2.691   4.672   1.583  0.1791 -0.0099 -0.0236
43585W        W52385   6.312   1.400  22.077  0.2770  0.0055 -0.0865
43586W        W52386  31.190   4.752   8.321 -0.4652  0.1236 -0.2100
43587W        W52387   0.836   2.029   8.953  0.0692 -0.0282 -0.0460
43588W        W52388   8.962   4.241   0.864 -0.3445  0.1893 -0.0655
43589W        W52389  19.867   0.607  18.657  0.1152  0.0820  0.3632
43590W        W52390  16.639   6.766   6.679 -0.0991 -0.0953 -0.2495
43591W        W52391   3.894   3.691  24.164 -0.1724 -0.1798 -0.1680
43592W        W52392  28.379   0.244  10.037 -0.2140 -0.0984 -0.0061
43593W        W52393  27.160   1.276  17.888 -0.2644  0.2259  0.1352
43594W        W52394   6.444   1.233   0.898 -0.2389  0.0968  0.1505
43595W        W52395  18.947   7.227   1.412 -0.1630 -0.0664  0.2330
43596W        W52396   9.213   6.293  18.194  0.0357  0.0538 -0.2421
43597W        W52397   8.201   2.892  15.278 -0.0581  0.1474  0.0183
43598W        W52398   2.824   1.246  16.830  0.0734 -0.1526 -0.0103
43599W        W52399  27.211   3.833   0.012 -0.1230 -0.1549 -0.2582
43600W        W52400  25.636   0.602  10.348 -0.0404 -0.0746 -0.1591
43601W        W52401  28.997   2.503  22.697  0.1248 -0.0034  0.1032
43602W        W52402  21.374   1.740  21.573 -0.1631 -0.1931 -0.0056
43603W        W52403   8.958   2.128   7.299  0.0433  0.0473  0.1375
43604W        W52404  26.689   4.671   1.094 -0.0165 -0.3432 -0.0927
43605W        W52405  19.229   7.502   7.715 -0.1107  0.0014 -0.0978
43606W        W52406  11.070   7.388  17.575 -0.1632  0.0202 -0.1339
43607W        W52407  18.370   0.897  21.092  0.1344  0.2144 -0.0238
43608W        W52408   9.362   5.489  19.992 -0.1112 -0.0216 -0.4365
43609W        W52409  27.124   0.312   5.096  0.0375 -0.0734 -0.2923
43610W        W52410  21.456   1.036  20.113 -0.1892 -0.0935 -0.1685
43611W        W52411  23.843   1.055   4.450 -0.2760  0.0031 -0.1750
43612W        W52412  25.842   4.201   9.006 -0.0509 -0.0126  0.0586
43613W        W52413  25.838   3.292   0.264  0.1831 -0.1525  0.2732
43614W        W52414   2.011   4.170   5.358 -0.1656  0.0578  0.0340
43615W        W52415   6.129   6.601  17.636  0.2066 -0.1610 -0.0165
43616W        W52416   4.843   1.150  18.689  0.2730  0.2144  0.0893
43617W        W52417   7.355   3.126  24.228  0.0989 -0.2749 -0.0097
43618W        W52418   5.935   5.997   7.219 -0.1677 -0.1159  0.0242
43619W        W52419   6.386   2.509   9.029  0.1453  0.2768 -0.0989
43620W        W52420   2.591   0.054  19.099 -0.3970 -0.0551  0.0575
43621W        W52421  27.908   7.606  24.411 -0.1336 -0.0854  0.0182
43622W        W52422  24.680   7.727   6.548  0.1132 -0.1478 -0.2496
43623W        W52423  14.844   6.461   8.598  0.1640 -0.3345 -0.0204
43624W        W52424   4.241   3.609  17.131 -0.2213 -0.1929 -0.1917
43625W        W52425  24.742   0.002   4.573  0.1268  0.0092 -0.2539
43626W        W52426  22.986   7.676  25.426  0.3146  0.0750 -0.0684
43627W        W52427  11.128   4.434   5.189  0.2898  0.0704  0.0753
43628W        W52428  11.201   5.355  15.213  0.0060  0.1865 -0.0168
43629W        W52429  28.166   6.079   1.127 -0.0491 -0.0621 -0.0981
43630W        W52430  23.211   1.771   7.891  0.0337  0.1404  0.2274
43631W        W52431  14.009   5.335   2.551  0.1161  0.0628  0.1394
43632W        W52432   0.551   3.303  11.181  0.0568 -0.3094  0.1458
43633W        W52433  12.650   4.139   2.729  0.1118  0.0231  0.0063
43634W        W52434  13.686   0.470   0.602 -0.0789  0.3459 -0.2670
43635W        W52435  28.656   7.796   2.022  0.0747 -0.1157  0.0652
43636W        W52436   2.528   2.909   4.566  0.2254 -0.2727  0.0124
43637W        W52437   9.307   7.540   4.473 -0.1978  0.1730 -0.1350
43638W        W52438  16.941   3.187  15.563 -0.2053  0.1979  0.2130
43639W        W52439   1.814   2.058  25.939 -0.3053 -0.0122 -0.1151
43640W        W52440  14.847   6.171  25.020 -0.0190  0.0381  0.0525
43641W        W52441  24.079   1.876   6.084  0.0262 -0.2758 -0.0241
43642W        W52442   4.495   6.021  21.011  0.3457  0.2683 -0.1439
43643W        W52443   4.088   7.481   4.858 -0.1767 -0.0373 -0.3456
43644W        W52444  29.691   3.051   2.387  0.1540  0.0387  0.0065
43645W        W52445  18.227   2.689   6.705  0.1030 -0.0223 -0.1355
43646W        W52446  26.319   0.613   0.348 -0.1514  0.2114  0.2402
43647W        W52447   1.369   3.590  24.966  0.0786 -0.1499  0.0270
43648W        W52448   4.541   1.640   6.172  0.0381 -0.0522 -0.0293
43649W        W52449  26.969   1.241  10.686  0.1617  0.1712  0.3583
43650W        W52450  11.619   5.737  24.704  0.0609  0.0700  0.2316
43651W        W52451   9.995   3.442   2.775  0.2206  0.0555 -0.1756
43652W        W52452  25.206   2.983   6.848  0.0446 -0.2735  0.2004
43653W        W52453  26.147   5.747  23.026  0.1011 -0.1012 -0.0980
43654W        W52454   6.013   5.672  21.989 -0.1075  0.2758  0.1196
43655W        W52455   4.223   7.413   5.359  0.0554 -0.0665 -0.1363
43656W        W52456  15.251   1.686  17.428  0.1735  0.2962  0.1925
43657W        W52457  25.949   3.871  17.753 -0.1418 -0.1523 -0.0071
43658W        W52458  23.071   5.957  18.428 -0.1203  0.0398  0.1722
43659W        W52459   0.110   5.954  23.897 -0.1612  0.2754  0.3505
43660W        W52460  20.898   5.291   8.377  0.0126  0.0211  0.0524
43661W        W52461  25.249   3.458  22.380  0.1727  0.0096  0.1175
43662W        W52462   7.602   4.367   0.722  0.2063  0.1699 -0.0019
43663W        W52463  10.537   5.879   4.401 -0.0928  0.2503  0.4427
43664W        W52464   0.419   5.536   2.567 -0.0420  0.0801  0.2047
43665W        W52465   9.633   5.613  16.022  0.3407  0.1129  0.2619
43666W        W52466  16.645   3.045  22.277  0.0299 -0.2943 -0.1609
43667W        W52467  18.996   3.628  17.215  0.0543 -0.1870  0.1959
43668W        W52468  29.586   2.395   9.634  0.3286 -0.0144 -0.1194
43669W        W52469  28.073   7.508  23.093 -0.0574  0.1191 -0.0835
43670W        W52470  22.224   3.692   7.975 -0.4237  0.0180 -0.0842
43671W        W52471  22.700   4.407  20.238 -0.1039  0.2254  0.0520
43672W        W52472  26.089   6.138  10.322 -0.5058  0.3400 -0.3614
43673W        W52473  14.517   4.919   4.618 -0.0412 -0.4461 -0.0911
43674W        W52474  10.163   3.074   2.309 -0.1320  0.0338 -0.0934
43675W        W52475  21.650   5.566  16.283 -0.1230 -0.0193 -0.2002
43676W        W52476   4.458   6.920   2.839 -0.0809 -0.0449  0.0670
43677W        W52477  28.645   4.676  15.495 -0.0581  0.2627 -0.1619
43678W        W52478  15.004   3.983   4.962 -0.0055 -0.2361  0.2476
43679W        W52479   0.573   4.343   1.981  0.0254  0.1266 -0.0115
43680W        W52480  20.518   6.313   3.932 -0.0147 -0.1483  0.2053
43681W        W52481  10.991   3.682   2.545 -0.0206 -0.0200  0.0488
43682W        W52482  30.602   2.941  25.020  0.2370 -0.0646  0.0319
43683W        W52483  12.572   0.742   8.043 -0.1948  0.1890  0.0181
43684W        W52484  19.478   6.129  23.243 -0.1923  0.0026  0.0717
43685W        W52485  25.064   6.793   3.431  0.1096  0.1452  0.0382
43686W        W52486   2.325   2.867  24.338 -0.0020  0.0209 -0.3166
43687W        W52487  24.311   3.236  22.857  0.4250  0.1544  0.0476
43688W        W52488   2.834   6.011  25.849 -0.1453  0.0704 -0.0940
43689W        W52489  14.807   2.432   6.949 -0.2551  0.0148  0.0337
43690W        W52490  29.370   5.767   6.414  0.3679 -0.2019  0.1616
43691W        W52491  20.062   5.835   6.839 -0.0143 -0.3927 -0.1083
43692W        W52492   8.150   0.413  15.153 -0.1522  0.0553 -0.2155
43693W        W52493  26.598   2.909   6.628  0.2307 -0.1086 -0.0850
43694W        W52494  17.178   6.707  20.201 -0.2724 -0.0801 -0.0085
43695W        W52495   1.792   2.154   6.741  0.3032 -0.0840  0.1024
43696W        W52496  22.693   3.435  24.900  0.3579 -0.0986  0.0886
43697W        W52497  28.892   2.461  22.220  0.0780  0.0771  0.0862
43698W        W52498  23.568   1.318   4.840  0.0176  0.0535 -0.1218
43699W        W52499   5.548   6.381   7.471  0.1361  0.4099  0.0210
43700W        W52500   3.580   5.279   2.094  0.2405  0.1697 -0.0479
43701W        W52501   7.026   0.198   2.134 -0.0276  0.0403 -0.1578
43702W        W52502   4.543   6.545  21.168  0.0151 -0.1857  0.2292
43703W        W52503  16.219   1.158   3.987 -0.0466 -0.1086  0.1921
43704W        W52504  30.737   1.392  10.010 -0.2372 -0.1868 -0.0305
43705W        W52505   0.266   2.204  26.187  0.0161  0.1267 -0.0314
43706W        W52506  27.370   5.705  23.562 -0.0073 -0.1196  0.0551
43707W        W52507   5.065   1.642  10.290  0.0301  0.2373  0.1070
43708W        W52508   4.942   5.876  20.844 -0.1663  0.1259  0.0273
43709W        W52509   5.615   2.115   1.033 -0.2874  0.0892  0.2189
43710W        W52510   9.391   5.506   8.384  0.1409 -0.2133  0.0572
43711W        W52511  16.891   7.016   6.339 -0.3342 -0.0372  0.2494
43712W        W52512  22.148   4.886   2.861 -0.2311 -0.1652 -0.0354
43713W        W52513   4.085   4.358   8.711  0.3024 -0.1163  0.0100
43714W        W52514  23.621   6.741  10.751 -0.0392  0.2254  0.2340
43715W        W52515   6.569   1.087   6.689  0.1438  0.1659  0.0370
43716W        W52516  21.914   3.245   6.643  0.0071  0.2717  0.2177
43717W        W52517  14.015   6.200   4.553  0.0272 -0.2198  0.0054
43718W        W52518  12.934   0.800  22.413  0.1713 -0.4178 -0.0390
43719W        W52519  25.987   6.354  26.033  0.1640 -0.0702  0.1762
43720W        W52520  11.643   0.773   8.692  0.3341  0.1328  0.1890
43721W        W52521  26.367   1.833   7.436  0.0305 -0.0991 -0.0892
43722W        W52522  29.733   6.586  17.790  0.1520  0.0360 -0.1268
43723W        W52523  15.511   2.811  24.566 -0.1408 -0.2752  0.0325
43724W        W52524  10.023   7.130  21.267  0.0803  0.0089 -0.1494
43725W        W52525  25.902   1.629  22.417  0.0763 -0.1202  0.1594
43726W        W52526  22.386   1.217  19.189 -0.0676 -0.0834 -0.0347
43727W        W52527  16.022   1.585  10.246 -0.4622  0.0510 -0.2113
43728W        W52528   2.339   2.252   6.561 -0.1358 -0.3181  0.0266
43729W        W52529   7.700   5.921   5.497 -0.0929 -0.1282  0.1354
43730W        W52530  25.636   4.028  21.527 -0.0085  0.0454  0.0207
43731W        W52531  27.410   4.795  20.005  0.0518 -0.3300  0.0864
43732W        W52532  30.456   0.431   6.205 -0.0203 -0.0576 -0.0107
43733W        W52533   6.861   7.166   4.588 -0.3590  0.0414 -0.0998
43734W        W52534  22.199   2.335   1.759 -0.1302 -0.1701  0.2959
43735W        W52535   8.280   5.381  25.797  0.0469  0.4419 -0.0701
43736W        W52536   3.942   6.567  24.395 -0.0303  0.0930  0.0061
43737W        W52537  14.169   4.503  10.416  0.1552  0.0130  0.0580
43738W        W52538  18.185   3.369  24.312  0.2132  0.1750  0.0844
43739W        W52539   0.817   4.057   4.404  0.3243 -0.0810  0.0752
43740W        W52540   3.888   2.590   9.186 -0.0251 -0.0869 -0.2172
43741W        W52541  18.269   0.726   1.417 -0.0140  0.1153  0.0070
43742W        W52542   9.658   4.868  17.050  0.0101  0.0603 -0.1683
43743W        W52543  12.352   6.201  21.482  0.0113 -0.0283  0.2345
43744W        W52544  23.863   3.080  20.466 -0.4586  0.3589 -0.0369
43745W        W52545   3.376   4.712   6.108  0.2158  0.0829  0.0312
43746W        W52546   7.398   5.826   1.510  0.1828  0.0307  0.0282
43747W        W52547  21.269   1.165   7.756  0.0459 -0.1832  0.1496
43748W        W52548   0.882   7.024   4.967 -0.1695  0.1887  0.0930
43749W        W52549  23.824   1.851   8.601  0.1721 -0.0503 -0.0963
43750W        W52550  21.441   1.994   6.295 -0.0000  0.1801  0.0398
43751W        W52551  16.899   4.032   6.714  0.1362 -0.0741 -0.1379
43752W        W52552  14.020   7.156  20.944 -0.3586 -0.0715  0.0550
43753W        W52553  18.319   4.742  18.760  0.1890 -0.2771  0.2230
43754W        W52554  12.039   0.510  14.735 -0.2976  0.0677 -0.2522
43755W        W52555  12.680   5.160   6.654 -0.2342 -0.2074 -0.2703
43756W        W52556  10.988   3.989  16.992 -0.0341  0.1300  0.0565
43757W        W52557   2.257   6.953  26.081 -0.3410  0.0601 -0.0663
43758W        W52558   7.555   2.457  15.142 -0.0148  0.0172 -0.1787
43759W        W52559   2.718   1.199  17.753 -0.3620 -0.2238  0.1251
43760W        W52560  23.756   4.340   9.280  0.2603  0.1355 -0.2852
43761W        W52561  26.631   4.521  20.581  0.3147  0.1448  0.0469
43762W        W52562  12.091   2.818   2.645 -0.1323  0.1380 -0.0329
43763W        W52563  23.308   5.695   5.862 -0.1558 -0.0993  0.0994
43764W        W52564  18.579   4.435  23.476  0.1779  0.0327  0.0558
43765W        W52565  29.639   4.370   4.135  0.0429 -0.1650 -0.0839
43766W        W52566  24.477   6.439   9.561  0.0808 -0.2401 -0.1980
43767W        W52567  28.526   3.490  19.970  0.0213  0.1316  0.0721
43768W        W52568  27.195   5.339  20.506  0.1673  0.1268  0.1406
43769W        W52569  15.908   5.704   8.857 -0.1882 -0.0650  0.1280
43770W        W52570  27.005   4.562  21.321 -0.2947 -0.0443  0.2869
43771W        W52571  29.634   0.558   3.782  0.1389  0.0337 -0.0336
43772W        W52572   7.667   5.464   1.747  0.0503  0.0204 -0.1333
43773W        W52573  23.997   2.146  22.378  0.2377 -0.1884 -0.0799
43774W        W52574   5.555   3.508  25.025  0.2276  0.0553 -0.0205
43775W        W52575  21.617   5.800   8.913 -0.0290 -0.1385  0.0209
43776W        W52576  16.526   0.817  15.714  0.0981  0.0723 -0.2727
43777W        W52577  27.609   6.279  17.958 -0.1643 -0.1121 -0.2587
43778W        W52578  17.435   5.927  20.227 -0.1016 -0.0273 -0.2440
43779W        W52579  12.893   1.833  18.846 -0.2820  0.3893 -0.0993
43780W        W52580  26.721   6.805  10.804 -0.1380 -0.0039 -0.0402
43781W        W52581  28.965   7.665   9.255 -0.2436 -0.1977 -0.3703
43782W        W52582  18.565   2.922  15.480 -0.1731  0.1813  0.0408
43783W        W52583  27.235   2.514  17.291  0.0615 -0.2298  0.0046
43784W        W52584  26.064   4.809  24.950 -0.0586 -0.1001  0.3492
43785W        W52585  30.232   2.685   1.200 -0.1112  0.0074  0.0370
43786W        W52586   0.074   2.400  17.896  0.2308  0.0625 -0.0424
43787W        W52587   3.975   0.757  20.917  0.1142  0.0951 -0.1865
43788W        W52588   2.102   1.611  10.052 -0.0197 -0.2441 -0.0899
43789W        W52589   6.414   6.845   4.512  0.3049 -0.0191  0.0505
43790W        W52590  12.887   6.830  18.185  0.1232 -0.0986  0.0042
43791W        W52591  26.785   0.253   6.162  0.0267  0.1495 -0.2099
43792W        W52592  17.258   7.565   8.476 -0.1176  0.1564  0.0702
43793W        W52593   9.457   2.659   7.688 -0.1015  0.1479  0.1231
43794W        W52594  23.412   2.012  25.711  0.2407  0.1213  0.2652
43795W        W52595  20.594   1.400   6.234 -0.0281 -0.0002  0.0089
43796W        W52596  27.998   3.724  23.576  0.3330 -0.2753 -0.1397
43797W        W52597  30.575   7.309  17.425 -0.0207 -0.1262  0.0967
43798W        W52598  27.661   0.305   6.746  0.0286  0.0162 -0.0130
43799W        W52599   2.893   6.265  25.303  0.2475 -0.0488  0.0596
43800W        W52600   6.112   0.756   7.542 -0.0520 -0.0037  0.0433
43801W        W52601  13.211   0.068   1.292  0.1023  0.0326  0.0602
43802W        W52602  15.359   0.329   8.084 -0.1359  0.1185 -0.0598
43803W        W52603   2.498   1.441  24.905  0.3091 -0.2006 -0.3523
43804W        W52604   4.800   4.803  16.651 -0.1260  0.3370 -0.2466
43805W        W52605  13.480   1.530   8.209  0.1421 -0.1491  0.1365
43806W        W52606   6.332   2.927   6.895 -0.0414 -0.4045 -0.1311
43807W        W52607   9.086   0.899   2.951  0.2055  0.2679 -0.0790
43808W        W52608  12.149   7.145   2.382  0.0404 -0.1272  0.0219
43809W        W52609  22.039   3.222  17.119 -0.1003  0.4332 -0.0741
43810W        W52610  19.541   1.751  20.518 -0.0375  0.1696 -0.1274
43811W        W52611  12.517   5.804   0.944 -0.2725  0.1663  0.1298
43812W        W52612  29.434   2.503   6.863  0.2204  0.0854  0.0920
43813W        W52613   6.040   3.313  16.827  0.1250  0.2328  0.1534
43814W        W52614  19.014   7.108   9.756 -0.0690  0.0640  0.0450
43815W        W52615  10.935   3.685  23.960  0.0069 -0.1356 -0.0102
43816W        W52616   6.126   2.237  19.148  0.3537  0.1101 -0.1247
43817W        W52617   5.070   3.814  21.820 -0.3547  0.1437  0.1693
43818W        W52618  30.807   0.726   7.099  0.0681  0.0333 -0.0607
43819W        W52619  24.401   4.531  15.976  0.2388 -0.0029 -0.2154
43820W        W52620   7.962   4.127  17.416 -0.1444 -0.3080  0.0517
43821W        W52621  10.624   7.732  23.115  0.3501 -0.0197  0.0157
43822W        W52622   1.339   6.338  11.861  0.0179  0.0626  0.4524
43823W        W52623  13.017   3.726  23.241 -0.2949  0.0071  0.0690
43824W        W52624   9.476   6.435   5.147  0.3154  0.4494  0.0548
43825W        W52625  21.282   6.318   7.620  0.0887 -0.0622 -0.0493
43826W        W52626   6.363   0.458  22.005 -0.4560 -0.1025 -0.1622
43827W        W52627  17.741   1.176   5.365 -0.0675  0.1770 -0.1611
43828W        W52628  12.760   7.750  16.724  0.3120 -0.1661 -0.2317
43829W        W52629  24.245   7.221  25.296  0.0177 -0.2534  0.0343
43830W        W52630  18.849   7.543  19.381 -0.2473 -0.1229  0.1401
43831W        W52631   9.148   5.263   8.896 -0.3571 -0.2194 -0.0622
43832W        W52632   9.964   3.582  25.792 -0.0510  0.0478  0.1164
43833W        W52633  13.392   4.318   6.166 -0.2645  0.1228  0.1547
43834W        W52634  22.342   1.871  16.066  0.0887  0.1005  0.1759
43835W        W52635  25.786   0.489   8.754  0.0939 -0.1717  0.1937
43836W        W52636  21.262   0.345   1.574  0.0639  0.0761 -0.0876
43837W        W52637  30.415   2.220   8.707 -0.0252  0.0726 -0.0433
43838W        W52638  18.351   0.401   6.836  0.2912  0.0706  0.1235
43839W        W52639   6.379   7.491  25.667 -0.1144  0.0157  0.0357
43840W        W52640   3.952   3.698   0.584 -0.1257  0.2835 -0.0181
43841W        W52641  28.566   2.261   6.481 -0.2140  0.1193 -0.2682
43842W        W52642  10.043   5.883  21.540  0.2087  0.1182 -0.1979
43843W        W52643  20.880   2.681  17.466  0.3192  0.1289  0.1441
43844W        W52644  12.377   7.791  19.545 -0.0377 -0.0904 -0.2329
43845W        W52645  21.525   7.382   6.963  0.1027  0.1590 -0.2557
43846W        W52646  14.898   3.354  23.082 -0.3475 -0.1104 -0.2984
43847W        W52647  11.000   2.236   9.688 -0.1106 -0.0915 -0.3659
43848W        W52648  20.387   5.978   1.048 -0.1545  0.2228 -0.1334
43849W        W52649   5.227   2.745  21.796  0.3504 -0.2717 -0.3231
43850W        W52650  16.010   3.811  16.183  0.1252 -0.1806 -0.0919
43851W        W52651  27.134   3.763  17.559  0.0829  0.0628  0.0867
43852W        W52652  30.171   7.599  22.462 -0.3778 -0.1299 -0.0040
43853W        W52653   3.587   4.288   7.169  0.0164  0.0503 -0.3324
43854W        W52654   5.465   7.499  16.754 -0.0911 -0.0307  0.3224
43855W        W52655   5.435   1.243   9.158  0.1261  0.1733 -0.2578
43856W        W52656  12.537   2.144  17.326  0.0831 -0.3175  0.0085
43857W        W52657  23.524   7.769   2.953 -0.0435 -0.2127  0.0338
43858W        W52658  18.456   7.144   8.034 -0.2244 -0.2030  0.2089
43859W        W52659   5.931   2.017   7.800 -0.2175 -0.1153 -0.0984
43860W        W52660   5.111   6.486  20.396  0.0981 -0.0628 -0.0589
43861W        W52661  18.844   5.510   7.858  0.0887  0.2520 -0.3111
43862W        W52662  15.952   7.442   9.318 -0.0668 -0.1457  0.0300
43863W        W52663  10.225   7.151  20.821 -0.1560 -0.1213 -0.1483
43864W        W52664  24.367   2.698   8.108  0.0114 -0.0658  0.1149
43865W        W52665  11.736   1.005  16.622  0.1541 -0.2842  0.1049
43866W        W52666   3.336   2.773   6.363  0.3816 -0.1154 -0.4409
43867W        W52667  16.260   0.286  25.720  0.1169 -0.0489 -0.0921
43868W        W52668  15.201   2.133  21.075  0.0436 -0.0574 -0.0596
43869W        W52669  26.773   6.162  20.502 -0.0205  0.1469 -0.1468
43870W        W52670   2.792   4.395  23.580  0.3303 -0.2255  0.1622
43871W        W52671  24.829   6.000  19.805 -0.1724 -0.3423  0.0956
43872W        W52672  24.044   4.279  21.092 -0.2601  0.0173  0.2558
43873W        W52673   0.825   1.064  20.544  0.0224 -0.1488  0.0797
43874W        W52674   4.785   4.751   2.336  0.4637  0.1026  0.0808
43875W        W52675  11.882   2.072  16.466 -0.1790 -0.2673 -0.1057
43876W        W52676  23.186   7.631  19.623 -0.3138  0.1710  0.1292
43877W        W52677  12.689   0.469  23.973  0.0798  0.3322 -0.1389
43878W        W52678  22.146   3.653   3.417  0.0774 -0.0787 -0.1010
43879W        W52679  27.436   4.080   2.106 -0.1905  0.2895 -0.0096
43880W        W52680  11.873   3.214  18.317 -0.1334  0.0646 -0.5437
43881W        W52681   5.457   6.563  25.479  0.2330  0.2001  0.1305
43882W        W52682  21.161   1.110  21.305 -0.0325  0.0915 -0.0986
43883W        W52683  31.206   3.094  19.624 -0.2406 -0.2140  0.1439
43884W        W52684  22.414   2.138   2.895 -0.0464  0.1786 -0.2631
43885W        W52685   2.356   4.823  15.368  0.1626  0.0360  0.1743
43886W        W52686  25.695   6.775   3.284 -0.0696  0.0094 -0.1172
43887W        W52687  30.495   0.424  23.147  0.1510 -0.1950  0.0782
43888W        W52688  19.516   1.509  16.154  0.0459  0.0737  0.0227
43889W        W52689  17.671   5.803  26.144  0.1196  0.1620  0.0268
43890W        W52690  20.124   7.598   9.256 -0.0608  0.1274 -0.0382
43891W        W52691  27.506   5.096   7.171 -0.0083 -0.1977 -0.0020
43892W        W52692  10.588   5.435   2.908 -0.1750 -0.1402  0.2135
43893W        W52693  23.564   5.128   9.356 -0.2698  0.0101 -0.0005
43894W        W52694   2.223   2.928   2.954 -0.2206 -0.0716  0.1310
43895W        W52695  29.787   3.382  25.967  0.0999 -0.4001 -0.0862
43896W        W52696  28.101   2.061  25.078 -0.2717  0.0523 -0.1216
43897W        W52697   1.175   7.025   1.690 -0.2042 -0.1922 -0.0364
43898W        W52698  20.986   5.548   7.655 -0.1882  0.1167 -0.0823
43899W        W52699   3.825   7.215  17.198  0.1956 -0.1230  0.0471
43900W        W52700   3.520   7.248  11.128 -0.1083 -0.0150 -0.0294
43901W        W52701   4.559   3.416  23.563  0.0141  0.0561 -0.1269
43902W        W52702  21.773   1.371   6.944  0.0616  0.0613  0.1855
43903W        W52703   0.208   7.262  10.643 -0.3533 -0.0559 -0.2407
43904W        W52704   4.608   5.603   8.986  0.3197 -0.1314 -0.1812
43905W        W52705  10.224   3.484  20.570 -0.1190  0.2580  0.0732
43906W        W52706  15.411   5.211   4.122  0.2849 -0.0801  0.1416
43907W        W52707  28.919   3.230   3.581  0.0351  0.1192 -0.0009
43908W        W52708  14.959   1.878  18.300  0.0417 -0.1956 -0.1004
43909W        W52709  13.850   1.805   4.569  0.0049  0.1274 -0.0490
43910W        W52710  17.075   0.001   6.645 -0.0253  0.3303 -0.3815
43911W        W52711  17.849   6.295   6.547 -0.2134 -0.2612  0.0903
43912W        W52712  11.777   1.345  10.661 -0.3300  0.0889  0.0822
43913W        W52713  17.632   6.977   7.759 -0.1316  0.0079  0.1079
43914W        W52714  17.069   6.935   6.844  0.3761 -0.0589 -0.2387
43915W        W52715  19.022   5.915  24.518 -0.3485 -0.1356 -0.2306
43916W        W52716  17.734   3.018   4.314 -0.0976  0.1609  0.0637
43917W        W52717  23.219   5.750  16.817  0.0048 -0.2857 -0.0037
43918W        W52718  19.795   5.449   9.162  0.2209  0.5250  0.1990
43919W        W52719  16.089   0.250  24.812 -0.0609 -0.0979  0.1914
43920W        W52720   4.184   2.199   2.187  0.1738  0.0536  0.0886
43921W        W52721   1.540   1.583  21.754  0.0484  0.0491 -0.0144
43922W        W52722  19.568   0.447  19.554  0.1908 -0.0768 -0.1544
43923W        W52723  13.143   4.957   5.433  0.1049  0.1494  0.0044
43924W        W52724   3.809   4.332   4.137 -0.0034 -0.1010  0.1831
43925W        W52725   2.109   5.644  22.438 -0.0674  0.0026 -0.0305
43926W        W52726  16.938   6.693   3.517  0.0684  0.2380  0.0796
43927W        W52727   0.428   4.337  10.247  0.1180 -0.0982  0.3220
43928W        W52728   5.460   0.315  20.909 -0.1034  0.0716  0.1977
43929W        W52729   1.994   1.572  16.969  0.0747 -0.0018  0.1844
43930W        W52730  27.268   1.762  25.625 -0.0622  0.0442 -0.0217
43931W        W52731  21.528   2.048  25.212 -0.0100  0.2111  0.1158
43932W        W52732  12.587   2.882  24.018  0.1086  0.1414 -0.1222
43933W        W52733   1.375   5.710  21.888 -0.0784  0.0441  0.0275
43934W        W52734  29.358   3.242   1.585 -0.1821 -0.0949 -0.2645
43935W        W52735  27.036   6.037   1.570 -0.2754 -0.0597 -0.1872
43936W        W52736  18.322   2.383  10.162  0.1736  0.3493  0.0738
43937W        W52737  27.288   6.723   5.837 -0.0167 -0.0830 -0.0214
43938W        W52738  13.352   5.834   5.268 -0.2041  0.2775 -0.1678
43939W        W52739  28.710   4.338  18.763  0.0237 -0.4407 -0.0520
43940W        W52740   8.738   4.552  21.188 -0.1706  0.1644 -0.1397
43941W        W52741  24.230   6.573   7.553 -0.1916 -0.2168 -0.0290
43942W        W52742  29.748   4.092  10.374  0.1501  0.0229  0.3687
43943W        W52743   4.807   3.678   7.835 -0.0777 -0.0405  0.0722
43944W        W52744   8.469   1.618  16.464 -0.0087 -0.0542  0.1437
43945W        W52745  22.523   3.777  19.505  0.0470 -0.1305  0.2521
43946W        W52746   4.718   1.339  24.702  0.3314  0.0517  0.0440
43947W        W52747  18.315   5.510  20.483 -0.0133 -0.1927 -0.1464
43948W        W52748   0.315   7.285  21.203 -0.2057  0.0802  0.1381
43949W        W52749  27.090   2.656   3.162  0.1159  0.1104  0.0498
43950W        W52750  21.492   3.565   6.023 -0.1137  0.0352  0.1828
43951W        W52751  30.816   3.126   0.097  0.0748  0.1699 -0.3046
43952W        W52752  29.273   6.603  20.121 -0.2876 -0.3640 -0.1837
43953W        W52753  13.027   5.265  15.906  0.0947  0.2456 -0.3508
43954W        W52754  18.007   0.002  16.490  0.2716 -0.1646 -0.0863
43955W        W52755  25.910   6.327   5.414 -0.0760 -0.0053  0.2222
43956W        W52756  11.942   6.946   4.398  0.0398  0.1285 -0.1563
43957W        W52757  17.593   6.482  22.820 -0.1518 -0.0597 -0.1722
43958W        W52758  28.661   3.550  24.970  0.1391 -0.0146 -0.0549
43959W        W52759   3.963   3.702  19.034  0.1470  0.0771  0.1467
43960W        W52760   4.656   1.012   6.282  0.0436 -0.1287 -0.1633
43961W        W52761   3.643   0.779  20.561  0.0979 -0.1552 -0.1967
43962W        W52762   6.299   2.218   1.641  0.1504  0.0304  0.1844
43963W        W52763   5.549   6.049   9.737  0.2718  0.1869  0.2847
43964W        W52764  26.539   2.982  19.017  0.1037 -0.0080  0.0822
43965W        W52765   6.079   1.556  24.587 -0.0208  0.2315  0.0714
43966W        W52766  17.881   5.126   6.361 -0.0543 -0.2794 -0.1507
43967W        W52767  16.203   6.534  18.463 -0.2280 -0.1736 -0.3665
43968W        W52768  25.816   0.319   2.057 -0.2310 -0.0512  0.0425
43969W        W52769  22.316   6.953   9.628 -0.2190 -0.0159  0.0087
43970W        W52770  28.712   4.580   9.614 -0.1723 -0.1169 -0.1871
43971W        W52771   1.878   4.476   3.309  0.4000 -0.0723 -0.1564
43972W        W52772  13.742   3.008   5.248 -0.0067  0.1090  0.0139
43973W        W52773  25.751   1.945   5.007 -0.1930 -0.1079 -0.0856
43974W        W52774   8.081   1.273   0.452  0.0541 -0.0222  0.1606
43975W        W52775   3.371   4.785  16.006 -0.0729 -0.0081 -0.0834
43976W        W52776  22.026   6.610   2.640 -0.1080 -0.1748  0.1419
43977W        W52777  16.855   0.105   8.474 -0.3222  0.2252  0.0972
43978W        W52778  29.466   1.021  11.300  0.1189 -0.1406 -0.1234
43979W        W52779  12.208   3.653  22.169  0.1122  0.4263  0.0242
43980W        W52780  31.172   2.062   1.609  0.0480 -0.2693  0.0426
43981W        W52781  26.804   7.656   0.999  0.1251  0.0046  0.3459
43982W        W52782  18.005   1.701  10.168  0.0174 -0.2082  0.0823
43983W        W52783   1.738   1.318   2.176 -0.0293  0.1552  0.2866
43984W        W52784  26.699   6.965   1.172  0.0635  0.0555  0.1188
43985W        W52785  27.145   7.720  20.400  0.1153  0.2508  0.2529
43986W        W52786  20.063   0.613  18.110  0.2490 -0.3063  0.0941
43987W        W52787  10.311   1.194   0.820 -0.2460 -0.1450 -0.0393
43988W        W52788   1.838   2.929  23.692  0.1053  0.0610 -0.0629
43989W        W52789   7.729   2.791   9.461 -0.3292 -0.1214  0.0896
43990W        W52790  20.884   6.891  20.596  0.1433 -0.0053  0.0235
43991W        W52791   1.817   4.814  19.585  0.1857 -0.1972 -0.1266
43992W        W52792  14.856   6.986   1.162 -0.1978 -0.2072 -0.1194
43993W        W52793  10.901   3.627  19.837 -0.3044  0.3000  0.2198
43994W        W52794  12.140   1.129  16.342 -0.3299 -0.1356  0.0433
43995W        W52795  14.196   1.458   0.558 -0.1783  0.1257  0.1529
43996W        W52796  15.954   2.143  20.588 -0.0562  0.0772  0.0676
43997W        W52797  23.091   4.339  24.577 -0.1183  0.0087  0.0351
43998W        W52798  17.876   1.933   9.375 -0.2259  0.4245 -0.0622
43999W        W52799   5.321   4.565  23.553  0.0207  0.0636  0.2826
44000W        W52800  27.229   4.486   1.790  0.3418 -0.0044  0.2095
44001W        W52801  26.717   0.939  21.847  0.1426  0.1064 -0.0753
44002W        W52802  26.011   3.778   8.618  0.0851  0.1419 -0.1169
44003W        W52803   2.380   6.386  10.256 -0.1405 -0.1046  0.4415
44004W        W52804   0.558   1.332   6.765 -0.4159  0.0791  0.1012
44005W        W52805   8.075   5.551   8.108  0.2125 -0.0473 -0.0709
44006W        W52806   0.358   2.010   1.478  0.0051 -0.0045 -0.1187
44007W        W52807  23.909   2.273   1.486  0.5076 -0.0816 -0.0136
44008W        W52808  16.991   0.150   0.897 -0.1227 -0.0169 -0.1148
44009W        W52809  16.894   4.397  19.465 -0.0694 -0.1660 -0.2890
44010W        W52810   8.507   4.035   4.817  0.0842  0.2018  0.0211
44011W        W52811  27.711   5.945  21.594 -0.1147  0.0706  0.0957
44012W        W52812  19.972   3.363  17.908  0.0565  0.2821 -0.2188
44013W        W52813   1.361   0.456  10.923 -0.1854 -0.4161 -0.1729
44014W        W52814  18.897   3.986  21.494 -0.0931  0.1311  0.0518
44015W        W52815  15.139   1.140  19.441  0.1253  0.0280  0.1821
44016W        W52816   8.028   7.709   1.139 -0.0219 -0.1370  0.0324
44017W        W52817  21.666   3.355   8.419  0.0714 -0.2757  0.1872
44018W        W52818  23.123   1.073  22.041  0.2450 -0.0089  0.0312
44019W        W52819  19.507   0.459  14.547 -0.2994 -0.4814 -0.1565
44020W        W52820  12.077   2.170  19.206 -0.1949  0.2587  0.1705
44021W        W52821  24.314   4.964  18.635  0.0333 -0.2222 -0.0386
44022W        W52822  18.303   7.401  25.593  0.0616 -0.0745  0.0058
44023W        W52823  30.511   6.942  19.723  0.0722 -0.0860  0.0762
44024W        W52824   1.939   6.106   4.081 -0.0156 -0.4289 -0.0415
44025W        W52825  20.952   3.308  22.508 -0.1088  0.1747 -0.0259
44026W        W52826  13.837   4.336  21.286  0.0330  0.0922  0.7177
44027W        W52827  27.477   3.445  24.895 -0.2071  0.1447  0.0215
44028W        W52828  12.590   3.796  18.689  0.2080 -0.0548 -0.1315
44029W        W52829   0.644   4.417  17.225  0.2046  0.1270  0.0116
44030W        W52830  19.980   3.989  15.888  0.1905  0.1409 -0.1309
44031W        W52831  20.399   4.914   2.137  0.2314  0.0631  0.2616
44032W        W52832  16.823   2.784  17.017 -0.1131 -0.1084  0.0196
44033W        W52833  26.971   1.828   6.668 -0.1251  0.2400 -0.0489
44034W        W52834   7.563   0.581  23.133  0.1600  0.0522  0.0354
44035W        W52835   0.362   2.200  15.730  0.2479  0.2120  0.1950
44036W        W52836  10.976   1.737  10.470 -0.1447  0.0891  0.0680
44037W        W52837  17.039   1.435   9.011 -0.2540 -0.0090  0.0225
44038W        W52838   2.670   0.172  16.969  0.1043 -0.0968  0.0281
44039W        W52839  11.205   0.291   7.216 -0.0369  0.0488  0.0185
44040W        W52840   3.415   3.834  24.969  0.0202 -0.1880  0.0733
44041W        W52841  19.723   0.167   1.962 -0.1198  0.0492 -0.0933
44042W        W52842   1.911   7.630  24.419 -0.2855  0.1267 -0.0728
44043W        W52843  30.787   4.207   4.822  0.0030  0.2956 -0.1081
44044W        W52844   1.910   2.224  16.333 -0.2331  0.3123 -0.2670
44045W        W52845  16.690   0.172  16.773  0.1418  0.0458  0.3911
44046W        W52846  22.324   0.091  21.662 -0.3216 -0.1995  0.1321
44047W        W52847   9.061   7.253  20.609  0.0226  0.0056  0.0523
44048W        W52848  13.747   1.089  14.669 -0.1573  0.0778 -0.1110
44049W        W52849   0.238   0.213  25.452  0.1964  0.0437  0.0236
44050W        W52850   8.879   2.252  17.667 -0.2887 -0.1227  0.4119
44051W        W52851   3.815   7.590   3.293  0.2616  0.0587  0.0265
44052W        W52852  21.047   2.616   6.497  0.0119 -0.1448 -0.0257
44053W        W52853   6.733   6.408   1.663 -0.0179 -0.0417  0.1444
44054W        W52854  19.572   1.716   7.047 -0.1571  0.1576  0.2227
44055W        W52855  10.089   1.893  20.262  0.1662 -0.1771 -0.3501
44056W        W52856  30.003   6.077  17.168 -0.2397  0.3100 -0.4381
44057W        W52857  20.628   3.994   9.065 -0.2035 -0.3233  0.0101
44058W        W52858  21.069   7.291   1.782 -0.1328 -0.1960  0.3315
44059W        W52859  25.381   6.526   6.176  0.3720 -0.1269  0.5278
44060W        W52860   2.984   1.678  17.124  0.2478  0.1001  0.0348
44061W        W52861  11.408   7.124  21.477  0.2251 -0.2823  0.0202
44062W        W52862  12.559   1.119  17.057 -0.2650  0.1229  0.1006
44063W        W52863  25.282   3.216   8.793 -0.0796  0.0264  0.1733
44064W        W52864   7.131   2.768   8.907  0.0509  0.1778  0.0473
44065W        W52865  19.683   0.463   3.114 -0.3736  0.2637 -0.3252
44066W        W52866   6.643   1.731  18.923 -0.0314 -0.0023  0.0909
44067W        W52867   7.022   4.369  24.753  0.1565 -0.0196  0.0096
44068W        W52868  21.684   4.156  20.748  0.3169 -0.1041 -0.1475
44069W        W52869   0.125   1.878   1.062 -0.2385 -0.3518 -0.0757
44070W        W52870  23.431   2.542   7.507 -0.2922 -0.0253 -0.0610
44071W        W52871  20.997   3.700  19.480  0.2862  0.0290 -0.1174
44072W        W52872  10.288   3.696   1.727 -0.1717 -0.0418 -0.1084
44073W        W52873  13.998   3.114  15.537 -0.1820 -0.0162  0.0074
44074W        W52874   5.385   7.749   0.813 -0.0960 -0.1470  0.1083
44075W        W52875  28.259   2.351   5.512 -0.3427  0.0119 -0.2608
44076W        W52876  23.861   4.049  24.602 -0.0682  0.0413  0.4078
44077W        W52877   0.941   2.581  15.990  0.2298 -0.2129 -0.2099
44078W        W52878  18.031   5.903   7.767 -0.3121  0.1277  0.0122
44079W        W52879  13.591   6.144  23.655 -0.2140 -0.0790 -0.2478
44080W        W52880  24.013   5.363   1.570 -0.2847 -0.1128  0.3805
44081W        W52881   2.453   2.275  16.169 -0.0466 -0.2883 -0.0127
44082W        W52882  30.705   1.832   2.731  0.0438  0.3333  0.1424
44083W        W52883  15.690   4.231  22.294  0.2279  0.2312 -0.0021
44084W        W52884   4.521   5.323   5.767  0.2239  0.0486 -0.0667
44085W        W52885  19.401   0.547   5.613 -0.2797  0.2894 -0.1936
44086W        W52886  17.514   5.820  23.581 -0.1683 -0.0426 -0.1667
44087W        W52887  12.910   2.037   4.779 -0.1628  0.1297 -0.0987
44088W        W52888   1.970   1.005  16.643 -0.2173 -0.0468  0.1251
44089W        W52889  16.409   2.283   8.784 -0.2595  0.4051 -0.1731
44090W        W52890  27.458   3.346   2.525  0.1797 -0.1533 -0.0340
44091W        W52891   7.325   3.206   8.718  0.3952  0.4223  0.0203
44092W        W52892  24.119   0.656  22.678  0.1337 -0.0969 -0.2749
44093W        W52893  27.846   3.408   2.793 -0.1294 -0.1273 -0.3453
44094W        W52894  22.970   2.251  19.571  0.1973  0.0555 -0.1909
44095W        W52895  17.681   5.579  24.569  0.0040  0.2585  0.1494
44096W        W52896  22.146   3.394  10.286  0.2555 -0.2970  0.1949
44097W        W52897  14.117   0.527  21.456  0.0515 -0.0131 -0.1242
44098W        W52898   4.822   1.421  25.506  0.2986  0.1269 -0.3378
44099W        W52899  27.590   7.247  16.716 -0.4989 -0.2573  0.1879
44100W        W52900  13.622   3.814  22.469 -0.0363  0.5054  0.0548
44101W        W52901  25.951   6.039  16.461  0.3640  0.3829  0.1588
44102W        W52902  25.504   0.461  16.438 -0.0423 -0.1552 -0.1204
44103W        W52903  29.985   0.932   0.895 -0.0760  0.1235 -0.1067
44104W        W52904   4.329   0.061   0.343 -0.1202  0.1473  0.2066
44105W        W52905  25.261   3.695  10.886 -0.1875 -0.2020  0.0778
44106W        W52906   7.163   7.456  19.110 -0.1415  0.0692 -0.1723
44107W        W52907  11.330   3.021   7.066 -0.0845  0.1371  0.0159
44108W        W52908  22.135   0.700   0.168 -0.0383 -0.0808 -0.0811
44109W        W52909   6.444   7.110  23.667 -0.0472 -0.2101  0.1762
44110W        W52910  13.143   4.763   8.567  0.1568  0.4073 -0.0028
44111W        W52911   2.874   3.023  20.949  0.0246 -0.1053  0.0585
44112W        W52912  31.069   6.107   1.551  0.0095  0.0774 -0.2651
44113W        W52913  11.694   5.292   8.586 -0.0591  0.1516  0.2438
44114W        W52914  20.252   6.448   2.816 -0.0176 -0.1676 -0.4475
44115W        W52915  19.221   5.867  17.873  0.2370 -0.0866  0.4022
44116W        W52916  12.907   2.487   2.739  0.0638 -0.2699 -0.0945
44117W        W52917  24.258   5.317  19.069  0.2094  0.0523 -0.0665
44118W        W52918  20.979   2.597  16.918  0.0214  0.1348  0.2173
44119W        W52919  17.707   6.360  21.255 -0.0609  0.0253 -0.2069
44120W        W52920  15.153   0.717  24.976 -0.0134  0.0886  0.0249
44121W        W52921   5.051   4.067   1.086  0.0610  0.0478  0.2078
44122W        W52922  28.815   2.697   1.872  0.3315  0.1661 -0.4731
44123W        W52923   8.385   7.681   2.343 -0.0362 -0.2424 -0.2416
44124W        W52924   8.069   4.493   9.098  0.0820 -0.4295  0.0131
44125W        W52925  22.457   3.963  20.340  0.1798 -0.0169 -0.0101
44126W        W52926  22.637   4.618  22.569 -0.0926 -0.0432 -0.1276
44127W        W52927   5.243   0.957  21.708  0.0796 -0.2962  0.0221
44128W        W52928  20.342   6.572   9.748  0.0101  0.0734  0.3159
44129W        W52929  30.736   2.658   0.302 -0.1914 -0.0717  0.3348
44130W        W52930  13.471   5.270   3.705  0.1371 -0.2322  0.3245
44131W        W52931  23.285   4.570   4.432  0.3288  0.2635 -0.1596
44132W        W52932   3.743   5.867  10.270 -0.0583 -0.0172 -0.3315
44133W        W52933  30.611   6.575  20.127  0.0019  0.0963  0.0732
44134W        W52934   9.184   4.074   6.015  0.1571  0.0820 -0.0781
44135W        W52935  29.072   1.391   4.584  0.1904 -0.0556  0.0116
44136W        W52936   8.843   2.640  10.557 -0.1545  0.1158 -0.2493
44137W        W52937  25.998   5.649  18.129 -0.0699 -0.0942  0.1091
44138W        W52938  24.291   7.520  16.454 -0.0222  0.0986  0.0296
44139W        W52939   4.216   2.997  16.843 -0.0868 -0.0405  0.0976
44140W        W52940   1.681   2.352  18.743  0.1900  0.2468  0.0153
44141W        W52941  19.136   3.654  16.109  0.1991 -0.0737  0.0017
44142W        W52942   2.312   0.296   7.508 -0.1166 -0.0102 -0.1314
44143W        W52943  16.513   7.767   5.698  0.0501  0.2653  0.2420
44144W        W52944   2.650   4.309  10.511 -0.0071  0.0736  0.2691
44145W        W52945  21.200   5.419  19.594  0.1026  0.1448  0.0740
44146W        W52946  25.691   5.403   8.778 -0.0222  0.0337  0.1327
44147W        W52947  20.042   0.606  19.473 -0.1256 -0.1786  0.1583
44148W        W52948   5.193   0.292  23.929  0.0601 -0.0847  0.0288
44149W        W52949   8.313   2.198   0.007 -0.1400 -0.2408 -0.3357
44150W        W52950   0.747   2.464  25.371 -0.0273 -0.1435  0.0231
44151W        W52951  18.046   0.677  24.337  0.2003 -0.5631 -0.1846
44152W        W52952   4.304   5.972   3.301 -0.0159 -0.0765  0.1368
44153W        W52953  25.496   6.382   9.703  0.0320 -0.2675 -0.4201
44154W        W52954  26.868   6.836   7.446  0.3669  0.1876  0.0735
44155W        W52955  27.624   4.199  20.991 -0.2217 -0.2252  0.4084
44156W        W52956   3.192   5.366   6.246 -0.0433 -0.2887 -0.0894
44157W        W52957  28.327   3.106   4.611 -0.0960  0.2493  0.2032
44158W        W52958  16.644   2.650  19.206 -0.0632 -0.2317  0.0509
44159W        W52959   4.179   3.913   6.985 -0.1314  0.0479 -0.0351
44160W        W52960  18.632   3.390   2.414 -0.1001  0.1416 -0.1099
44161W        W52961  14.845   6.657  10.574 -0.2975  0.0374 -0.0922
44162W        W52962   3.329   7.234   5.488  0.5442  0.3180  0.1477
44163W        W52963  22.665   5.737   5.366  0.0816  0.2098  0.2878
44164W        W52964  27.304   7.743  25.227 -0.1192  0.2016  0.1393
44165W        W52965  21.278   7.252  18.336  0.1956  0.1013 -0.0405
44166W        W52966   4.023   7.811  20.466 -0.0424  0.1606  0.0351
44167W        W52967   3.020   4.520  22.760 -0.2273  0.1602 -0.0453
44168W        W52968  16.638   3.486   0.867 -0.0811 -0.1198  0.0540
44169W        W52969  15.468   4.537   3.362 -0.3016 -0.1428 -0.1250
44170W        W52970  21.369   0.676  15.235  0.0788  0.1984 -0.1347
44171W        W52971   8.466   5.086  15.673  0.2313 -0.3397 -0.0521
44172W        W52972   4.360   0.383  24.878  0.3219  0.1969  0.3699
44173W        W52973  24.102   4.701   9.854 -0.2066 -0.2347  0.5307
44174W        W52974  27.506   4.456   8.811  0.4757  0.1226  0.1736
44175W        W52975  12.675   3.759   5.981  0.0866  0.0186 -0.0421
44176W        W52976  26.195   4.394  15.216 -0.0888 -0.0961  0.0817
44177W        W52977  24.395   4.426  22.980 -0.2462  0.0022 -0.0356
44178W        W52978  14.767   4.433  25.550  0.1013 -0.0901  0.2173
44179W        W52979  30.473   6.505  24.440  0.0483 -0.0124  0.2463
44180W        W52980  20.116   6.579   8.305 -0.2224  0.1352  0.3784
44181W        W52981   4.547   6.445   7.767 -0.1563  0.0882  0.0801
44182W        W52982  14.404   6.247   1.537  0.0382  0.0548 -0.0593
44183W        W52983  30.229   3.401  25.174  0.0078  0.0257 -0.0542
44184W        W52984  30.373   3.427  16.384  0.1523 -0.2246 -0.3420
44185W        W52985  23.783   6.995   0.608 -0.1185 -0.0094  0.0720
44186W        W52986   4.715   3.695   7.018  0.1437  0.0746  0.1776
44187W        W52987  19.809   6.188   5.388 -0.3592 -0.0717  0.0316
44188W        W52988   7.776   3.725  15.491 -0.1662  0.3261  0.0479
44189W        W52989  18.524   3.708   0.717 -0.1028  0.1111  0.1086
44190W        W52990  30.190   4.517   5.427 -0.2197 -0.1374 -0.0948
44191W        W52991   4.591   1.156  23.658 -0.1287  0.2394 -0.1387
44192W        W52992  19.165   7.148  20.646 -0.1216 -0.0741 -0.1041
44193W        W52993  27.146   4.093   8.839  0.0526 -0.0227 -0.0627
44194W        W52994  14.962   0.143   6.454  0.0871  0.0231  0.2932
44195W        W52995   0.859   4.315  26.147 -0.0444  0.1487  0.0025
44196W        W52996  30.353   0.123  23.570 -0.0168  0.0652  0.1231
44197W        W52997   7.128   2.065  17.328  0.1914 -0.1240 -0.2968
44198W        W52998  23.101   5.451  20.011  0.0075  0.2897  0.0504
44199W        W52999   2.912   2.813   0.234  0.0906 -0.0222 -0.1184
44200W        W53000   5.573   7.109   2.345  0.1259  0.1042 -0.3019
44201W        W53001  23.057   4.167  22.018 -0.0660 -0.1667  0.0444
44202W        W53002  27.220   7.140   2.321  0.0176 -0.0616  0.2178
44203W        W53003   1.520   5.935  10.826  0.1318  0.2156 -0.2273
44204W        W53004  28.987   3.501   6.809 -0.3104  0.1487  0.2361
44205W        W53005  24.377   4.838   1.017 -0.4381 -0.1081  0.0553
44206W        W53006  25.887   3.872  18.795  0.2118  0.3382 -0.0234
44207W        W53007  29.325   0.055  23.454  0.2084  0.2108  0.1445
44208W        W53008  19.522   6.404  15.228 -0.1776  0.1627 -0.0621
44209W        W53009  24.160   4.547  21.540 -0.2729 -0.2491 -0.1223
44210W        W53010   8.229   1.768   9.405  0.1654 -0.0773  0.0387
44211W        W53011  13.674   0.389   8.845 -0.0038  0.0367 -0.0107
44212W        W53012  19.067   6.759  21.172 -0.2250 -0.0629  0.1287
44213W        W53013  12.632   3.008  18.363  0.1319 -0.2340 -0.2478
44214W        W53014  14.729   6.564  17.040 -0.2399  0.3288 -0.4029
44215W        W53015  24.116   1.088   0.641  0.0368  0.5064  0.0800
44216W        W53016  13.808   4.720  20.542  0.2243 -0.4249  0.0282
44217W        W53017  16.849   0.738   6.272 -0.2696 -0.0135  0.1884
44218W        W53018  18.058   0.811  20.609 -0.0919  0.2006  0.1060
44219W        W53019  23.295   5.117  10.184  0.0919 -0.1722  0.0237
44220W        W53020  27.211   2.120  15.074  0.2654 -0.1389  0.0370
44221W        W53021  17.397   2.753   9.549  0.5316 -0.4075 -0.3326
44222W        W53022  31.233   1.997   9.284 -0.2964  0.0573 -0.0059
44223W        W53023   5.897   7.048  10.607  0.1054  0.2770 -0.1604
44224W        W53024   4.274   7.115   8.820  0.0202 -0.1922 -0.1940
44225W        W53025  20.476   5.114   0.765 -0.2540 -0.2201 -0.0220
44226W        W53026   4.530   2.222  24.324 -0.0442 -0.0716  0.1305
44227W        W53027  16.064   0.472  21.471  0.0996  0.1139  0.3597
44228W        W53028  24.737   5.620  23.470  0.2670  0.2927  0.1510
44229W        W53029  10.591   2.719  25.045 -0.2028 -0.1551 -0.0400
44230W        W53030  11.976   2.479  20.567  0.0628 -0.1184 -0.0990
44231W        W53031  30.184   6.457  15.445 -0.0357  0.1325  0.4501
44232W        W53032  15.438   3.597  21.489  0.0625 -0.0643  0.2240
44233W        W53033  12.265   2.055  20.684 -0.1505 -0.1357 -0.0403
44234W        W53034  27.760   0.920   6.910 -0.2888 -0.0109 -0.4395
44235W        W53035  21.890   0.707   7.276 -0.2015 -0.2372  0.3253
44236W        W53036  27.629   1.995  23.994  0.3197 -0.0235  0.0610
44237W        W53037   7.054   4.321  10.844 -0.0583 -0.1408  0.1687
44238W        W53038   9.569   6.594  23.075 -0.0298 -0.1701 -0.0103
44239W        W53039   5.068   6.117  18.266  0.2057 -0.0807 -0.0410
44240W        W53040  20.996   7.588  14.960  0.0769  0.0066 -0.0600
44241W        W53041  20.863   1.556   9.299  0.0747 -0.1218 -0.3881
44242W        W53042   4.566   2.912  15.482 -0.2232  0.1253 -0.0947
44243W        W53043  22.769   7.111   3.588  0.0478 -0.0303 -0.1108
44244W        W53044   2.155   3.499  18.152  0.2010  0.2134 -0.0196
44245W        W53045  30.516   7.627   4.325 -0.0865 -0.0932 -0.2055
44246W        W53046  15.327   3.689  24.510  0.0576 -0.1158  0.2468
44247W        W53047  12.117   7.272  24.907  0.1911  0.0287 -0.0029
44248W        W53048  16.667   1.408   5.818  0.2507  0.0604 -0.1085
44249W        W53049   1.642   0.101  22.657 -0.3926 -0.2367  0.0584
44250W        W53050   1.308   4.595  19.240  0.1352 -0.2829  0.2243
44251W        W53051   5.244   2.414  18.256  0.0053  0.1096 -0.2818
44252W        W53052  13.213   7.039  24.818 -0.1908 -0.1638  0.0057
44253W        W53053  24.463   4.665   7.007  0.0185  0.1404 -0.1478
44254W        W53054   2.211   3.097  23.330 -0.2869 -0.1026  0.0241
44255W        W53055   3.705   2.217  22.416 -0.1190  0.2294 -0.2839
44256W        W53056   9.251   0.744   8.852 -0.1790  0.2035  0.0436
44257W        W53057  28.522   7.749   4.851  0.0054 -0.2663 -0.2574
44258W        W53058  23.332   2.281  17.061 -0.2149  0.0461 -0.0336
44259W        W53059  20.635   2.627  23.058  0.3318  0.2836 -0.5067
44260W        W53060   5.177   3.826  21.312 -0.0065  0.0360 -0.3448
44261W        W53061   0.206   0.776  22.353 -0.1614  0.0367 -0.1326
44262W        W53062  12.127   6.873   7.366  0.2057  0.0096  0.0190
44263W        W53063  16.298   0.965  16.215  0.3927  0.0761 -0.2185
44264W        W53064  31.003   6.180   0.747 -0.0175 -0.0473 -0.0566
44265W        W53065  18.713   6.198   3.003  0.0281 -0.0960 -0.0877
44266W        W53066  25.590   1.598   8.545  0.1896 -0.2471  0.1822
44267W        W53067  26.621   1.574  21.422  0.3045 -0.2317  0.1683
44268W        W53068  22.310   2.409  20.946 -0.0033 -0.2351 -0.1319
44269W        W53069  12.976   1.723   7.948  0.0958  0.0123  0.0073
44270W        W53070  22.638   3.370  10.264  0.1927 -0.0462  0.1890
44271W        W53071   7.680   3.723   7.034  0.1448 -0.0647  0.4005
44272W        W53072  12.979   6.769   6.534  0.0491 -0.3307 -0.2126
44273W        W53073  26.742   2.692  16.097  0.0190 -0.2753  0.3171
44274W        W53074  13.929   2.418   1.544 -0.2034  0.0200 -0.0061
44275W        W53075  30.579   0.916   3.887 -0.0380 -0.0857 -0.3454
44276W        W53076  21.082   4.294  15.409 -0.2760 -0.2024  0.2311
44277W        W53077  24.434   1.365  26.070  0.2802  0.1026 -0.0168
44278W        W53078  12.128   5.157  16.863  0.0644 -0.1196  0.1555
44279W        W53079  14.460   5.268   6.792 -0.0354  0.3654  0.1534
44280W        W53080  20.532   3.320  20.628  0.0692 -0.1870 -0.0331
44281W        W53081  14.948   1.440   2.140 -0.1430 -0.1953 -0.0415
44282W        W53082  22.389   0.338  24.837 -0.2134  0.2066 -0.2270
44283W        W53083  19.729   5.407  21.176 -0.2208  0.1950  0.1482
44284W        W53084   5.242   3.107  19.443  0.1231 -0.1276 -0.0239
44285W        W53085  14.855   3.324   0.586 -0.0235 -0.0405 -0.0545
44286W        W53086  24.402   2.687  23.491  0.1441 -0.0145  0.1304
44287W        W53087   6.579   6.790   3.980 -0.0842  0.1406  0.3479
44288W        W53088   6.447   1.673   0.700 -0.0414 -0.0086  0.0413
44289W        W53089   5.027   4.624   7.312  0.0927  0.0309 -0.1326
44290W        W53090   6.492   3.222  19.886  0.0561  0.4436  0.1560
44291W        W53091  19.264   5.304  17.974 -0.0010  0.3716  0.3127
44292W        W53092   1.325   4.954   9.479  0.0300 -0.2811  0.0341
44293W        W53093  25.254   2.151  25.420 -0.1003  0.0718 -0.2446
44294W        W53094  15.614   1.068   2.871  0.2176 -0.1702 -0.0276
44295W        W53095  18.755   2.616   3.122 -0.1379  0.0975 -0.0581
44296W        W53096   3.810   4.565   0.900 -0.1057  0.4411 -0.1973
44297W        W53097  18.641   0.369   3.587  0.0459 -0.1925  0.1060
44298W        W53098   0.973   4.856  10.420  0.3768 -0.0966 -0.2058
44299W        W53099  30.675   7.406  23.599 -0.0242  0.0392  0.0768
44300W        W53100   9.126   6.883  22.853  0.0489 -0.0544  0.1844
44301W        W53101   7.323   2.068   3.633  0.0747 -0.3558  0.3984
44302W        W53102   9.621   7.116   3.550  0.3721 -0.1571 -0.1640
44303W        W53103  14.867   4.059   4.006 -0.2822  0.1865 -0.0407
44304W        W53104  21.558   6.805  25.581  0.1270 -0.0873  0.0656
44305W        W53105  21.568   2.529  21.512  0.3068  0.2112 -0.5709
44306W        W53106  17.856   0.157   3.853 -0.1402 -0.1892  0.1057
44307W        W53107   0.227   4.960   7.783  0.3025 -0.2106  0.2795
44308W        W53108  13.087   1.391  23.571 -0.2471 -0.2238 -0.4601
44309W        W53109   2.557   5.003   2.847 -0.2811  0.2011  0.0073
44310W        W53110  11.043   3.499  21.308  0.0701 -0.0790 -0.3213
44311W        W53111  24.759   6.835   6.894  0.2752 -0.2981 -0.2573
44312W        W53112  21.943   7.606  25.421 -0.2900  0.1302  0.2584
44313W        W53113  19.032   2.808  20.461 -0.1551  0.2608 -0.0450
44314W        W53114   0.683   4.641   2.947  0.0352  0.2005 -0.0184
44315W        W53115   8.104   0.523  20.789 -0.0327 -0.0581  0.0384
44316W        W53116   6.198   2.937   5.512  0.0728 -0.0765  0.2688
44317W        W53117   9.676   2.823   3.198  0.2926  0.0561 -0.1097
44318W        W53118   3.783   0.943  15.869  0.0693 -0.0768 -0.1704
44319W        W53119   7.630   0.480   8.088 -0.2584  0.1256  0.3920
44320W        W53120  24.673   5.846  16.863  0.1463  0.0583 -0.0885
44321W        W53121  24.354   3.629   6.078  0.0286  0.1202 -0.0828
44322W        W53122  25.954   7.436  17.490  0.1283 -0.2908  0.0074
44323W        W53123   7.274   0.014   1.211  0.2659 -0.0768 -0.0795
44324W        W53124  11.283   0.613   9.223 -0.0806  0.2035 -0.1645
44325W        W53125  12.205   7.246  21.850  0.1027 -0.2826  0.0795
44326W        W53126  29.081   2.690  24.868 -0.0259  0.2908  0.1034
44327W        W53127  18.658   1.778   9.473  0.3051 -0.1140  0.0343
44328W        W53128   1.704   4.964  24.206  0.1987  0.0217  0.2885
44329W        W53129   1.529   5.035  11.070 -0.2874  0.2824 -0.0459
44330W        W53130  26.515   1.373  18.836 -0.0434  0.0469  0.1994
44331W        W53131   1.491   3.345  18.099  0.0383 -0.2254  0.1638
44332W        W53132  29.059   4.204   9.118  0.1716  0.1803  0.0467
44333W        W53133   4.153   6.165   7.813  0.2151 -0.2056 -0.1348
44334W        W53134   2.527   7.180   1.101  0.2242 -0.1344 -0.0843
44335W        W53135   1.808   0.613   3.250 -0.2725  0.0473  0.0299
44336W        W53136  30.936   2.082  21.366 -0.0566 -0.4159 -0.0321
44337W        W53137  21.508   1.808   2.685  0.2633  0.4096 -0.0353
44338W        W53138  30.397   7.471  17.838 -0.0969 -0.0720 -0.1269
44339W        W53139  18.625   3.337   9.330  0.1135  0.0369  0.1217
44340W        W53140   6.003   4.062  24.780 -0.0472  0.0927  0.0577
44341W        W53141  13.503   4.302  24.907  0.1865 -0.2357  0.2195
44342W        W53142  26.956   5.179   9.261  0.0884  0.0066  0.3071
44343W        W53143  10.138   6.927   1.294 -0.0179  0.1094 -0.2319
44344W        W53144  27.630   1.532   6.114  0.0407 -0.0863 -0.0741
44345W        W53145  12.726   1.154  16.534  0.1872 -0.1665  0.0239
44346W        W53146  12.625   1.908  10.525  0.1253  0.0058 -0.4007
44347W        W53147  28.200   3.575   2.155  0.0580 -0.2061 -0.0410
44348W        W53148   2.022   5.671  19.404 -0.1952  0.1903  0.2499
44349W        W53149  10.366   1.501  16.967 -0.2048  0.1118  0.1207
44350W        W53150  27.652   1.301  19.856  0.0985  0.0070  0.0321
44351W        W53151  30.408   2.583   9.665 -0.0793  0.1709  0.0388
44352W        W53152  19.292   0.381   1.634  0.1400 -0.0505  0.1122
44353W        W53153  28.035   6.635   9.713 -0.2745  0.0785  0.2101
44354W        W53154  27.975   7.523  17.419  0.1691  0.0767  0.2316
44355W        W53155   7.651   3.363  23.224  0.1907  0.2379  0.1188
44356W        W53156   6.776   2.207   2.343 -0.1774  0.0634 -0.2114
44357W        W53157   6.010   4.792  18.443  0.0571  0.1238 -0.0555
44358W        W53158   8.051   1.378  24.738  0.0748 -0.1514 -0.1299
44359W        W53159  20.249   2.889  20.748  0.2892 -0.0680  0.1564
44360W        W53160   1.400   4.503  24.207 -0.2232 -0.2595  0.3974
44361W        W53161  11.631   1.930   8.874  0.1640  0.0675  0.2077
44362W        W53162   3.418   0.735  10.090  0.2247 -0.1956 -0.2336
44363W        W53163  20.864   1.070  25.048  0.2650  0.0363  0.0079
44364W        W53164  26.383   2.398  17.311 -0.2844 -0.1162 -0.2749
44365W        W53165  29.700   6.671  20.890 -0.2369 -0.1032 -0.0625
44366W        W53166  17.238   0.178   9.309  0.1807 -0.0207 -0.1569
44367W        W53167  11.744   2.793   3.907  0.0951  0.2493 -0.0769
44368W        W53168   9.957   6.579   7.751 -0.1208 -0.4084  0.0413
44369W        W53169   1.669   2.656   9.903 -0.1634 -0.0220 -0.0048
44370W        W53170  25.099   6.008   0.469 -0.2424 -0.2467  0.1264
44371W        W53171  18.101   2.138   9.752 -0.0143 -0.0672  0.2071
44372W        W53172   4.394   0.971  15.210  0.1556 -0.4226  0.1194
44373W        W53173  20.120   5.036  21.323 -0.0146 -0.2089 -0.2398
44374W        W53174   4.333   2.684   8.959 -0.0913  0.2834 -0.1583
44375W        W53175  19.730   4.340   9.574 -0.1094 -0.2534  0.0603
44376W        W53176   7.778   5.653   7.705 -0.1393  0.2575 -0.0521
44377W        W53177  21.680   0.318   7.545 -0.0507  0.2387 -0.2809
44378W        W53178  24.037   3.396   5.271 -0.3285 -0.1580 -0.0606
44379W        W53179   4.650   7.253  11.049  0.0123 -0.0206 -0.1151
44380W        W53180   0.934   5.500  16.274 -0.0079 -0.2062 -0.2104
44381W        W53181   6.409   2.394  25.799  0.0164  0.3225  0.1209
44382W        W53182  16.623   4.611   6.017  0.0264  0.2046 -0.0558
44383W        W53183  10.432   2.087  18.234  0.1200 -0.1547 -0.2212
44384W        W53184  22.895   0.372   2.837  0.0736 -0.0281  0.0449
44385W        W53185  22.410   3.518  17.834  0.1932 -0.0496  0.0119
44386W        W53186  18.161   5.130   2.582 -0.2892 -0.1686 -0.0403
44387W        W53187  18.750   3.690  22.119  0.1691  0.4170 -0.3305
44388W        W53188  25.777   7.023   8.572  0.0516  0.0447  0.2578
44389W        W53189  16.170   5.647  16.939  0.0830 -0.2094 -0.0136
44390W        W53190  24.580   6.814  22.571 -0.6887  0.2840  0.0443
44391W        W53191  18.067   4.314  24.320 -0.1961  0.0673  0.1262
44392W        W53192  13.535   7.352  15.526  0.0064 -0.0635 -0.2633
44393W        W53193  11.293   1.799   6.312 -0.0525 -0.0386  0.1207
44394W        W53194  28.278   3.996   8.288 -0.3748 -0.1783 -0.2764
44395W        W53195   4.471   0.353  19.567 -0.0131  0.1736  0.0065
44396W        W53196  16.794   1.465  21.335 -0.1678 -0.0463 -0.0983
44397W        W53197   6.874   5.537  22.224  0.0123  0.0147 -0.2246
44398W        W53198  26.275   4.409  24.742 -0.0594 -0.2369  0.0476
44399W        W53199   6.516   1.346  16.151 -0.0713 -0.2005  0.2772
44400W        W53200  20.925   1.277  10.237  0.0936 -0.0376 -0.0917
44401W        W53201  24.156   0.540  18.261  0.1672  0.3057 -0.1580
44402W        W53202   6.697   6.419  22.620 -0.0572 -0.0830 -0.1908
44403W        W53203  28.310   3.600   4.717  0.3280  0.0818 -0.0644
44404W        W53204  16.127   1.368  15.678 -0.0643  0.1469  0.3750
44405W        W53205  19.790   0.067   5.044 -0.0166  0.1107 -0.1957
44406W        W53206  16.436   7.182  21.257  0.2012 -0.0376  0.1341
44407W        W53207  31.072   5.724  21.847 -0.0853 -0.0845  0.0582
44408W        W53208  17.702   6.604   8.877  0.1639 -0.1274  0.0304
44409W        W53209   8.842   1.100  25.034 -0.2680  0.2013 -0.1061
44410W        W53210  13.090   3.933   2.633 -0.0190  0.0948  0.3484
44411W        W53211  12.327   3.398  19.533  0.0863  0.1741  0.2489
44412W        W53212  21.463   1.393   5.447  0.1480 -0.2811 -0.1277
44413W        W53213  29.647   5.914   7.930  0.0768  0.1110 -0.0540
44414W        W53214   5.342   3.460  24.165 -0.1737  0.0792 -0.1001
44415W        W53215   0.882   5.844   8.426  0.5371 -0.1255  0.1151
44416W        W53216   8.327   1.698  22.769  0.1945  0.0320  0.1092
44417W        W53217  31.304   2.044   8.009  0.1326  0.1461  0.0395
44418W        W53218  15.827   6.419   5.030  0.1122  0.0363  0.1105
44419W        W53219   8.320   5.288  16.146  0.1256 -0.0498  0.2350
44420W        W53220  10.376   4.903  25.377 -0.2572 -0.2223  0.0216
44421W        W53221   4.530   4.952  23.272 -0.2013 -0.3024  0.1865
44422W        W53222  27.153   5.624  23.028  0.1081  0.0702  0.3210
44423W        W53223   5.613   6.820   9.967  0.0090 -0.2945  0.2663
44424W        W53224   9.182   0.054   2.595 -0.1407  0.0182  0.1404
44425W        W53225   1.799   4.404   7.445  0.1230 -0.1319  0.2302
44426W        W53226  21.835   5.394  10.105  0.1177 -0.1036  0.0004
44427W        W53227  27.666   2.843  15.161 -0.0090 -0.0520 -0.0099
44428W        W53228   6.928   2.019  17.760 -0.2956  0.0425 -0.0633
44429W        W53229   5.863   5.062  20.660  0.1294  0.1010 -0.4381
44430W        W53230  26.700   0.463   2.973 -0.0950 -0.0240 -0.0870
44431W        W53231  16.928   6.536  24.090  0.1303  0.2408  0.0080
44432W        W53232   7.666   5.318  16.778  0.0624 -0.0891 -0.1155
44433W        W53233  16.082   6.208   7.173  0.0344  0.3272 -0.0921
44434W        W53234  12.370   2.800   7.392 -0.0930  0.2860  0.2051
44435W        W53235   4.668   6.444   4.090 -0.1703  0.3077 -0.0127
44436W        W53236  20.835   7.125   0.832 -0.2237 -0.3348 -0.0313
44437W        W53237  26.224   0.022   2.902  0.0872  0.1633 -0.3168
44438W        W53238   8.601   2.771  22.864  0.2663 -0.2010  0.3133
44439W        W53239  10.367   0.530   6.271  0.0630 -0.2499 -0.1133
44440W        W53240   8.635   0.049  19.553 -0.0467  0.2245 -0.2289
44441W        W53241   8.695   2.005   0.300 -0.1426 -0.0223 -0.2698
44442W        W53242  17.585   7.715   5.813  0.0156  0.0945  0.2010
44443W        W53243  27.014   1.246  22.648 -0.1782  0.5138  0.0258
44444W        W53244  30.527   6.408  18.775  0.1035  0.1846  0.1154
44445W        W53245  28.893   5.936   9.840 -0.1082 -0.3288 -0.5368
44446W        W53246  26.773   2.321   1.054 -0.0252  0.0342 -0.2062
44447W        W53247  15.602   6.501  23.721 -0.1723 -0.0141  0.1967
44448W        W53248  11.576   3.079  23.887  0.4185  0.0433  0.3406
44449W        W53249   1.314   4.274  20.619  0.1858 -0.3122  0.1025
44450W        W53250  11.720   1.321   4.133 -0.1678 -0.0215 -0.2672
44451W        W53251  22.171   0.568   1.362  0.1570 -0.0621 -0.0667
44452W        W53252  26.531   4.849  22.061  0.0258  0.2468 -0.0626
44453W        W53253  26.959   4.394  15.653  0.1024  0.0064 -0.0624
44454W        W53254  13.608   2.622  18.490  0.6174  0.0444  0.1367
44455W        W53255  13.958   2.680  24.632 -0.2909 -0.2403  0.2042
44456W        W53256   9.012   2.782  23.674 -0.0182 -0.1224 -0.1638
44457W        W53257   2.732   7.430  24.151 -0.1466 -0.0926  0.3108
44458W        W53258   7.540   7.101  18.903  0.3027 -0.4187  0.2880
44459W        W53259  15.563   2.973  17.581  0.1128  0.0058  0.0433
44460W        W53260  17.785   7.071  20.951 -0.0874 -0.0425 -0.1977
44461W        W53261  22.643   1.392  15.306 -0.0327  0.3135 -0.0585
44462W        W53262  13.112   6.110  23.748  0.0817  0.2074 -0.0028
44463W        W53263  14.345   1.653   7.809  0.0335 -0.1095  0.0254
44464W        W53264   9.370   7.053   4.559 -0.2857 -0.1102 -0.0003
44465W        W53265  26.558   6.394  10.529 -0.2359 -0.3026  0.0373
44466W        W53266  17.990   2.433   0.896 -0.1771 -0.2161 -0.0105
44467W        W53267  22.831   4.129   6.047 -0.1195  0.0809 -0.2138
44468W        W53268  28.256   1.456  21.158  0.3659 -0.4150 -0.0832
44469W        W53269  14.397   6.209   4.216  0.2999 -0.0706 -0.0041
44470W        W53270   9.046   4.184   9.638  0.1679 -0.0659  0.0144
44471W        W53271  10.423   4.487  25.739  0.2729 -0.2943 -0.1795
44472W        W53272  26.768   0.926   0.122 -0.1139 -0.0541  0.0541
44473W        W53273  27.794   2.255   2.611 -0.2007 -0.0824 -0.3618
44474W        W53274   0.729   7.268  20.696  0.1072  0.0294  0.1983
44475W        W53275   0.872   5.336   9.990 -0.3391 -0.1862 -0.1143
44476W        W53276  14.052   1.894   2.303 -0.4439 -0.4245  0.1710
44477W        W53277  24.526   0.731  19.951  0.1942  0.0494  0.1299
44478W        W53278  20.249   6.268  25.454  0.2356  0.2777 -0.0736
44479W        W53279  10.397   2.811   9.863  0.0690  0.0490  0.1698
44480W        W53280  12.913   0.593  21.838 -0.0803  0.2167 -0.1278
44481W        W53281  11.342   3.070   0.433 -0.0236  0.0192  0.3435
44482W        W53282  28.960   5.612   9.466 -0.1317  0.2221  0.1656
44483W        W53283  13.604   3.483   5.120  0.1798  0.0034  0.3526
44484W        W53284  22.569   2.954  21.548 -0.0916 -0.1151  0.1577
44485W        W53285  30.396   4.838   0.266 -0.0654 -0.0431  0.2068
44486W        W53286  21.539   7.776   7.914  0.1567  0.0024  0.2254
44487W        W53287  26.475   7.581  19.481 -0.0082  0.0284 -0.0352
44488W        W53288  22.072   4.221   3.384 -0.0880  0.2128  0.0322
44489W        W53289  28.827   4.410   4.121  0.1629 -0.1175  0.0058
44490W        W53290   5.911   0.305   0.228 -0.0849 -0.1033 -0.1584
44491W        W53291  24.040   5.347   2.327  0.0670  0.2849 -0.0407
44492W        W53292  30.037   5.567  21.732 -0.1814  0.0920  0.0199
44493W        W53293  15.450   4.105   2.231  0.2860 -0.1759 -0.0452
44494W        W53294  14.442   4.749  20.847  0.0515 -0.0968 -0.2383
44495W        W53295  30.025   3.124   7.241 -0.0554  0.1280 -0.0196
44496W        W53296  26.803   2.734   9.751  0.2051 -0.1367 -0.0952
44497W        W53297  13.601   2.895   6.310  0.0384 -0.0136 -0.3038
44498W        W53298   6.634   6.380   2.938 -0.2396  0.0300  0.0933
44499W        W53299   0.143   7.276  17.775 -0.1534 -0.3560  0.2424
44500W        W53300  31.151   3.906   1.222  0.1107 -0.0776  0.0069
44501W        W53301  26.085   5.739   9.450 -0.1159  0.0184  0.0500
44502W        W53302   6.330   2.395  22.990 -0.1327  0.1871 -0.1191
44503W        W53303   5.580   4.507  20.966 -0.0155  0.2806 -0.0970
44504W        W53304  23.600   4.473   0.936 -0.0663 -0.0807  0.3582
44505W        W53305  23.460   4.624  10.291 -0.0490  0.3193  0.0584
44506W        W53306  11.192   3.997   3.599  0.0288  0.1580 -0.1831
44507W        W53307  17.887   5.015  21.152 -0.1840  0.1700  0.3042
44508W        W53308  22.159   4.170   0.788 -0.2841  0.0853  0.0818
44509W        W53309  10.383   0.185  17.564  0.0473 -0.1801 -0.0627
44510W        W53310  28.059   5.098  20.617  0.2426 -0.2120 -0.0449
44511W        W53311  20.018   4.118   8.345  0.3205  0.1000  0.0201
44512W        W53312  16.704   7.257  23.593  0.0431  0.1466 -0.1370
44513W        W53313   0.629   4.540  11.123  0.2598  0.0313 -0.2197
44514W        W53314  22.879   1.711   9.275 -0.0125  0.0112  0.1072
44515W        W53315  10.695   4.142  23.720  0.0142 -0.0814  0.1035
44516W        W53316  15.555   5.914   5.333 -0.3887 -0.0202 -0.3372
44517W        W53317  22.551   3.232  20.749  0.0019  0.0998 -0.1574
44518W        W53318  17.261   6.736   0.049 -0.2620  0.0747 -0.2328
44519W        W53319   0.839   5.500  25.008  0.2053  0.1094 -0.1291
44520W        W53320  13.557   2.444   9.323  0.1732  0.1467 -0.2305
44521W        W53321  12.883   0.629   9.502 -0.0884 -0.1453 -0.1850
44522W        W53322   2.916   0.763  16.129  0.0591 -0.0953 -0.1438
44523W        W53323  20.694   2.267  17.301  0.0448 -0.0706 -0.0096
44524W        W53324   3.681   1.334  25.536 -0.0478 -0.1211  0.4267
44525W        W53325  28.065   3.298   8.526 -0.0152 -0.0266  0.1603
44526W        W53326  24.391   2.231  26.093 -0.2832 -0.1222 -0.1694
44527W        W53327  25.869   1.010   2.252  0.0421  0.0830  0.3567
44528W        W53328   1.931   5.709  20.385 -0.0255  0.1069  0.0894
44529W        W53329  22.535   0.724   0.972  0.0600  0.3434 -0.0916
44530W        W53330  28.519   3.880   0.709  0.0160 -0.2255  0.0525
44531W        W53331  26.097   1.708  16.917  0.0148 -0.0927  0.3102
44532W        W53332   1.456   4.505   6.007 -0.0889  0.1601  0.1579
44533W        W53333   1.394   0.695  21.333  0.1768  0.1912 -0.3224
44534W        W53334  13.371   5.946  17.742  0.3455  0.1959  0.1137
44535W        W53335  26.422   3.247  21.703  0.0789  0.3103  0.0897
44536W        W53336  23.406   4.443  17.063 -0.1790  0.1772  0.0055
44537W        W53337  29.538   1.094  16.401  0.1329  0.0547  0.0667
44538W        W53338  17.808   1.467   9.683  0.1758  0.1020 -0.3297
44539W        W53339  17.365   0.482  26.125  0.0582  0.1447  0.0760
44540W        W53340  17.955   2.695   2.589 -0.5240 -0.2434 -0.1238
44541W        W53341  16.770   2.761  10.429 -0.2078  0.0667  0.0965
44542W        W53342  20.124   4.399  22.756 -0.0396 -0.0652 -0.0224
44543W        W53343   9.886   0.553   2.442  0.0993  0.0438  0.4203
44544W        W53344   3.805   7.109   3.335 -0.0103 -0.0256 -0.3264
44545W        W53345   3.268   3.092   9.811  0.2205  0.0044 -0.0144
44546W        W53346  28.282   5.694   4.761 -0.2184 -0.2199 -0.2921
44547W        W53347  15.509   0.276  17.010 -0.1186 -0.0808 -0.1611
44548W        W53348  26.548   0.917   3.161 -0.2344  0.1195  0.1856
44549W        W53349   3.575   4.021  18.196 -0.0010 -0.0749  0.2455
44550W        W53350  21.633   1.875   8.164 -0.0113 -0.2727  0.0145
44551W        W53351  16.649   3.531  18.887 -0.2442 -0.2886  0.2232
44552W        W53352   3.692   2.727  22.355  0.4172 -0.0302 -0.1689
44553W        W53353  26.376   2.159  23.923  0.0534 -0.0544 -0.2886
44554W        W53354  16.921   7.342  20.555 -0.1628 -0.2101 -0.0393
44555W        W53355  13.237   4.227   7.979 -0.2325  0.0850  0.2972
44556W        W53356   4.255   3.912  10.641 -0.1068 -0.0895  0.3621
44557W        W53357  17.854   1.880   8.808  0.0422  0.0714 -0.1110
44558W        W53358  17.929   7.496  15.807 -0.1555  0.1498 -0.1792
44559W        W53359  20.877   2.315  24.661  0.5429  0.0273  0.0021
44560W        W53360  21.043   3.192  20.707  0.2638 -0.3298  0.2727
44561W        W53361   7.743   7.738  10.979 -0.1656  0.1404  0.0511
44562W        W53362  17.535   6.102  24.988 -0.2365 -0.2729  0.0537
44563W        W53363  26.139   0.810  23.534 -0.1012  0.3313  0.2901
44564W        W53364  14.877   1.564   7.776 -0.0367 -0.2617 -0.0324
44565W        W53365  11.791   0.441   8.276  0.1645 -0.1473 -0.0518
44566W        W53366  11.229   0.285   9.954  0.0158  0.3477  0.0700
44567W        W53367   4.672   2.291  11.349  0.2705 -0.0572  0.1555
44568W        W53368  30.902   3.070  19.126 -0.0459  0.3074 -0.1258
44569W        W53369  29.273   7.144  24.277  0.0694  0.1003  0.0229
44570W        W53370   6.847   0.027   0.358  0.1771 -0.1199  0.3005
44571W        W53371   3.135   3.845   1.494  0.1863  0.0523 -0.1273
44572W        W53372  25.850   0.089   7.148 -0.0266 -0.0230 -0.0817
44573W        W53373   9.330   1.344  22.690 -0.0913 -0.0403  0.1523
44574W        W53374   0.171   5.491  17.022  0.1640  0.2191  0.1812
44575W        W53375  30.212   6.834  20.266 -0.2182  0.1856 -0.0399
44576W        W53376   1.806   4.473  16.149  0.1126  0.1047 -0.3170
44577W        W53377  10.723   2.169   5.403  0.3042  0.2782  0.1920
44578W        W53378  29.113   1.597   3.314  0.2381 -0.0832 -0.2815
44579W        W53379  10.823   1.031  21.187  0.0068  0.0786 -0.2209
44580W        W53380  19.139   0.124  21.953  0.1064 -0.0309  0.1394
44581W        W53381  27.431   3.230   3.498 -0.0699 -0.1642  0.2518
44582W        W53382  16.236   6.643   4.780 -0.1737 -0.1246  0.3273
44583W        W53383   4.286   1.596   9.871 -0.0094  0.0489  0.0570
44584W        W53384  21.576   4.463   5.547 -0.0242 -0.0421  0.1209
44585W        W53385  23.048   1.039  23.338  0.1259  0.0935  0.2481
44586W        W53386  30.145   5.734  22.321 -0.0069 -0.0447 -0.2334
44587W        W53387  15.144   7.052   0.079 -0.2176 -0.3280  0.2460
44588W        W53388  25.690   2.423  25.875 -0.0285 -0.3951  0.0153
44589W        W53389  19.592   4.397   8.085  0.1305 -0.0825 -0.1238
44590W        W53390   7.059   2.485  19.607  0.0761 -0.0866  0.0301
44591W        W53391   2.615   2.589  18.078  0.0574  0.1799  0.1239
44592W        W53392  29.997   6.851  18.963 -0.2005  0.2142 -0.0516
44593W        W53393  15.701   6.057  15.693  0.1778  0.3006  0.0217
44594W        W53394   0.964   6.207  25.497  0.2527 -0.1380 -0.0460
44595W        W53395  10.998   3.643  18.313 -0.0251  0.1762 -0.1387
44596W        W53396  10.722   0.707   5.148  0.0868 -0.1118 -0.0953
44597W        W53397  24.975   6.964  10.247  0.0134 -0.0619  0.1923
44598W        W53398  26.204   3.063   8.385  0.1049  0.2349 -0.0648
44599W        W53399   6.921   2.375   7.909  0.2782 -0.2583 -0.1739
44600W        W53400   1.234   2.186  15.747  0.0191  0.2193  0.2424
44601W        W53401   3.406   6.560   6.945 -0.0438 -0.1359  0.0620
44602W        W53402   1.623   4.029   1.042 -0.4422  0.0671  0.2738
44603W        W53403  24.339   3.978  20.841 -0.0771  0.2754 -0.0901
44604W        W53404   5.266   5.857   6.678  0.0042  0.1769 -0.1628
44605W        W53405  30.112   5.900  25.551 -0.1598  0.1248  0.0122
44606W        W53406   5.588   7.384   1.510 -0.0453 -0.0370 -0.1267
44607W        W53407  18.304   2.025  18.142  0.2557  0.2110 -0.0944
44608W        W53408  24.195   4.062  20.370 -0.0322 -0.1618 -0.0329
44609W        W53409  18.059   0.281   1.608  0.3280  0.2508 -0.0327
44610W        W53410  10.624   2.964   2.463  0.0076  0.1690 -0.1993
44611W        W53411  17.296   2.960  16.803  0.0138 -0.1346 -0.2854
44612W        W53412   7.574   5.631  21.820 -0.1227  0.2114 -0.0254
44613W        W53413  15.093   6.733  23.652  0.2851  0.1267 -0.3268
44614W        W53414  30.959   1.412   5.444 -0.0365 -0.0580  0.0537
44615W        W53415  28.410   4.336   3.519  0.0751 -0.0353  0.2477
44616W        W53416   0.397   2.872  23.470  0.3704  0.0723 -0.1106
44617W        W53417   7.733   6.852   4.493  0.0957 -0.0206 -0.0687
44618W        W53418  24.593   2.432   6.110  0.1714 -0.1530 -0.1255
44619W        W53419   0.925   4.166  11.365  0.0753  0.0196 -0.3063
44620W        W53420  13.587   3.442   6.979 -0.0048 -0.1632 -0.0100
44621W        W53421   9.909   3.375  22.693  0.0556  0.0949  0.1616
44622W        W53422  15.833   0.691   9.212  0.0790  0.2011  0.0677
44623W        W53423   1.689   7.826   2.298  0.2031  0.2116  0.1821
44624W        W53424  20.769   7.568  17.429  0.3310 -0.2030  0.3043
44625W        W53425  22.369   1.737   4.233  0.1195 -0.2094  0.0480
44626W        W53426  12.585   5.894  14.701  0.1581 -0.0180  0.1236
44627W        W53427  25.244   7.340  21.339  0.0074 -0.1354 -0.1679
44628W        W53428   7.521   2.516   0.531  0.1290  0.4072  0.3009
44629W        W53429  27.855   0.640  21.155 -0.0120  0.0419 -0.0399
44630W        W53430  13.561   0.228  16.973  0.1966  0.0810  0.1042
44631W        W53431  24.896   6.097   3.380 -0.2483 -0.0238  0.1745
44632W        W53432  18.017   4.257   6.498  0.2423  0.0481  0.2011
44633W        W53433   4.989   6.214  24.395  0.1183 -0.3881  0.0506
44634W        W53434  23.831   6.815   2.736  0.0793  0.0604 -0.1166
44635W        W53435  24.264   3.066  16.911  0.1826 -0.1272 -0.1253
44636W        W53436   0.790   6.515  10.851 -0.1507 -0.2872 -0.1796
44637W        W53437   4.122   0.450  17.442  0.4363 -0.0739 -0.0033
44638W        W53438  30.918   0.479  20.192  0.0579  0.2173 -0.3273
44639W        W53439   8.058   0.454   0.185  0.1465 -0.1597  0.0426
44640W        W53440  25.813   7.764  23.843 -0.0334  0.2639  0.0003
44641W        W53441  26.404   6.064   3.222 -0.0935  0.0031  0.2208
44642W        W53442  10.568   0.749  18.160  0.0817 -0.1559 -0.0169
44643W        W53443  21.619   2.981  26.148 -0.0592 -0.2686  0.0889
44644W        W53444  25.722   6.906  25.237  0.0623 -0.2856 -0.1058
44645W        W53445   4.064   1.518  18.337 -0.1852  0.0371  0.2429
44646W        W53446   7.886   2.350  25.497  0.2286 -0.1360 -0.0728
44647W        W53447  14.023   0.796   5.525  0.0871 -0.1148 -0.1801
44648W        W53448  27.701   5.046   5.309 -0.1037  0.3157  0.0610
44649W        W53449  23.011   3.902   8.734  0.0286  0.1305 -0.0539
44650W        W53450  18.023   3.248   7.987  0.1822  0.1247  0.4362
44651W        W53451   4.109   5.632   2.442 -0.0907  0.2288  0.1112
44652W        W53452   5.075   3.960   6.781  0.2364 -0.2415 -0.1733
44653W        W53453   9.000   6.003   9.326 -0.4032 -0.0516 -0.1386
44654W        W53454  20.296   6.852  26.023  0.1704  0.0610  0.1489
44655W        W53455  26.011   4.884  21.196  0.0711  0.0725 -0.0364
44656W        W53456  13.110   5.288   8.538  0.0169 -0.0731  0.0077
44657W        W53457  24.358   1.486  17.732  0.1658 -0.0337  0.1495
44658W        W53458  25.044   7.338  20.030 -0.0646  0.0219 -0.5180
44659W        W53459   2.102   6.213   3.050  0.0776 -0.0803 -0.1142
44660W        W53460  16.804   2.756   3.939 -0.2338  0.0102  0.2703
44661W        W53461   4.513   2.847   6.684  0.1676  0.0809  0.2077
44662W        W53462  21.000   4.789  24.638  0.0116 -0.0323 -0.1081
44663W        W53463   0.741   3.564   0.635  0.1576  0.0649 -0.2374
44664W        W53464   5.305   7.058  24.238 -0.0021  0.0246 -0.0384
44665W        W53465  15.785   7.149  18.096 -0.1768 -0.0038  0.0476
44666W        W53466   0.327   1.709  10.941  0.1517  0.2366 -0.0669
44667W        W53467  21.163   4.313   6.386 -0.3712 -0.1489  0.0023
44668W        W53468  22.474   0.283  14.504  0.1649  0.1079 -0.0892
44669W        W53469  16.793   6.801  21.313 -0.0390  0.0786 -0.2788
44670W        W53470   2.417   7.531  16.738  0.2759 -0.1861  0.0005
44671W        W53471  17.794   6.380  15.342 -0.0756 -0.1311 -0.1530
44672W        W53472   7.783   7.451   6.406  0.0500  0.2125 -0.1461
44673W        W53473   1.906   3.572   2.228  0.0644  0.4069  0.1794
44674W        W53474  21.940   5.619  25.644  0.1479 -0.2033 -0.0137
44675W        W53475  27.955   5.871  15.671  0.0633 -0.0842 -0.1435
44676W        W53476   8.497   4.446  25.809 -0.0675 -0.3194  0.5209
44677W        W53477  21.955   1.565  16.008  0.2234  0.1610  0.0601
44678W        W53478  26.943   2.343   8.275  0.1419  0.0595 -0.0579
44679W        W53479  10.321   6.745   9.007  0.0574 -0.1310 -0.0655
44680W        W53480  21.055   1.550  18.484  0.3117 -0.0310 -0.0656
44681W        W53481  29.618   4.626  10.246 -0.2929  0.1990 -0.1101
44682W        W53482  22.052   4.088   1.302 -0.0062  0.1913 -0.1146
44683W        W53483  28.866   0.897   6.385  0.3178 -0.2347  0.1216
44684W        W53484   5.745   6.827  21.562  0.0633 -0.1959  0.0350
44685W        W53485  20.891   2.147  10.781 -0.0104  0.1440 -0.1289
44686W        W53486  27.281   3.333  25.990  0.2004  0.1375 -0.1759
44687W        W53487   7.887   4.561   7.870  0.1934 -0.1988 -0.1245
44688W        W53488  26.546   6.867  18.209 -0.1942 -0.2035 -0.0070
44689W        W53489   9.973   7.802   5.027 -0.4217  0.2782  0.0466
44690W        W53490  31.018   5.028  19.927  0.1428 -0.0923  0.2840
44691W        W53491   3.737   6.695  19.827 -0.1796  0.1924 -0.0246
44692W        W53492  15.233   1.811   1.997  0.1252 -0.2427 -0.1654
44693W        W53493  18.854   4.672  20.708 -0.0528  0.0375 -0.1461
44694W        W53494  15.825   7.087  15.691  0.0779 -0.0482  0.1269
44695W        W53495  10.660   2.268  17.660  0.0628  0.0781 -0.3847
44696W        W53496  26.434   5.573   8.591  0.1260 -0.1209 -0.0167
44697W        W53497  17.932   3.602   3.544  0.1317  0.0466  0.2855
44698W        W53498  10.169   4.736   3.018 -0.1410 -0.0748 -0.6896
44699W        W53499   3.685   2.486   1.914 -0.1550  0.0428 -0.0708
44700W        W53500  22.254   2.941   4.475 -0.0531  0.0003 -0.0673
44701W        W53501   6.846   5.066  20.576  0.1454 -0.1459  0.2774
44702W        W53502  30.429   2.236  20.178 -0.1148  0.2299  0.2446
44703W        W53503  23.282   5.106   3.191 -0.2172 -0.3010  0.1748
44704W        W53504  14.644   6.647  25.011  0.2400 -0.3193  0.2191
44705W        W53505  25.671   0.901  18.952  0.3850  0.2354  0.3532
44706W        W53506  11.421   0.343   3.201  0.1574 -0.0178 -0.0928
44707W        W53507  30.610   5.369  10.031  0.0331 -0.0775 -0.1299
44708W        W53508  27.022   4.311  20.813  0.0259 -0.0529 -0.2187
44709W        W53509   7.011   4.358  23.612  0.0683  0.0623 -0.0611
44710W        W53510   4.886   5.323   5.384  0.0896 -0.0341  0.0832
44711W        W53511  28.466   4.319  15.895  0.0944 -0.1399 -0.1106
44712W        W53512  18.690   5.650   8.753 -0.0876 -0.1523 -0.0010
44713W        W53513   4.290   3.942   8.448 -0.0957  0.0539 -0.2225
44714W        W53514   8.092   2.080  21.831  0.0469 -0.0058 -0.3059
44715W        W53515  11.320   1.011  21.329 -0.0749  0.2659  0.0915
44716W        W53516  17.689   5.897   0.439  0.0228 -0.1040  0.0089
44717W        W53517  30.548   5.461   5.185 -0.2112 -0.1716 -0.1447
44718W        W53518  10.815   5.605   4.742 -0.1133 -0.1807  0.2287
44719W        W53519  17.433   5.617  10.139  0.1202  0.1845 -0.0041
44720W        W53520  14.494   0.304   8.954  0.1966  0.2387  0.3100
44721W        W53521   0.224   3.506  19.513 -0.1402 -0.2028 -0.2796
44722W        W53522  13.333   5.442  24.270 -0.2407  0.1418 -0.0911
44723W        W53523  19.633   4.444  25.870 -0.1799 -0.0214 -0.4407
44724W        W53524  24.065   2.309  20.200  0.1222  0.0208  0.2010
44725W        W53525  17.479   3.868  18.610 -0.1473 -0.0874  0.0859
44726W        W53526   8.116   5.581   2.691  0.1338 -0.1831  0.2029
44727W        W53527   1.872   7.330   7.615 -0.0674 -0.1516 -0.0269
44728W        W53528  16.531   5.182  24.344 -0.0028  0.2817  0.0982
44729W        W53529  16.409   3.296   6.706  0.2416 -0.1979  0.0376
44730W        W53530  12.425   3.618   6.793 -0.0476  0.0360  0.1787
44731W        W53531  24.434   0.525   3.896 -0.1042 -0.0774 -0.1085
44732W        W53532  19.964   3.730   6.700 -0.0100  0.1990  0.0570
44733W        W53533  27.146   5.196   1.970  0.1634  0.1765 -0.2354
44734W        W53534  29.065   0.342   3.239 -0.2935 -0.1518  0.5036
44735W        W53535  20.969   4.704   8.619  0.3112  0.0841  0.0262
44736W        W53536   0.409   3.804  21.942 -0.0691  0.2382 -0.1961
44737W        W53537  14.672   2.206  15.949  0.1829  0.1007 -0.2144
44738W        W53538  26.922   0.812  23.671  0.0224  0.1930  0.0061
44739W        W53539  30.206   4.095  15.198  0.0743 -0.2632 -0.2723
44740W        W53540  16.276   1.795   9.910  0.2721 -0.2273 -0.0920
44741W        W53541  24.406   0.662   9.677 -0.2390  0.2753  0.3273
44742W        W53542   1.116   3.807  20.995 -0.1160  0.1156  0.4261
44743W        W53543  24.221   1.773  21.625 -0.1126  0.1218  0.0190
44744W        W53544  15.030   7.293  22.146 -0.2199 -0.2209  0.1727
44745W        W53545  18.625   6.120  21.767  0.2397  0.2805 -0.0778
44746W        W53546   5.449   7.447  15.979 -0.1774 -0.1188 -0.1994
44747W        W53547  10.175   4.221  17.244 -0.0409  0.1459  0.1682
44748W        W53548  23.529   2.329   7.930  0.1390  0.1754  0.1243
44749W        W53549   0.958   3.638  23.129 -0.1594  0.0069 -0.0164
44750W        W53550   1.865   4.506  23.084 -0.0407 -0.1330 -0.1887
44751W        W53551   9.517   3.640  19.261 -0.1252  0.1972 -0.1064
44752W        W53552  18.015   6.669  24.099 -0.0547 -0.1306  0.1562
44753W        W53553   0.342   7.703   0.135 -0.0119 -0.0639  0.2184
44754W        W53554  12.331   5.844  21.820  0.3757 -0.0073  0.2275
44755W        W53555   5.471   1.080   3.877  0.0890 -0.0453 -0.3609
44756W        W53556  28.584   0.838  18.194 -0.1588  0.0543 -0.0653
44757W        W53557  23.628   7.234  15.772 -0.1386 -0.1526  0.0040
44758W        W53558   7.575   2.280  15.666  0.0127  0.1128 -0.0894
44759W        W53559  15.506   7.291   3.913 -0.1544 -0.0446 -0.1956
44760W        W53560  17.165   7.186   1.246 -0.3605  0.1074  0.2754
44761W        W53561  20.105   0.311   9.313  0.1650  0.0404  0.3190
44762W        W53562  25.550   4.169  24.414  0.0244 -0.1655 -0.1682
44763W        W53563  13.650   5.525  25.495 -0.1223  0.0291  0.0839
44764W        W53564   9.622   0.055  20.481 -0.0611  0.0110  0.0866
44765W        W53565  15.374   2.633  19.195  0.1257 -0.0383  0.2855
44766W        W53566   6.682   7.117  19.766 -0.3716 -0.0281  0.1212
44767W        W53567  20.126   7.456   6.956  0.1582  0.2589 -0.1990
44768W        W53568  26.792   3.969   3.525 -0.1226  0.0369 -0.1113
44769W        W53569  17.013   1.275   4.834 -0.3485 -0.0104  0.3085
44770W        W53570  13.343   5.315  22.381  0.0348  0.2721 -0.2917
44771W        W53571  30.899   3.117  17.817 -0.3634  0.1157 -0.0163
44772W        W53572  14.791   4.625  22.063  0.0044 -0.2471  0.0316
44773W        W53573   0.397   7.371   0.860 -0.1844  0.0326  0.2028
44774W        W53574   2.646   6.513   1.686 -0.0596 -0.2816  0.1503
44775W        W53575  22.306   6.165  19.812  0.1566  0.0373 -0.2212
44776W        W53576  15.637   3.127   9.169  0.3172 -0.0674 -0.1074
44777W        W53577  19.806   2.436  17.128 -0.0340 -0.1768 -0.0258
44778W        W53578  23.968   0.789   4.967 -0.1109 -0.4068 -0.1428
44779W        W53579  17.408   0.388  17.210 -0.0067  0.0713 -0.2490
44780W        W53580  16.100   6.100   1.572  0.1218  0.0118  0.1798
44781W        W53581  23.987   1.388   8.429  0.1423  0.0583 -0.1539
44782W        W53582  30.813   3.541   1.325 -0.3682 -0.0125 -0.0325
44783W        W53583  11.482   2.131   0.977  0.3903  0.2292 -0.2533
44784W        W53584  15.147   6.092  25.399 -0.2939  0.1216  0.0525
44785W        W53585   6.393   5.790  16.961 -0.2738 -0.3690  0.1082
44786W        W53586  10.426   1.291  16.440 -0.1974 -0.1994 -0.0102
44787W        W53587   5.682   4.015  17.390 -0.1667 -0.0006 -0.0330
44788W        W53588  29.604   2.013   2.110  0.1235 -0.0456 -0.2297
44789W        W53589  29.550   7.366  17.590  0.0142 -0.1569 -0.0057
44790W        W53590  28.651   3.966  21.186 -0.0685  0.2062  0.3576
44791W        W53591   3.071   1.694   0.564 -0.0136  0.1746 -0.0579
44792W        W53592  30.086   7.732  22.926 -0.0028 -0.1543 -0.0048
44793W        W53593  23.857   7.038  25.545 -0.0061  0.1122  0.1968
44794W        W53594   9.676   0.412  18.018  0.2144  0.1541  0.1380
44795W        W53595  26.562   2.867  25.524  0.0601  0.1003 -0.1718
44796W        W53596  28.273   6.037  20.262 -0.2928 -0.3051  0.0525
44797W        W53597  29.916   0.168   3.716 -0.2713 -0.1039  0.0372
44798W        W53598   6.265   5.647  23.247 -0.1307  0.1907 -0.2876
44799W        W53599  10.943   2.049  17.265  0.1700 -0.0172  0.0698
44800W        W53600  16.102   0.782  25.576 -0.1700  0.2372  0.0698
44801W        W53601  19.441   5.061   9.997 -0.2848 -0.0230 -0.0915
44802W        W53602  20.799   1.458  15.806 -0.0042 -0.3322  0.2199
44803W        W53603  17.797   6.263   3.040 -0.0549  0.1348  0.1675
44804W        W53604  13.634   1.835   0.445 -0.0672 -0.1091 -0.3007
44805W        W53605  24.533   6.329   1.620 -0.0741 -0.0662  0.0441
44806W        W53606  15.528   7.771   8.888  0.0617  0.0253 -0.1052
44807W        W53607  23.574   1.238  22.127  0.0715  0.2425  0.4042
44808W        W53608   4.721   0.810  15.619 -0.1310  0.1690 -0.0525
44809W        W53609   3.660   5.957   0.486 -0.0663 -0.1082 -0.1487
44810W        W53610   8.578   6.768  19.105 -0.2122  0.3488  0.3467
44811W        W53611   9.170   1.919   0.539 -0.0341  0.1444  0.0669
44812W        W53612  30.669   1.494  25.384  0.1079 -0.1706 -0.2346
44813W        W53613  14.534   2.761   9.031 -0.1415 -0.2222  0.0938
44814W        W53614  19.461   1.339  24.371 -0.1720 -0.0524  0.0847
44815W        W53615   0.369   1.487   8.918 -0.0061  0.0453 -0.0345
44816W        W53616  13.421   1.130  20.720 -0.1578  0.1815 -0.0688
44817W        W53617  18.186   5.842  21.847 -0.0946 -0.0397  0.1443
44818W        W53618  20.891   6.234   0.988  0.1377 -0.0137 -0.0488
44819W        W53619  15.518   6.032   4.342 -0.1898 -0.0395  0.1951
44820W        W53620  26.329   7.645   8.730  0.0059  0.1318 -0.1560
44821W        W53621  12.530   3.189   9.824  0.4169 -0.1362  0.0002
44822W        W53622  25.415   2.984  23.849 -0.2327  0.1325 -0.2216
44823W        W53623  30.008   4.286  25.733 -0.1123 -0.0044  0.2349
44824W        W53624  23.764   3.224   1.301 -0.0462 -0.1077  0.1956
44825W        W53625   2.781   1.733   7.718  0.1176 -0.0250  0.0456
44826W        W53626  18.969   0.158  25.227 -0.2955 -0.1264  0.1570
44827W        W53627  23.113   5.578  23.994  0.1893  0.2625  0.1751
44828W        W53628  10.815   1.706  19.085 -0.0831  0.1536 -0.0057
44829W        W53629  22.015   2.292  23.718  0.2300  0.1706 -0.0295
44830W        W53630  26.066   5.485   0.273 -0.0490  0.1187  0.2482
44831W        W53631   9.325   0.216   6.410 -0.0609 -0.0923 -0.0654
44832W        W53632   5.374   1.989   1.485 -0.0896 -0.0291 -0.0250
44833W        W53633   7.294   2.428   1.523  0.1758 -0.4188 -0.0574
44834W        W53634  21.943   4.477  22.051 -0.1474  0.1761  0.0578
44835W        W53635  21.786   0.905  22.588  0.4058  0.0814  0.2649
44836W        W53636  17.530   3.689   0.295 -0.0130 -0.1429 -0.4064
44837W        W53637  25.494   6.200   1.496  0.0986 -0.1704 -0.1276
44838W        W53638   2.039   7.534  23.575 -0.0860 -0.0015  0.0236
44839W        W53639  14.302   5.799   4.479  0.1472 -0.0138  0.3371
44840W        W53640  16.482   7.187   8.395 -0.0375  0.0420 -0.2509
44841W        W53641  24.891   3.061  18.510  0.2374  0.1246  0.1651
44842W        W53642  16.523   4.353   2.415  0.1173 -0.3507  0.1182
44843W        W53643  24.687   5.416  16.045  0.3113 -0.0798  0.1688
44844W        W53644   6.584   6.002   4.264  0.1365 -0.1022  0.0763
44845W        W53645  17.536   2.377  17.718 -0.0239 -0.0140  0.0818
44846W        W53646  14.413   1.824  21.581 -0.0616 -0.0604  0.0874
44847W        W53647  13.716   7.563  22.133  0.0772  0.0457  0.1057
44848W        W53648  31.125   7.344   5.606 -0.1180 -0.0139 -0.0819
44849W        W53649  24.400   4.782  19.096  0.0608  0.1941 -0.1752
44850W        W53650   7.141   7.244  15.939 -0.1760 -0.0960 -0.2254
44851W        W53651  29.573   0.063  19.489 -0.2841 -0.0781 -0.1155
44852W        W53652  13.860   5.499   4.011 -0.1360  0.0412  0.1123
44853W        W53653  10.818   3.631  16.507 -0.1188 -0.0954 -0.2171
44854W        W53654  27.657   7.722   5.499 -0.1379  0.0202  0.1149
44855W        W53655  21.856   6.900   9.972 -0.1868 -0.0629 -0.5670
44856W        W53656  28.164   2.493  23.328  0.0955  0.1734  0.0935
44857W        W53657   9.459   1.938   7.315  0.0245  0.1650  0.0140
44858W        W53658  16.671   7.364   1.145  0.0283  0.0611  0.0725
44859W        W53659  26.078   4.501   7.258  0.1637 -0.2024 -0.0040
44860W        W53660  21.139   1.146   9.608  0.2041 -0.1359 -0.0664
44861W        W53661  17.034   3.907  22.507 -0.1519 -0.1555  0.0928
44862W        W53662  23.755   1.379   2.680 -0.0751 -0.1391  0.0499
44863W        W53663   5.741   1.542   7.114  0.1764  0.2307  0.4467
44864W        W53664  21.648   3.551  23.008 -0.1173 -0.0917 -0.0117
44865W        W53665  11.274   3.398   6.802  0.0019  0.0129  0.0324
44866W        W53666  28.547   1.812  19.106  0.0181  0.2742 -0.2216
44867W        W53667  16.296   2.364   7.092 -0.1955 -0.0447 -0.0363
44868W        W53668  30.964   7.155  23.289  0.0648 -0.4110  0.0821
44869W        W53669  22.107   4.255   4.310  0.1567  0.0866 -0.0609
44870W        W53670   1.096   0.170  17.935  0.2329 -0.0303 -0.3651
44871W        W53671   0.135   5.963   8.695 -0.0877  0.2706  0.1516
44872W        W53672   7.971   4.872  15.863 -0.1020  0.0032 -0.0249
44873W        W53673   0.514   1.181  25.022  0.2654  0.1095  0.1058
44874W        W53674   1.895   3.621   6.071  0.0305 -0.0230 -0.1802
44875W        W53675  14.282   2.627   0.371  0.1038  0.0748 -0.3604
44876W        W53676  12.695   7.163  16.082 -0.1905  0.0234 -0.1069
44877W        W53677  14.840   4.422  21.039 -0.0136  0.1293  0.3316
44878W        W53678  21.088   4.994   9.924  0.0026  0.2084 -0.0497
44879W        W53679  19.956   2.563  20.018  0.0797 -0.0690 -0.1051
44880W        W53680  29.126   6.593   8.421  0.1703  0.1012 -0.1710
44881W        W53681   2.674   5.403   6.099 -0.0676 -0.1893  0.1265
44882W        W53682   7.846   6.461   9.778  0.1714  0.0739 -0.0055
44883W        W53683   5.351   4.985  21.021 -0.0063 -0.0515 -0.2145
44884W        W53684   0.731   7.501  26.073  0.1189  0.0075 -0.0355
44885W        W53685  20.133   3.486  15.598  0.1988 -0.0574 -0.1330
44886W        W53686  13.993   0.295  20.868  0.0102  0.3632 -0.0038
44887W        W53687  19.941   4.064  17.339  0.0178  0.2457  0.1646
44888W        W53688  10.103   6.399   3.799  0.2042 -0.0226  0.0019
44889W        W53689   2.667   4.535   4.247 -0.0819 -0.0364  0.2722
44890W        W53690  13.008   1.136  22.027 -0.2154 -0.0622  0.1761
44891W        W53691  25.026   5.835   8.428  0.1657 -0.2586  0.0445
44892W        W53692  18.550   4.978  10.370  0.0894  0.3494 -0.0206
44893W        W53693   4.840   4.935  10.693  0.0142 -0.1585 -0.0216
44894W        W53694  19.461   6.703   6.127  0.0306  0.1102 -0.0006
44895W        W53695  28.106   6.747  25.007  0.0485  0.0606 -0.2097
44896W        W53696   9.601   2.161  16.700  0.0849 -0.1371 -0.2632
44897W        W53697  18.759   7.594   3.812  0.0168 -0.0969 -0.2074
44898W        W53698  23.314   3.719   7.804 -0.4307 -0.0555 -0.3932
44899W        W53699  15.701   3.369  17.999 -0.3467 -0.0349 -0.2186
44900W        W53700  18.238   2.818  19.861  0.0662 -0.2381  0.2270
44901W        W53701   9.916   5.511  21.896  0.0296 -0.0414  0.1896
44902W        W53702   3.887   4.655   7.367 -0.0097  0.0465  0.1390
44903W        W53703  16.269   6.272  22.784 -0.0265 -0.0389  0.0984
44904W        W53704  30.042   7.376  18.923 -0.3003  0.0977 -0.3857
44905W        W53705  25.550   6.089  20.728  0.1125  0.0371 -0.1407
44906W        W53706   6.234   6.149   7.988 -0.0606  0.2905  0.0652
44907W        W53707  26.961   6.800  24.496  0.2206 -0.0356 -0.0244
44908W        W53708  20.554   3.232   1.377 -0.0792 -0.3272 -0.5564
44909W        W53709   0.601   6.111  22.352  0.2393  0.2254 -0.0667
44910W        W53710  29.590   0.669   8.949 -0.0814  0.1893  0.2548
44911W        W53711  21.309   4.711  24.181 -0.0358  0.1369  0.0356
44912W        W53712  19.416   4.341  17.467  0.0435  0.0513  0.0844
44913W        W53713  30.725   0.339   2.231 -0.1660  0.2986 -0.1766
44914W        W53714  30.512   2.502   2.243  0.0733  0.0272 -0.2038
44915W        W53715   0.361   6.342  21.461  0.0426 -0.3304 -0.2098
44916W        W53716  24.450   7.101  18.813 -0.0836  0.0272 -0.1707
44917W        W53717  17.937   2.626  10.376 -0.2914 -0.0151 -0.2929
44918W        W53718  24.898   5.503  22.940 -0.0168  0.1906  0.0860
44919W        W53719   4.146   5.637  21.343 -0.0372  0.0390  0.2218
44920W        W53720  17.790   0.308  17.505  0.1188  0.1262  0.0204
44921W        W53721  12.595   7.712   8.041 -0.0670  0.0686  0.1235
44922W        W53722   7.347   6.865  23.803  0.0008  0.0274 -0.0322
44923W        W53723   0.407   6.456  23.250 -0.0027 -0.1913 -0.0979
44924W        W53724  30.377   3.941  20.672  0.0730 -0.2388 -0.2797
44925W        W53725  28.849   4.599  22.940  0.2552 -0.2210 -0.0634
44926W        W53726  23.309   3.701   2.523  0.3309  0.1606 -0.1717
44927W        W53727  26.710   5.006   7.895  0.1417 -0.1604  0.3583
44928W        W53728  26.685   3.043  22.605  0.0028  0.2191 -0.0498
44929W        W53729  24.930   1.543  19.250  0.0103 -0.0973 -0.1699
44930W        W53730   0.597   2.786  11.147  0.0823  0.1516  0.0758
44931W        W53731   3.565   0.328  21.656  0.1775  0.0260  0.0066
44932W        W53732   5.352   5.905   3.578 -0.2011  0.2679  0.1613
44933W        W53733   5.319   0.006   0.320  0.1664 -0.1865 -0.0211
44934W        W53734  26.052   2.836  11.362  0.3225 -0.1306  0.3773
44935W        W53735   3.185   2.602  22.225 -0.1254 -0.0017  0.1051
44936W        W53736   6.412   6.883   6.054  0.0376  0.0695 -0.1233
44937W        W53737  13.893   2.843   7.732  0.1071 -0.0590  0.0737
44938W        W53738  18.548   5.500   6.041  0.3925  0.1526  0.2680
44939W        W53739  30.831   2.725   6.560 -0.2016 -0.3821  0.1120
44940W        W53740  21.522   2.015   0.481  0.3336  0.2132  0.1057
44941W        W53741  15.879   6.849   5.297 -0.0488 -0.2260 -0.4388
44942W        W53742  26.148   4.849  18.504  0.0897 -0.1045  0.0042
44943W        W53743   5.493   0.591   5.900 -0.1342  0.3866 -0.1911
44944W        W53744  28.777   0.840  25.865 -0.0979  0.3403  0.0172
44945W        W53745  18.324   4.459  25.563 -0.0682 -0.0903  0.1690
44946W        W53746  29.271   4.911  16.417  0.0370  0.2057  0.1708
44947W        W53747  10.948   1.465   3.221 -0.0134  0.1416 -0.0693
44948W        W53748  20.029   2.770  16.838  0.0061  0.3477  0.0340
44949W        W53749  15.029   1.168   5.428  0.1760 -0.0810  0.0842
44950W        W53750  22.035   6.871  24.158 -0.1174  0.0410  0.2402
44951W        W53751   1.080   7.065  10.573  0.1863 -0.2774 -0.1860
44952W        W53752  21.985   6.380   5.540 -0.1371  0.0870 -0.0801
44953W        W53753   4.059   6.462   9.768  0.2148  0.0219 -0.0980
44954W        W53754  17.965   3.648  22.212  0.0609 -0.0807 -0.2941
44955W        W53755   8.740   3.425  20.938  0.2956 -0.4363  0.1585
44956W        W53756  15.195   1.443  16.986  0.0626 -0.0900 -0.2185
44957W        W53757  12.884   6.273  20.723 -0.0294  0.0975  0.0129
44958W        W53758  22.847   5.497   4.465  0.2434  0.1479  0.2043
44959W        W53759  30.413   5.165  16.203 -0.0563 -0.1040 -0.0847
44960W        W53760  23.478   4.315  25.798  0.0194  0.0937 -0.0781
44961W        W53761  21.492   1.514   2.194  0.1622 -0.0958 -0.0492
44962W        W53762   1.462   0.891   4.266  0.3113  0.3234  0.0819
44963W        W53763   7.075   7.726   7.454  0.0427  0.0775  0.0858
44964W        W53764  11.261   1.859   8.583 -0.1187  0.2891 -0.2082
44965W        W53765   5.261   3.465   1.379 -0.0119 -0.1107  0.0745
44966W        W53766  30.304   6.446  17.180  0.2148 -0.1494  0.0035
44967W        W53767  18.723   0.890  14.455 -0.0657  0.0340  0.0153
44968W        W53768  19.163   5.566  15.055 -0.1961  0.0324  0.0781
44969W        W53769   9.479   6.492  25.981  0.2164 -0.1801 -0.3182
44970W        W53770  27.140   3.694   6.423 -0.3914  0.1492 -0.1305
44971W        W53771  11.545   7.719   2.388  0.0387 -0.1734 -0.0935
44972W        W53772  19.692   1.432  17.220  0.0151 -0.0778 -0.0842
44973W        W53773  14.992   3.690   4.375  0.1902 -0.3375  0.1494
44974W        W53774   5.470   7.069  25.377  0.2686 -0.0413 -0.0341
44975W        W53775   1.555   1.051  20.129 -0.2406  0.0582  0.1443
44976W        W53776  10.917   1.983  18.547 -0.3275  0.1347 -0.1481
44977W        W53777  25.622   5.876  16.138  0.0151  0.2018 -0.1401
44978W        W53778   9.120   5.502   7.787  0.1115  0.1050 -0.1266
44979W        W53779   8.779   6.840   9.545  0.1414 -0.1237  0.0767
44980W        W53780   8.444   3.994  24.989 -0.0794  0.3099 -0.3369
44981W        W53781  29.045   5.911  25.684  0.3135 -0.1508  0.0782
44982W        W53782   4.538   6.541   0.205 -0.0799 -0.3114  0.1209
44983W        W53783  23.309   7.805   6.754  0.3695  0.2815 -0.0631
44984W        W53784   3.979   3.539   8.318 -0.2328 -0.1507  0.1141
44985W        W53785   1.023   7.394   5.346  0.0080  0.2139  0.2881
44986W        W53786  17.601   3.952  20.859  0.1604 -0.0403  0.1913
44987W        W53787  21.199   4.648  22.197  0.1379  0.2075 -0.0143
44988W        W53788  20.131   5.994   7.445 -0.2386  0.4031  0.3502
44989W        W53789  20.786   6.646  18.654  0.1963 -0.0059  0.0794
44990W        W53790  30.766   5.048   3.637 -0.4157 -0.0851 -0.0055
44991W        W53791  25.486   0.198   7.469  0.3921 -0.0002 -0.0311
44992W        W53792  20.165   3.588  17.506  0.1883 -0.0399  0.0636
44993W        W53793   1.369   6.543   2.241  0.2454 -0.0296  0.1718
44994W        W53794  12.904   4.225  21.525 -0.1232 -0.0808  0.2979
44995W        W53795  28.686   6.723  23.646  0.3938 -0.4314 -0.0422
44996W        W53796   5.401   4.368   6.474  0.1358 -0.3872  0.0370
44997W        W53797  29.143   2.396   0.348 -0.1598 -0.0073  0.0024
44998W        W53798  23.176   0.314   2.014 -0.3430 -0.0061  0.0671
44999W        W53799  25.769   7.401   3.851  0.1719 -0.1384 -0.1841
45000W        W53800   0.217   5.863  16.633  0.3962 -0.0144 -0.2212
45001W        W53801   8.764   5.430  23.413  0.0233  0.0294 -0.0044
45002W        W53802   2.226   4.725  18.814 -0.1617 -0.2407 -0.4133
45003W        W53803  20.661   6.998   9.880 -0.1247 -0.0773  0.0468
45004W        W53804  12.864   6.453  22.355  0.0144 -0.0059  0.2963
45005W        W53805  26.083   5.647  19.901  0.1781 -0.1842 -0.0494
45006W        W53806  19.345   1.553  15.705 -0.2919  0.3424  0.0910
45007W        W53807   5.412   1.842   0.562  0.0345  0.1011  0.2036
45008W        W53808   4.670   7.321  18.906  0.1428 -0.1867  0.0351
45009W        W53809  27.693   7.459  20.943  0.2124 -0.0536  0.3827
45010W        W53810  31.194   7.542  24.646  0.1280 -0.3602  0.3933
45011W        W53811  12.464   6.262   4.583 -0.0457  0.2356 -0.0643
45012W        W53812   4.873   7.201  24.618  0.0368 -0.0489  0.2171
45013W        W53813  21.721   2.527  19.899 -0.2527  0.0859 -0.0069
45014W        W53814  25.347   6.644  10.501 -0.2302  0.0990 -0.1457
45015W        W53815   1.349   6.443   0.858 -0.1144  0.0841  0.1782
45016W        W53816  15.476   0.369   2.125  0.1245  0.0558 -0.0461
45017W        W53817   8.535   3.475  24.637 -0.0566 -0.0170 -0.1130
45018W        W53818  17.293   3.671  20.500 -0.0344  0.0928  0.0858
45019W        W53819   9.923   3.845  16.968  0.1716 -0.1456  0.0394
45020W        W53820  10.634   4.487  18.365 -0.1162  0.0873 -0.0556
45021W        W53821  13.943   1.564   0.096  0.1108 -0.0147 -0.2955
45022W        W53822  29.851   2.378  24.543 -0.1599 -0.4038 -0.1591
45023W        W53823   8.971   5.544  17.795 -0.0575 -0.0044  0.2147
45024W        W53824   4.773   7.746   9.774  0.0296 -0.0794 -0.2259
45025W        W53825  12.456   5.739  22.849  0.2083 -0.5295  0.3025
45026W        W53826   1.363   5.523  20.272 -0.0553  0.1394 -0.1037
45027W        W53827   9.524   6.738  17.379 -0.2330 -0.1535  0.2531
45028W        W53828  26.981   4.498  21.916 -0.0984 -0.1286  0.0304
45029W        W53829  20.870   0.101  24.132  0.1679  0.2464 -0.3397
45030W        W53830  18.030   0.444  22.349  0.0213 -0.0529  0.2143
45031W        W53831  13.190   0.181  24.501 -0.1103 -0.1464 -0.3761
45032W        W53832  18.022   0.693  23.200 -0.0280 -0.3357 -0.1468
45033W        W53833   0.114   0.191   9.350 -0.0612  0.0351 -0.1189
45034W        W53834   4.292   4.870  16.783 -0.0780  0.0077 -0.2277
45035W        W53835  28.009   5.681  10.260  0.3319 -0.1498  0.0158
45036W        W53836  19.254   2.223   7.253 -0.0548 -0.0307  0.0378
45037W        W53837   4.358   5.425  24.546  0.0262 -0.3531  0.0255
45038W        W53838  18.478   7.153  14.578  0.4334  0.0819 -0.2328
45039W        W53839  16.124   4.910   9.483  0.3227  0.2456  0.1322
45040W        W53840  24.645   4.345   9.270 -0.1558 -0.0478  0.2416
45041W        W53841  26.736   6.797   2.374 -0.2812 -0.2030  0.1238
45042W        W53842   3.887   7.096   0.038 -0.1501 -0.2222  0.2214
45043W        W53843  14.738   1.905  20.964  0.2081  0.0410 -0.1274
45044W        W53844  12.798   4.387   1.353  0.1279 -0.0851  0.2144
45045W        W53845  21.936   6.052   0.015  0.0678 -0.0827 -0.2310
45046W        W53846   7.192   7.499  18.542  0.1500 -0.0616 -0.0640
45047W        W53847  15.366   5.346  18.931  0.2558 -0.0360  0.0009
45048W        W53848  17.262   2.130   3.879  0.1117  0.1131  0.1390
45049W        W53849  24.225   4.088  23.676  0.1836 -0.0181 -0.1683
45050W        W53850  31.152   2.825   7.822 -0.0210  0.0527  0.1479
45051W        W53851  25.438   4.981   0.149 -0.0118  0.3594 -0.3206
45052W        W53852  27.649   4.548   9.480 -0.2970  0.1412 -0.0003
45053W        W53853   6.570   2.993  23.803  0.0984  0.4168  0.0986
45054W        W53854  14.251   3.607   7.791 -0.3411 -0.0943 -0.1196
45055W        W53855  26.107   7.172   5.987 -0.2525  0.0419 -0.4790
45056W        W53856  14.656   6.655  20.925  0.2526  0.0021  0.1425
45057W        W53857  30.796   4.210  21.994  0.0219  0.1302 -0.3424
45058W        W53858  18.085   3.751  25.184  0.1261 -0.1251  0.2063
45059W        W53859   9.658   2.994  17.186  0.3236 -0.2844  0.1177
45060W        W53860   0.544   6.325  21.909 -0.4533 -0.0012 -0.0547
45061W        W53861  25.393   0.691   0.132  0.2025  0.1479 -0.0656
45062W        W53862   8.599   2.503   8.136 -0.1875 -0.0530 -0.1139
45063W        W53863  29.973   3.152   6.703  0.0173  0.0477 -0.1173
45064W        W53864  29.410   3.316   6.673 -0.0983 -0.1331 -0.4114
45065W        W53865   2.309   2.629  23.288 -0.0671 -0.0204 -0.2175
45066W        W53866  15.059   7.289   4.104 -0.2041 -0.1156  0.2400
45067W        W53867   3.013   6.450  21.732 -0.4234  0.0505 -0.0496
45068W        W53868  13.787   3.896   4.788  0.3637 -0.1772  0.0792
45069W        W53869  28.078   7.086   1.378  0.1496 -0.1668  0.1436
45070W        W53870   6.063   6.897  20.398  0.1657 -0.1266  0.1141
45071W        W53871  19.599   2.308   5.974 -0.0732  0.0572  0.0758
45072W        W53872  17.182   4.385  23.367  0.1413 -0.0458 -0.0882
45073W        W53873  12.512   5.698   3.490 -0.1721  0.2394  0.1404
45074W        W53874  23.108   1.193  25.723  0.1261  0.2142 -0.2233
45075W        W53875   6.800   2.983  17.282 -0.2160  0.5017  0.0604
45076W        W53876  13.670   6.160  15.869 -0.1477 -0.4034 -0.0459
45077W        W53877  28.411   1.626   3.348 -0.0131  0.3002 -0.1963
45078W        W53878  18.303   0.023   3.716  0.0276 -0.0155 -0.2363
45079W        W53879  18.720   4.485   7.797 -0.1836  0.2584 -0.3812
45080W        W53880  27.617   1.896  24.822  0.1292  0.1447  0.0842
45081W        W53881   7.601   3.513   3.560 -0.1158  0.0503 -0.2148
45082W        W53882  26.445   3.247  23.021  0.3811  0.0252  0.2616
45083W        W53883  26.556   5.510  24.223 -0.0437  0.0399 -0.1796
45084W        W53884  26.339   0.746  24.532 -0.2687  0.0148 -0.1779
45085W        W53885  27.787   1.850   4.400 -0.0820 -0.0319 -0.2291
45086W        W53886  28.205   2.656   0.148  0.0033 -0.0650  0.1253
45087W        W53887  10.128   1.604  18.361  0.2922 -0.2529 -0.2173
45088W        W53888   5.340   2.510   6.412 -0.1022 -0.0975  0.0600
45089W        W53889  29.835   6.435   7.775  0.2594 -0.0116 -0.0082
45090W        W53890  19.184   0.914  15.577 -0.0199  0.0450  0.0648
45091W        W53891  11.647   2.483  21.010 -0.1377  0.1987 -0.0592
45092W        W53892  10.585   4.103  23.007 -0.1540  0.0456  0.0063
45093W        W53893   0.446   5.654  17.835  0.1391  0.3111  0.1140
45094W        W53894   5.412   6.415  23.590 -0.0344  0.0405 -0.0146
45095W        W53895  23.801   1.201   5.279  0.1470  0.0295  0.2152
45096W        W53896  11.003   6.781   4.432  0.2013 -0.2684  0.0734
45097W        W53897  19.403   3.208  22.719 -0.1590 -0.1277 -0.2176
45098W        W53898  23.459   0.563   8.866 -0.0757 -0.1415 -0.0328
45099W        W53899  22.626   6.845  24.934  0.2812 -0.3264 -0.0322
45100W        W53900  10.426   4.438   0.512 -0.0858  0.3103  0.2390
45101W        W53901  11.994   5.456  21.690 -0.2993 -0.1798  0.0573
45102W        W53902  28.941   1.792  16.174  0.3504 -0.0225 -0.1636
45103W        W53903   3.272   7.237  17.964 -0.1763  0.1455  0.2910
45104W        W53904   4.884   7.378  15.814  0.0147  0.2244 -0.2917
45105W        W53905  23.741   2.426  25.527 -0.0648  0.0819 -0.3263
45106W        W53906  21.897   5.561   9.600 -0.0079  0.1095 -0.1773
45107W        W53907   7.777   7.365  17.598  0.0442 -0.0768 -0.0892
45108W        W53908  12.853   4.865  23.727  0.0877  0.1197  0.0826
45109W        W53909   8.029   0.660  24.603  0.1926  0.0424  0.1059
45110W        W53910  26.924   0.613   8.090  0.1947  0.1919  0.0556
45111W        W53911   2.976   1.902  15.748 -0.1171 -0.0842  0.1885
45112W        W53912  20.235   0.970  20.010  0.0814  0.1844  0.0769
45113W        W53913  12.167   3.933   0.756  0.3287 -0.0934  0.0790
45114W        W53914  28.337   3.637   7.510  0.0755  0.2924 -0.1991
45115W        W53915  23.918   7.550   2.620  0.0807 -0.0931  0.0146
45116W        W53916  29.747   7.320   8.752 -0.1023 -0.1279  0.1975
45117W        W53917  21.687   6.331  10.916 -0.2590 -0.0343  0.2397
45118W        W53918   3.686   7.349  25.230 -0.3506  0.5781 -0.0642
45119W        W53919  18.594   7.679   2.580  0.0642  0.1146 -0.3747
45120W        W53920   6.199   1.108  19.361  0.2248 -0.1439  0.2386
45121W        W53921  14.952   3.268  24.944  0.4458  0.0735 -0.0114
45122W        W53922  13.746   3.311   7.884  0.2258 -0.1535  0.1098
45123W        W53923  12.397   4.364   9.381  0.1483  0.1172 -0.2352
45124W        W53924  10.812   7.356   2.886 -0.1273  0.2684  0.2817
45125W        W53925   6.960   4.658   2.272 -0.1486 -0.1059 -0.2027
45126W        W53926  15.166   1.231  25.692 -0.0066 -0.0845  0.1175
45127W        W53927  23.549   1.789  15.414  0.2298 -0.4741 -0.1240
45128W        W53928  27.848   2.845   5.291  0.0446  0.3234  0.2297
45129W        W53929  13.867   2.303  10.275  0.0487  0.0698  0.1260
45130W        W53930  24.185   1.270  10.561  0.0820  0.0178 -0.1916
45131W        W53931  27.897   2.170  22.996  0.0862  0.1921 -0.0299
45132W        W53932  23.214   3.787   4.933  0.0038  0.2439  0.3758
45133W        W53933   6.413   6.351  10.746 -0.1441  0.1571 -0.1794
45134W        W53934  20.552   5.124   4.826  0.1239 -0.1710 -0.0289
45135W        W53935  22.880   7.387  23.249 -0.1808  0.1563 -0.0613
45136W        W53936  11.624   2.027   3.042  0.1910  0.1371  0.0068
45137W        W53937  16.030   2.785  15.856 -0.2173 -0.0999  0.2989
45138W        W53938  15.967   7.710   1.367 -0.0352  0.3364 -0.0607
45139W        W53939  25.324   5.280  23.455 -0.3570  0.0704  0.2423
45140W        W53940  29.808   0.695   8.482  0.0270 -0.1086  0.4718
45141W        W53941  19.153   3.424  22.173 -0.4549  0.1021 -0.2722
45142W        W53942  24.789   1.983   8.686 -0.1143 -0.2118  0.0473
45143W        W53943   9.293   5.894   7.461 -0.0244  0.3112 -0.0076
45144W        W53944  27.078   0.247  23.653  0.3949 -0.0556  0.1703
45145W        W53945   2.083   5.021   7.766 -0.2182  0.2717  0.1733
45146W        W53946  20.114   3.269   5.459  0.0500 -0.2900  0.0782
45147W        W53947  20.364   4.493   7.137  0.0684 -0.0584 -0.2686
45148W        W53948   0.975   7.218  21.251 -0.3106 -0.0791 -0.3871
45149W        W53949   7.835   5.814  10.560  0.1224 -0.1427  0.0270
45150W        W53950  18.177   2.603   2.017  0.2723 -0.1838 -0.0978
45151W        W53951  15.744   1.368  25.707 -0.2299 -0.1671 -0.1131
45152W        W53952   5.758   0.757  20.096  0.0653  0.0559  0.0478
45153W        W53953   8.242   3.117   5.083 -0.1709 -0.0308 -0.3060
45154W        W53954  25.423   3.406   5.389 -0.0063 -0.0058  0.1693
45155W        W53955   9.889   7.568  21.022 -0.1839 -0.1238  0.1052
45156W        W53956  26.476   0.389  16.087  0.0769  0.0635  0.0232
45157W        W53957  10.901   6.379   8.462  0.3047  0.1986 -0.1662
45158W        W53958   5.133   2.187  22.591 -0.0329  0.0438  0.0089
45159W        W53959  10.237   3.659  16.648 -0.1358  0.3214 -0.0225
45160W        W53960   0.962   6.724  22.733 -0.3430  0.2504 -0.0824
45161W        W53961   1.239   2.124   6.752 -0.1147  0.2379 -0.1940
45162W        W53962  26.670   5.176   7.392  0.3476  0.1797  0.0031
45163W        W53963  17.222   7.411  10.420 -0.1318  0.1202 -0.0685
45164W        W53964   8.826   7.088  26.144  0.0488 -0.1719 -0.0408
45165W        W53965  28.909   4.141   6.770  0.0232  0.3132  0.0215
45166W        W53966  20.003   6.610  21.077 -0.0517  0.1898 -0.4234
45167W        W53967   4.532   1.836  17.142 -0.0590 -0.0806  0.0877
45168W        W53968  20.167   5.849   4.566 -0.3050  0.2755 -0.2211
45169W        W53969  18.138   3.043  24.729  0.0833  0.0289 -0.0228
45170W        W53970  10.758   5.585   9.966  0.1102  0.1229 -0.3811
45171W        W53971  30.169   1.442  23.863  0.0245  0.0798 -0.0396
45172W        W53972  24.057   4.365   3.948 -0.3293 -0.3960 -0.0107
45173W        W53973  28.448   0.703  22.354  0.0315 -0.0276  0.2523
45174W        W53974   1.429   0.884  11.195  0.3276  0.1223  0.1596
45175W        W53975  11.010   7.604  24.705  0.0794 -0.4065 -0.0573
45176W        W53976  13.948   1.686   7.334  0.2679 -0.1056 -0.0539
45177W        W53977   2.645   0.323   3.444  0.1480  0.0513 -0.0537
45178W        W53978  18.260   6.238  15.293  0.1149  0.2837 -0.2377
45179W        W53979  25.435   7.402  22.386  0.0712  0.1896  0.0532
45180W        W53980   5.914   4.375  19.031 -0.1037 -0.1410 -0.2445
45181W        W53981   6.790   6.106   9.854 -0.0640  0.0003 -0.0308
45182W        W53982  14.160   2.597  25.056 -0.2142  0.0878 -0.1943
45183W        W53983  10.426   6.096   9.867 -0.1195 -0.0750 -0.0627
45184W        W53984  26.294   6.462   5.010 -0.1134 -0.0448  0.1550
45185W        W53985  26.529   5.028   4.771 -0.2671  0.1404 -0.3870
45186W        W53986  22.631   0.482  10.155 -0.1493  0.0112  0.0293
45187W        W53987   1.345   4.354   3.660 -0.0811  0.1269 -0.1523
45188W        W53988  10.400   0.654  22.567 -0.0504  0.0516  0.0743
45189W        W53989  12.877   2.716  23.599  0.0594  0.0220  0.1182
45190W        W53990  24.368   7.579   0.983  0.1985 -0.0693  0.4168
45191W        W53991   3.154   6.552   6.289  0.0257 -0.1094 -0.0881
45192W        W53992   0.345   2.279   6.819  0.2018 -0.0317 -0.5708
45193W        W53993   0.547   6.464  16.480  0.1205  0.0831 -0.2420
45194W        W53994   1.614   4.816  17.980 -0.1259 -0.1659 -0.0205
45195W        W53995  25.195   1.299   9.843 -0.0723  0.1418 -0.1541
45196W        W53996  28.325   1.564  22.362 -0.3096 -0.0218  0.0583
45197W        W53997   6.623   4.791  21.934  0.1882 -0.3627  0.0226
45198W        W53998  28.094   1.644  17.798 -0.0861  0.3578  0.2137
45199W        W53999  21.233   6.061   9.619 -0.2674  0.6002 -0.1680
45200W        W54000   0.608   3.128  10.681  0.0549 -0.0579 -0.3457
45201W        W54001   0.816   6.163   0.660 -0.2424  0.1516  0.1286
45202W        W54002   8.802   0.949  21.438 -0.0086 -0.2406  0.2102
45203W        W54003   3.080   1.754   4.026  0.2456  0.0359  0.1705
45204W        W54004  27.670   3.250   7.221  0.0935  0.1593 -0.1768
45205W        W54005  13.780   2.978  21.560 -0.0265  0.1639 -0.2588
45206W        W54006  26.697   4.630  17.647 -0.0024 -0.0786 -0.0821
45207W        W54007  23.629   1.626  22.462 -0.0793 -0.2411 -0.3028
45208W        W54008  25.069   3.514  20.709  0.2130 -0.0495 -0.0460
45209W        W54009   7.998   5.651  20.465  0.1686 -0.0173  0.4210
45210W        W54010  18.941   7.324  21.829  0.0419  0.1700  0.2975
45211W        W54011   6.033   4.377  22.732 -0.0810 -0.0757  0.1570
45212W        W54012   9.289   0.528  22.739  0.0484 -0.2507 -0.1796
45213W        W54013  15.515   7.279   3.440 -0.0867  0.2138 -0.0497
45214W        W54014  18.307   4.801   8.567  0.2778 -0.2291 -0.1428
45215W        W54015  10.484   3.329   1.325  0.1172 -0.1045  0.1805
45216W        W54016  30.294   5.918  18.718 -0.0427  0.1243  0.2054
45217W        W54017   3.404   4.149  21.102 -0.0160 -0.0522  0.1098
45218W        W54018   8.696   7.782   4.303  0.1178  0.3275  0.1095
45219W        W54019  27.249   0.186  21.599 -0.0939 -0.0400 -0.0767
45220W        W54020   4.836   2.035  21.445  0.1109  0.1595 -0.1626
45221W        W54021   3.812   6.384  10.477 -0.0332 -0.0252 -0.3183
45222W        W54022  15.110   5.962  21.246  0.1221 -0.1445  0.2806
45223W        W54023  12.717   4.878  21.961  0.0433 -0.1930 -0.0836
45224W        W54024  24.014   4.778  16.312 -0.0794 -0.0593  0.1281
45225W        W54025   8.503   7.271  16.272  0.1422 -0.0645  0.2919
45226W        W54026  24.032   0.931   1.845 -0.0657 -0.2026  0.1390
45227W        W54027  25.861   0.793  10.780  0.0745 -0.1433 -0.0335
45228W        W54028  27.707   2.701  20.486 -0.1754 -0.1517 -0.0373
45229W        W54029   8.069   5.446   2.091 -0.0130  0.1707 -0.1939
45230W        W54030  29.078   1.848  10.286  0.2214 -0.1620 -0.0567
45231W        W54031  26.850   1.284  15.419  0.2105 -0.1045 -0.0584
45232W        W54032   1.161   5.342  11.323  0.1753  0.1525  0.0846
45233W        W54033   8.324   4.611   6.718 -0.2531 -0.2100 -0.3232
45234W        W54034  23.813   0.981  22.862 -0.0349  0.0995  0.2054
45235W        W54035  27.589   1.827   7.479 -0.2786 -0.1699  0.1129
45236W        W54036  12.187   2.215  21.718 -0.0459 -0.2457 -0.4282
45237W        W54037   8.803   4.258  17.434  0.3193  0.3798  0.0210
45238W        W54038   3.452   1.321  22.836  0.0339 -0.0424 -0.0482
45239W        W54039   4.519   7.746  22.983  0.3670  0.0029 -0.0232
45240W        W54040   0.964   6.222   6.796 -0.0490  0.1132 -0.2391
45241W        W54041  22.868   0.582   1.681 -0.0122 -0.3209 -0.0435
45242W        W54042  24.332   3.914  16.367 -0.1214  0.0486 -0.0444
45243W        W54043  27.788   2.863  21.063  0.0056 -0.0011  0.0842
45244W        W54044   7.221   2.444  21.689 -0.3078  0.2563 -0.0527
45245W        W54045   8.864   6.667  20.710  0.0539  0.2041 -0.0085
45246W        W54046  22.945   4.641  18.259  0.3404  0.1921 -0.0617
45247W        W54047  19.055   4.199   2.144  0.1950 -0.1768 -0.1382
45248W        W54048  24.195   0.696   1.423 -0.0478  0.0204 -0.1440
45249W        W54049   2.016   0.580   5.284 -0.1376  0.0278  0.0174
45250W        W54050  18.416   4.322   8.337  0.0778  0.1585 -0.1788
45251W        W54051   5.745   2.687  10.701  0.0485  0.0204 -0.3280
45252W        W54052  18.533   7.750  18.036 -0.2261 -0.2105  0.3397
45253W        W54053  11.741   6.767  20.759  0.0625  0.1019 -0.0264
45254W        W54054  27.768   5.391   6.804 -0.1434  0.1165  0.0297
45255W        W54055  16.190   5.167  18.867 -0.2045  0.0247 -0.2795
45256W        W54056  28.080   0.590   6.713  0.0015 -0.4116  0.1443
45257W        W54057  17.303   1.164  23.763  0.1577 -0.2937  0.0023
45258W        W54058  18.683   3.365  15.898 -0.1273  0.0760  0.2866
45259W        W54059  30.539   1.197   0.842  0.0805 -0.0076 -0.0017
45260W        W54060  30.004   6.806   8.628  0.1200  0.0597 -0.1750
45261W        W54061  26.596   6.943  25.815  0.1368  0.1373 -0.0234
45262W        W54062  17.391   4.139   2.914  0.1187  0.0177  0.0137
45263W        W54063  25.175   3.921   8.391 -0.0819 -0.2386 -0.0537
45264W        W54064  26.545   6.945  21.283  0.1216  0.1237  0.0600
45265W        W54065  24.698   4.627   6.243 -0.1650 -0.0836  0.1629
45266W        W54066  17.449   1.018   3.990 -0.1362 -0.0817 -0.1771
45267W        W54067  27.135   4.896   7.394 -0.0720  0.0397 -0.3800
45268W        W54068  19.747   0.460  20.648 -0.1064 -0.1944  0.0117
45269W        W54069  31.180   3.744  17.115 -0.3526 -0.1019  0.0083
45270W        W54070   1.513   7.659  25.139  0.2422  0.0364 -0.0770
45271W        W54071  10.645   6.019  24.647 -0.1314 -0.2037  0.3549
45272W        W54072  14.637   5.089  21.792 -0.0452 -0.0310 -0.3775
45273W        W54073  10.362   7.050   3.725  0.0306  0.0641 -0.0048
45274W        W54074  29.057   7.814   9.707  0.1046  0.4669  0.0912
45275W        W54075  11.194   1.358  15.310 -0.1947 -0.1207  0.1480
45276W        W54076  23.298   1.910  20.263 -0.0626  0.2633 -0.2703
45277W        W54077   8.225   2.665   4.900 -0.0193 -0.0973  0.1246
45278W        W54078  13.590   0.258  22.361 -0.1843 -0.0672  0.1054
45279W        W54079  12.440   0.431  18.548 -0.4190  0.0506  0.1551
45280W        W54080   5.186   5.523   1.840 -0.0444  0.0271 -0.0709
45281W        W54081   8.026   2.718   1.330  0.3182 -0.1622  0.0232
45282W        W54082  27.722   6.751   1.512  0.1232  0.0098  0.1024
45283W        W54083   7.207   1.271  16.310  0.2634 -0.2825  0.1039
45284W        W54084  10.149   7.425   4.665  0.0686 -0.1565 -0.2323
45285W        W54085   1.207   5.871  18.885 -0.1443 -0.1365  0.0592
45286W        W54086  14.149   4.270   1.787 -0.0798 -0.0396  0.0360
45287W        W54087   7.131   0.831   3.977  0.0620 -0.2205  0.1110
45288W        W54088  25.878   4.571  23.337  0.1684  0.2690  0.0662
45289W        W54089  13.900   3.939   6.431 -0.0216 -0.0684 -0.0297
45290W        W54090  21.017   6.646  21.805  0.3746 -0.1097 -0.0750
45291W        W54091   0.561   7.535  23.216  0.0972 -0.1757 -0.1818
45292W        W54092  16.467   6.974   8.888 -0.0346  0.0579  0.2988
45293W        W54093  19.368   2.481  25.808  0.1424  0.3689 -0.2328
45294W        W54094  20.153   1.061   4.139 -0.2306 -0.1096 -0.2785
45295W        W54095  24.182   4.265   9.528 -0.4793  0.0272  0.0112
45296W        W54096   1.914   1.186  25.597 -0.1028 -0.1905 -0.1902
45297W        W54097  10.736   3.431   1.720 -0.0997 -0.0273  0.0513
45298W        W54098  30.271   2.072  19.737 -0.0945 -0.1329 -0.0084
45299W        W54099  12.877   7.383   2.479 -0.1694 -0.2093  0.2254
45300W        W54100  20.453   5.372  22.590 -0.0693 -0.1437 -0.2154
45301W        W54101   3.516   0.026   2.452 -0.2853  0.1171 -0.3694
45302W        W54102   4.287   3.585   6.303  0.1640  0.1868  0.4430
45303W        W54103   4.790   5.629   0.153 -0.0614 -0.1433  0.0280
45304W        W54104   1.100   5.714  16.941 -0.1426 -0.1013 -0.1511
45305W        W54105  12.541   5.229  17.630  0.3227 -0.2265  0.2524
45306W        W54106   6.422   6.162   5.564  0.2052 -0.0051  0.0263
45307W        W54107  10.185   0.334  18.842 -0.2392 -0.0576 -0.2697
45308W        W54108  25.898   4.032  23.176 -0.0110 -0.0230  0.0376
45309W        W54109  30.394   1.500   6.271  0.1618  0.1039  0.2059
45310W        W54110  26.193   1.799   1.596  0.1970  0.1626  0.0522
45311W        W54111  20.987   5.346   9.443 -0.2719  0.0918 -0.0153
45312W        W54112   1.006   2.880   5.515 -0.0987 -0.1915 -0.0905
45313W        W54113  27.058   2.811  25.675 -0.0954 -0.2441 -0.1698
45314W        W54114   0.226   1.343   1.215  0.3935 -0.2239  0.4181
45315W        W54115  29.179   2.533   8.353 -0.0325 -0.0207  0.0936
45316W        W54116  22.695   0.251  17.407  0.0231  0.0278  0.0304
45317W        W54117   4.279   2.403   0.911  0.0510 -0.0930 -0.0467
45318W        W54118  24.302   3.476  21.165 -0.1134  0.1763  0.1164
45319W        W54119  29.661   1.669   8.764 -0.0580 -0.2271  0.1438
45320W        W54120  16.835   1.690  23.236 -0.1041  0.2586 -0.1972
45321W        W54121  20.182   4.378  16.940  0.2431  0.0928  0.0553
45322W        W54122  20.034   4.779   0.381  0.0586 -0.0515  0.0745
45323W        W54123   4.022   6.485   0.313 -0.2703  0.1088 -0.1261
45324W        W54124   7.759   4.252  20.973  0.0922 -0.0363 -0.2687
45325W        W54125  10.421   6.665  23.868  0.2257 -0.1624  0.0595
45326W        W54126  21.955   4.878  20.960 -0.0448  0.0048 -0.0213
45327W        W54127   8.187   3.419  17.766 -0.1424 -0.0302  0.0256
45328W        W54128  30.880   7.315  24.334 -0.1104 -0.1631 -0.2817
45329W        W54129   4.567   7.516   4.909  0.0193  0.2430 -0.0161
45330W        W54130  14.674   4.583   7.971  0.1525 -0.0612 -0.1363
45331W        W54131  19.297   1.470  10.057 -0.3025  0.3382  0.0763
45332W        W54132  18.733   3.663   8.307  0.0146 -0.0037 -0.2075
45333W        W54133  23.216   1.093  11.313 -0.0869 -0.2730  0.0152
45334W        W54134  18.047   6.203  25.727 -0.3081 -0.0488  0.3487
45335W        W54135   5.187   7.506  22.253 -0.1993  0.4009  0.3582
45336W        W54136  30.158   0.814  17.896 -0.1872  0.0686  0.1333
45337W        W54137  30.066   7.637   0.084  0.1009 -0.0508  0.0852
45338W        W54138   7.452   3.903   1.075 -0.2634  0.1082  0.2890
45339W        W54139  17.335   7.566  15.842 -0.2671 -0.1515 -0.0433
45340W        W54140  27.201   1.860  15.917  0.2749 -0.2238 -0.0506
45341W        W54141   2.044   5.093   6.691  0.1743 -0.1095  0.1626
45342W        W54142  19.385   2.969  23.534 -0.0262 -0.0975 -0.0074
45343W        W54143   4.044   5.875  19.307 -0.0330  0.0690  0.0113
45344W        W54144  25.433   1.158  17.123  0.1720  0.1333 -0.1442
45345W        W54145   3.299   2.841  20.135  0.0826  0.0050 -0.0788
45346W        W54146  28.958   6.378  16.737  0.5248  0.1293 -0.0986
45347W        W54147  19.116   5.290  19.894  0.1604  0.3287 -0.0219
45348W        W54148   2.022   2.072  17.294  0.2457  0.0375 -0.0093
45349W        W54149  25.539   3.592  18.477 -0.1406 -0.1081  0.0187
45350W        W54150   9.069   2.498  11.010  0.1897 -0.0978  0.1505
45351W        W54151  27.533   4.568   8.207  0.0325 -0.1157 -0.0828
45352W        W54152   9.210   5.616  14.255 -0.2363 -0.0327 -0.2873
45353W        W54153   5.499   0.087   4.134 -0.1686 -0.0556 -0.2255
45354W        W54154  19.320   7.469  15.825 -0.2034  0.0664 -0.0040
45355W        W54155   2.489   1.831  10.654  0.0619 -0.0507  0.0735
45356W        W54156   3.667   7.255   7.447 -0.0205 -0.1712  0.0612
45357W        W54157  21.065   6.980   3.577 -0.1853 -0.3689 -0.4523
45358W        W54158  24.836   0.589  22.315  0.3077  0.0467 -0.1520
45359W        W54159   0.623   3.547   7.636 -0.1418 -0.3292 -0.0579
45360W        W54160  28.301   1.087   9.207  0.0550  0.0066  0.0857
45361W        W54161  20.582   1.783   1.596  0.0681  0.1291 -0.0836
45362W        W54162  10.416   7.405  25.443  0.3385 -0.3665 -0.0243
45363W        W54163   8.418   2.018  15.053 -0.0211 -0.1547  0.1827
45364W        W54164  13.575   0.108  10.709  0.1030 -0.1751 -0.1307
45365W        W54165   7.219   3.298  20.292 -0.0209 -0.0715  0.1059
45366W        W54166   9.046   2.344  25.037  0.1536  0.0533 -0.0106
45367W        W54167   5.569   5.337  25.198  0.3870  0.1436  0.0053
45368W        W54168  11.731   7.228   6.417 -0.2782  0.0379 -0.0337
45369W        W54169  22.173   2.764   8.954  0.1925 -0.0753 -0.0538
45370W        W54170   4.282   7.499   9.116 -0.4116 -0.2990  0.2120
45371W        W54171  16.831   5.322  16.972 -0.1035  0.0280  0.2675
45372W        W54172   8.095   2.640  23.225 -0.0355  0.2109  0.0692
45373W        W54173   3.814   3.829  16.823 -0.0399  0.0178 -0.0322
45374W        W54174  26.614   1.347   3.420  0.1013 -0.1228  0.0578
45375W        W54175   3.324   3.717  16.746 -0.3470  0.1134  0.0518
45376W        W54176  18.747   4.127  17.048  0.1670  0.0546  0.2859
45377W        W54177   5.829   1.491   9.339 -0.1464  0.0283  0.0210
45378W        W54178  20.891   3.119   1.761 -0.1200  0.0394 -0.0856
45379W        W54179  25.747   1.568  10.874 -0.4275  0.1021 -0.0890
45380W        W54180   1.179   1.084   0.315  0.1563  0.1542 -0.0060
45381W        W54181   3.251   0.234   7.499 -0.3314 -0.1474  0.1044
45382W        W54182  30.009   5.404  15.964 -0.1072 -0.0511 -0.2132
45383W        W54183  13.669   0.784   2.836  0.0175  0.3406 -0.2628
45384W        W54184  13.657   7.427  24.862 -0.0442 -0.0477  0.0856
45385W        W54185  11.125   7.803   0.891 -0.0195  0.1668  0.0359
45386W        W54186   1.542   4.494  17.571 -0.0510  0.2925  0.1971
45387W        W54187  10.906   3.144  18.164  0.2296 -0.0065 -0.0037
45388W        W54188  23.007   5.417   5.578  0.2043  0.0247  0.3373
45389W        W54189   8.997   1.816  22.337 -0.2006  0.2626 -0.0016
45390W        W54190  18.151   6.581  17.680 -0.0202  0.1490  0.0285
45391W        W54191   9.317   2.199  21.382 -0.0516  0.1415  0.2091
45392W        W54192   5.984   1.045  22.424 -0.1447 -0.0617  0.0131
45393W        W54193   5.298   1.534  21.038  0.2902 -0.1883 -0.3195
45394W        W54194  17.140   7.817  22.505 -0.1643 -0.2956 -0.1096
45395W        W54195  19.812   1.252  18.338  0.1856  0.0676 -0.0616
45396W        W54196  23.344   5.976  18.891  0.0379 -0.1287  0.0341
45397W        W54197  18.856   6.060  16.003  0.1297 -0.0884  0.0424
45398W        W54198   4.552   5.423  10.659  0.1234  0.2937 -0.0968
45399W        W54199  28.978   3.825  20.233 -0.2628 -0.0817  0.4008
45400W        W54200  24.244   3.892   0.011  0.1297  0.2989 -0.2912
45401W        W54201  11.449   4.297  25.238 -0.2412  0.1052 -0.0240
45402W        W54202  25.787   4.551  24.686  0.0731 -0.0566 -0.1361
45403W        W54203  30.318   5.868  10.934 -0.0908 -0.3007  0.0442
45404W        W54204  13.900   5.889  24.967  0.2478 -0.0378 -0.1615
45405W        W54205  23.133   3.493   3.595  0.1569  0.2152  0.0301
45406W        W54206  18.526   4.441   3.626 -0.0308  0.0223  0.1600
45407W        W54207  24.309   6.265  18.653  0.1166 -0.0608 -0.0770
45408W        W54208  15.343   7.614  16.399  0.0094 -0.2079 -0.1646
45409W        W54209   2.931   4.067  25.136 -0.0015 -0.1676  0.1425
45410W        W54210   5.076   7.117   2.263 -0.0310 -0.5308 -0.2104
45411W        W54211  27.128   6.737   8.824  0.0986  0.0653  0.1090
45412W        W54212   7.019   6.208  15.281 -0.0329  0.0362  0.1818
45413W        W54213   0.973   6.325   9.216  0.1670  0.0100  0.1053
45414W        W54214  14.668   2.918   3.061  0.1466  0.2142  0.1824
45415W        W54215  27.147   0.010  20.911 -0.4576 -0.1239  0.2480
45416W        W54216  12.909   3.090  19.986  0.2956  0.1612  0.0131
45417W        W54217  12.603   3.058  25.590 -0.2860 -0.0442  0.1294
45418W        W54218  19.295   6.189  15.790  0.1415  0.2377  0.1673
45419W        W54219  16.938   2.096   0.243  0.3960  0.0651 -0.3217
45420W        W54220   0.581   6.802  19.448  0.1238  0.5107  0.2403
45421W        W54221  11.445   3.110   6.010  0.1811  0.1253  0.0830
45422W        W54222  19.387   2.922   7.804 -0.0211  0.0260 -0.1135
45423W        W54223  10.755   4.537  24.824  0.3118  0.1106 -0.0431
45424W        W54224  12.083   6.967  15.613 -0.2158  0.1984  0.1092
45425W        W54225  14.235   1.300  22.951 -0.1270 -0.1316  0.0880
45426W        W54226  21.315   0.169  15.045 -0.0363  0.4023  0.0466
45427W        W54227  13.600   1.045   2.360 -0.1109 -0.1905  0.0800
45428W        W54228  18.971   3.943   0.652 -0.2186  0.0101 -0.0243
45429W        W54229  28.517   0.054   9.200 -0.1450  0.1493  0.0443
45430W        W54230  15.341   3.156   0.629  0.1032  0.2348 -0.0398
45431W        W54231  20.036   3.373   2.827 -0.0146  0.0203 -0.0767
45432W        W54232  11.493   4.162  23.553  0.2785  0.0044  0.2158
45433W        W54233  12.594   3.482  19.929  0.0597 -0.0631  0.0319
45434W        W54234  13.296   4.237  16.886 -0.0825  0.1198  0.3297
45435W        W54235  28.382   1.884   5.209  0.0374  0.1396  0.0504
45436W        W54236  30.382   7.468   5.028 -0.1920  0.1807  0.3803
45437W        W54237  20.232   6.671   7.792  0.0902 -0.1386 -0.0127
45438W        W54238   2.547   7.438   9.487  0.2465  0.0946  0.1307
45439W        W54239   8.493   2.015   6.970  0.3123 -0.3749 -0.0806
45440W        W54240   6.415   7.205  10.461 -0.1247 -0.0921  0.0142
45441W        W54241  29.776   4.533  15.837  0.0656  0.1713 -0.2222
45442W        W54242   8.699   5.807   8.906 -0.1396  0.0466 -0.2736
45443W        W54243  27.113   1.283  26.164  0.0427  0.0529 -0.2010
45444W        W54244  31.083   7.629  18.384  0.0731  0.2164  0.2795
45445W        W54245  24.137   2.713   7.639  0.4068 -0.2669  0.1915
45446W        W54246  21.541   2.131   3.068 -0.0907  0.1786 -0.0236
45447W        W54247   9.904   1.642  16.897 -0.3090  0.3085 -0.6255
45448W        W54248  12.409   5.241  15.380  0.0830  0.0305 -0.0550
45449W        W54249   9.484   2.787  11.185 -0.0258 -0.1600 -0.0435
45450W        W54250   3.669   3.707   3.198 -0.0290 -0.1069  0.1415
45451W        W54251  19.510   6.899  20.459  0.0661 -0.0559  0.1504
45452W        W54252  30.545   3.512   6.137  0.1454 -0.2091  0.1090
45453W        W54253  15.301   3.136  19.422 -0.0985  0.5506 -0.1856
45454W        W54254   2.421   0.256   8.887 -0.1580  0.0026 -0.0941
45455W        W54255   8.429   5.098   6.782 -0.1261  0.1020  0.1142
45456W        W54256   0.169   5.860  11.034 -0.1938  0.1463  0.1813
45457W        W54257   1.058   1.853  16.163 -0.1828  0.0485 -0.1619
45458W        W54258   1.668   4.653  10.318  0.2468 -0.0466 -0.0116
45459W        W54259  17.651   1.537  11.082  0.2859 -0.1035  0.0531
45460W        W54260  21.950   1.074   1.601  0.3246  0.1993 -0.0724
45461W        W54261   1.557   6.302  16.540 -0.1559  0.1330  0.1637
45462W        W54262   9.037   2.753  23.129 -0.0596 -0.1629 -0.1011
45463W        W54263   7.247   2.454  22.225  0.3944  0.0739 -0.0116
45464W        W54264  26.550   4.039  26.172 -0.1570 -0.0019  0.0999
45465W        W54265   9.255   4.342  17.245 -0.5121 -0.0241  0.0508
45466W        W54266  23.936   2.961  24.668  0.1301 -0.0751 -0.1115
45467W        W54267  30.767   6.247  23.452  0.0402  0.0048  0.0072
45468W        W54268   3.091   6.699   9.406  0.0210 -0.1305 -0.1685
45469W        W54269   3.062   1.552  19.143  0.0203 -0.1270 -0.0054
45470W        W54270   7.719   6.061  24.426  0.0042 -0.1770  0.1259
45471W        W54271  26.691   3.738   4.598 -0.0903  0.3978  0.1196
45472W        W54272   5.075   1.457   2.690 -0.1535 -0.1069  0.0129
45473W        W54273   5.325   2.729   1.090 -0.0210 -0.0280 -0.0234
45474W        W54274   9.070   5.713   0.073 -0.0400 -0.2546  0.0873
45475W        W54275  29.311   0.815  25.847  0.1131 -0.0777 -0.3712
45476W        W54276  31.009   7.006  25.160 -0.3004 -0.2071  0.2665
45477W        W54277  13.560   5.101  20.942  0.0013 -0.1430  0.1342
45478W        W54278  30.544   3.455  20.852  0.0604 -0.1675 -0.1930
45479W        W54279  12.831   6.630  23.944 -0.4485 -0.0297  0.1907
45480W        W54280  28.793   6.355  10.186  0.3387  0.3315  0.1479
45481W        W54281   1.134   0.296  21.341  0.0239  0.0126 -0.1185
45482W        W54282  31.148   0.624  24.580  0.0598 -0.0611  0.0514
45483W        W54283   5.817   1.161  17.075 -0.0432 -0.0725 -0.1164
45484W        W54284  21.025   5.026   0.737 -0.1006 -0.2419  0.0316
45485W        W54285   8.377   3.689   8.601  0.1549 -0.0339  0.2500
45486W        W54286  23.364   7.606  21.597 -0.0211 -0.0715  0.0041
45487W        W54287   7.136   7.613   2.427  0.0308  0.3263 -0.0418
45488W        W54288  14.199   7.534  25.332 -0.1452  0.1231  0.1110
45489W        W54289   1.853   4.764   3.788  0.0429  0.1697 -0.1252
45490W        W54290   8.256   3.185   6.793  0.0407 -0.2704 -0.0554
45491W        W54291   4.132   0.460   3.726 -0.1800 -0.0191  0.0831
45492W        W54292  30.666   2.478  21.084 -0.0269  0.0355  0.0851
45493W        W54293  20.170   4.232  18.261  0.2261 -0.2250  0.2234
45494W        W54294  20.881   2.474  18.673 -0.3121 -0.2886 -0.0468
45495W        W54295   3.352   7.069   4.583  0.0341 -0.4519 -0.2716
45496W        W54296  22.309   1.149   3.045 -0.2632  0.0120  0.1752
45497W        W54297   4.162   1.235  11.123 -0.0462  0.1042 -0.0134
45498W        W54298   5.454   4.671   4.193 -0.0672  0.0586 -0.2990
45499W        W54299  19.895   1.080   9.312  0.1823 -0.0963  0.0371
45500W        W54300  10.421   1.039  18.579 -0.0377 -0.0727 -0.0116
45501W        W54301   8.933   7.522  18.872 -0.2713 -0.2153 -0.1363
45502W        W54302  21.917   4.084   6.840 -0.1471  0.1155 -0.2915
45503W        W54303  25.748   6.788   9.712 -0.1816 -0.0257 -0.1354
45504W        W54304   2.072   4.837  23.890  0.0883 -0.2178  0.2567
45505W        W54305   0.255   6.071  18.715  0.0646 -0.0289  0.1256
45506W        W54306  26.366   5.995  22.395  0.0578  0.1520  0.1169
45507W        W54307  24.915   4.307   0.666  0.0653  0.3056 -0.3493
45508W        W54308  23.572   0.616   3.478  0.2091  0.3975  0.0318
45509W        W54309  25.712   2.064  22.027 -0.0727  0.2079 -0.0180
45510W        W54310   1.152   5.472  15.491  0.1084  0.0231 -0.2752
45511W        W54311   9.430   1.801   9.826 -0.0755  0.2236  0.0882
45512W        W54312  11.372   2.322   4.317 -0.1688 -0.1034 -0.0961
45513W        W54313  13.123   5.343   6.591  0.0524 -0.2080 -0.1826
45514W        W54314  27.181   2.440   4.521  0.0581  0.1652 -0.4187
45515W        W54315  10.435   6.633  17.736  0.0689 -0.4270  0.0325
45516W        W54316  16.771   7.209   1.584 -0.1455 -0.3140 -0.2024
45517W        W54317  24.016   6.197  23.577  0.1333 -0.0401 -0.2196
45518W        W54318  23.127   6.164   3.515  0.0686 -0.0124 -0.0308
45519W        W54319   4.687   3.276   6.502  0.2933  0.1393 -0.0767
45520W        W54320   1.640   0.661   3.734  0.2699 -0.2097 -0.0925
45521W        W54321  18.050   7.123   4.843 -0.0438  0.2260  0.0893
45522W        W54322   3.007   2.699  20.603  0.0241 -0.1083 -0.1893
45523W        W54323  24.997   7.139  25.660  0.1867  0.2225 -0.2319
45524W        W54324   0.092   4.529  11.687 -0.0750 -0.3336  0.0113
45525W        W54325  13.842   7.295   8.546  0.0249 -0.0916 -0.3467
45526W        W54326   3.022   3.006   6.055 -0.0667 -0.2894  0.1524
45527W        W54327   8.041   7.021  20.406  0.0337 -0.2610  0.0948
45528W        W54328  23.312   4.655   6.822 -0.0412 -0.2654  0.0606
45529W        W54329   6.722   4.041  21.790  0.1538 -0.1182  0.3831
45530W        W54330  31.054   0.251   7.026 -0.1652 -0.1368 -0.2154
45531W        W54331  28.152   1.054   2.571  0.0293 -0.0235  0.2117
45532W        W54332  29.729   1.736   5.042 -0.1034 -0.0743  0.0594
45533W        W54333  21.857   7.302  24.819 -0.0202  0.1951  0.0178
45534W        W54334  13.190   5.885   2.181 -0.0502  0.0579 -0.3752
45535W        W54335  18.784   2.385  17.257 -0.2021 -0.1512  0.0078
45536W        W54336   4.030   6.146   7.267 -0.0199 -0.1525 -0.0729
45537W        W54337  27.176   2.650  23.286 -0.0177  0.1149  0.0840
45538W        W54338   2.936   7.285  20.873  0.2768  0.2039  0.1856
45539W        W54339  15.391   3.960   7.458 -0.1098 -0.0145 -0.0172
45540W        W54340  19.898   7.264  24.866 -0.1452  0.1643 -0.0834
45541W        W54341  28.478   6.806  23.166 -0.1923  0.0884  0.0678
45542W        W54342   9.948   2.430   0.462 -0.0887 -0.1079  0.2460
45543W        W54343   1.121   4.285   6.856  0.3702 -0.0067  0.1788
45544W        W54344  31.117   2.482   0.761  0.2210  0.0576  0.1941
45545W        W54345   2.238   1.674   0.046 -0.0573  0.0997 -0.1615
45546W        W54346  13.393   6.339   8.139  0.2120  0.0989  0.1835
45547W        W54347  22.653   6.158   7.964  0.1709  0.1411  0.1165
45548W        W54348  29.356   5.491   4.605 -0.1154  0.1879 -0.1706
45549W        W54349   2.830   1.342   6.796  0.0479  0.1417 -0.1857
45550W        W54350  20.355   3.839  21.036  0.0502 -0.0677  0.2460
45551W        W54351  28.704   1.406  18.905 -0.1376  0.3646 -0.1613
45552W        W54352  16.007   6.934   0.458 -0.0788  0.0645 -0.0134
45553W        W54353  30.896   0.148   3.665  0.0194 -0.1768 -0.1139
45554W        W54354  13.503   5.364  25.064 -0.0352  0.1349  0.0347
45555W        W54355   8.969   5.830  25.716 -0.0146 -0.1850 -0.2110
45556W        W54356   5.270   2.517  25.321  0.2322  0.1109  0.0164
45557W        W54357   4.806   4.908   2.834 -0.0698 -0.0411  0.1738
45558W        W54358  15.494   6.537   7.814 -0.2628 -0.0272  0.0218
45559W        W54359  10.027   5.892  19.214 -0.0573 -0.2443 -0.1820
45560W        W54360  19.039   0.197  15.747  0.0409 -0.1727  0.0696
45561W        W54361   2.388   1.398   6.263 -0.1928 -0.0399  0.2291
45562W        W54362  11.173   5.653  23.316 -0.3088 -0.1330  0.0215
45563W        W54363   4.757   4.532  10.967  0.1164  0.0789 -0.0379
45564W        W54364   6.724   5.340  17.106 -0.0448  0.1656 -0.0170
45565W        W54365  30.874   4.603  23.119  0.0433 -0.0574  0.1871
45566W        W54366   4.926   5.656  16.128  0.1576  0.0326 -0.2054
45567W        W54367  11.661   0.520  10.677 -0.0015 -0.5072  0.1598
45568W        W54368  19.310   1.631   5.620 -0.1163  0.3231  0.2503
45569W        W54369  11.231   4.462  20.922  0.4441  0.2042  0.1157
45570W        W54370  13.683   0.835   1.489  0.1058 -0.1839  0.0622
45571W        W54371  14.837   6.393  17.515  0.0408 -0.0946 -0.0111
45572W        W54372  17.480   7.173  25.219 -0.0751 -0.0572 -0.3551
45573W        W54373  24.736   0.996   3.757  0.2695 -0.2126 -0.0624
45574W        W54374   3.778   6.176  26.112 -0.0977  0.0290 -0.3181
45575W        W54375  18.179   3.219   8.574 -0.2135  0.1391  0.0840
45576W        W54376  16.274   1.798   4.873  0.0114  0.0245  0.0885
45577W        W54377  31.179   7.448  16.121  0.2154  0.2757 -0.1643
45578W        W54378  27.468   6.895  22.759 -0.0979  0.1596  0.0709
45579W        W54379   5.381   1.347  17.212  0.0711 -0.0736 -0.1764
45580W        W54380  22.551   7.606   1.015  0.2038 -0.0099  0.0643
45581W        W54381  10.788   5.834  21.964  0.1169  0.2505 -0.1084
45582W        W54382  28.947   6.849   7.391 -0.0311 -0.3541  0.0177
45583W        W54383  28.453   1.385   7.268 -0.4842  0.0674  0.2696
45584W        W54384   6.914   0.756  10.258 -0.2900  0.1393 -0.3451
45585W        W54385   9.077   6.128   5.011  0.2285  0.1938  0.0322
45586W        W54386   7.589   6.926   7.805 -0.0481  0.0841  0.0506
45587W        W54387   5.449   2.010  10.284  0.3332  0.2123 -0.2412
45588W        W54388  23.673   1.561  21.426  0.1570  0.0035 -0.2696
45589W        W54389   5.283   4.663  18.329  0.0914 -0.2046 -0.2330
45590W        W54390  26.384   7.278  19.863  0.0508  0.2476 -0.0140
45591W        W54391   1.958   4.686   8.783  0.0402 -0.0823  0.0064
45592W        W54392  26.249   2.559   2.606 -0.0643 -0.0678  0.2361
45593W        W54393   7.898   1.709   2.477 -0.2168 -0.0109 -0.0542
45594W        W54394  30.195   3.707  18.228 -0.0343 -0.0430  0.2566
45595W        W54395  11.718   2.029   8.217 -0.0731  0.0710 -0.0849
45596W        W54396   8.311   4.705   7.615 -0.0403  0.0461 -0.0818
45597W        W54397  25.456   2.386  10.072 -0.0188 -0.0232 -0.1325
45598W        W54398  27.186   3.433  18.028  0.1282 -0.0944  0.3851
45599W        W54399   8.044   3.872  15.948 -0.3874  0.0098  0.0449
45600W        W54400   1.288   2.948   8.211  0.0115  0.1364 -0.1291
45601W        W54401  15.343   4.444   9.011 -0.0994 -0.0414 -0.1066
45602W        W54402  25.056   3.857  23.858  0.1233  0.1247 -0.0149
45603W        W54403   6.337   5.800   2.209  0.0661 -0.0155 -0.1971
45604W        W54404  21.237   5.501  19.058 -0.2547 -0.0247 -0.0880
45605W        W54405   0.295   5.575  15.479 -0.3204 -0.0227 -0.1280
45606W        W54406  18.427   6.020  18.428  0.1039 -0.1578  0.0674
45607W        W54407  10.760   0.619  10.441  0.2946  0.0281 -0.0570
45608W        W54408  26.278   1.621  10.323  0.0402  0.0399 -0.2812
45609W        W54409   9.159   1.028   6.270 -0.0285 -0.1113  0.0645
45610W        W54410   9.532   0.705   7.923 -0.0530  0.0886 -0.2669
45611W        W54411  20.020   1.935   9.614  0.1127 -0.2607  0.3797
45612W        W54412  21.276   3.704   7.284 -0.1873 -0.0798 -0.0338
45613W        W54413   8.139   6.674  19.670 -0.4288  0.1910  0.0735
45614W        W54414  28.864   1.288   5.154  0.1618  0.5343 -0.0560
45615W        W54415  27.966   1.516  24.991 -0.2848 -0.0492 -0.0247
45616W        W54416   8.087   7.580  19.039  0.3381  0.0029 -0.3015
45617W        W54417  30.268   1.635   0.364 -0.1390  0.3010  0.1575
45618W        W54418  17.443   7.311  23.190 -0.2010 -0.0089  0.0516
45619W        W54419  28.098   6.078   4.086 -0.0482 -0.0104 -0.0439
45620W        W54420   6.521   1.514   2.066  0.4112  0.4009  0.0016
45621W        W54421  16.249   3.444   3.261 -0.1051 -0.2417  0.0675
45622W        W54422  23.231   3.423   8.719 -0.0061 -0.1136  0.2612
45623W        W54423  17.664   1.710  21.874  0.0355 -0.0433 -0.0698
45624W        W54424  27.381   4.205  11.198  0.0848  0.0929  0.2350
45625W        W54425   6.270   5.944   0.710 -0.0218 -0.1844 -0.0908
45626W        W54426  28.364   1.650  20.428 -0.0044 -0.2613 -0.0559
45627W        W54427  15.171   4.463  17.438 -0.1477  0.1340 -0.1100
45628W        W54428  27.688   2.355   4.533 -0.0575  0.0279 -0.0036
45629W        W54429  12.392   2.320   6.891  0.2705 -0.2611  0.0603
45630W        W54430  28.530   5.686   5.811  0.0844 -0.1582 -0.0306
45631W        W54431  22.831   0.305  22.628  0.0597  0.2472 -0.0575
45632W        W54432  30.812   1.180   2.524 -0.3044 -0.1993  0.0936
45633W        W54433   6.899   0.373  15.166 -0.0716  0.0633  0.2176
45634W        W54434  28.500   6.648  25.399  0.0655 -0.2389 -0.0238
45635W        W54435  12.610   6.845   7.408 -0.0632 -0.2960 -0.0722
45636W        W54436  19.292   2.603   5.609  0.0750 -0.1342  0.1128
45637W        W54437  26.869   5.751   0.171  0.2699 -0.0194 -0.0425
45638W        W54438  18.015   2.244   4.683  0.0580 -0.1178  0.1847
45639W        W54439   6.529   6.129  21.384  0.0900  0.1378  0.1110
45640W        W54440   9.408   6.914  24.634  0.0276 -0.1413  0.0743
45641W        W54441   4.228   1.190   0.182  0.0541  0.1784  0.2684
45642W        W54442  22.296   3.136   3.426 -0.1771 -0.0814 -0.0331
45643W        W54443  13.589   1.743  21.869 -0.0262 -0.0633  0.3096
45644W        W54444   9.056   0.957   0.121 -0.0763  0.1963  0.1101
45645W        W54445   8.764   1.280   2.923 -0.0025 -0.0314 -0.0469
45646W        W54446  30.881   5.867  20.632 -0.3973 -0.0722  0.4999
45647W        W54447  12.977   7.487  24.569  0.0401 -0.2129 -0.0247
45648W        W54448   0.624   5.572  20.644  0.3133  0.0425  0.0386
45649W        W54449  25.135   2.110   3.477  0.1055 -0.1194 -0.1560
45650W        W54450  12.959   0.771   5.089 -0.1712 -0.3173 -0.1750
45651W        W54451   3.441   1.870  10.977  0.1167 -0.3057 -0.1840
45652W        W54452  20.969   6.379   4.885 -0.2694  0.0026 -0.4498
45653W        W54453  27.933   5.709   1.663 -0.3962  0.3313 -0.0312
45654W        W54454  24.690   4.914  19.488  0.3513  0.4136 -0.2016
45655W        W54455  21.307   5.235  24.053 -0.0151  0.4070  0.1435
45656W        W54456   1.867   5.179   8.904  0.1317 -0.2878 -0.0762
45657W        W54457  11.363   2.747  19.323  0.0092  0.1128  0.0331
45658W        W54458  24.381   5.125   9.892  0.2542  0.0987  0.0749
45659W        W54459   2.009   3.307  10.494 -0.1256 -0.0533 -0.2646
45660W        W54460  20.143   0.457  10.265  0.0158 -0.1547 -0.1215
45661W        W54461  13.801   4.144  18.108 -0.0681  0.0582  0.1327
45662W        W54462  18.490   0.167   5.151 -0.1365  0.0531 -0.0987
45663W        W54463   2.630   4.731   7.913 -0.2325  0.2877  0.1813
45664W        W54464  22.347   1.915   7.380 -0.0801 -0.2479 -0.1188
45665W        W54465  19.213   0.582   7.123  0.1071  0.1681 -0.0662
45666W        W54466  29.437   1.609  10.689  0.1308 -0.2427 -0.2565
45667W        W54467  12.959   1.293   4.574 -0.2676  0.1806  0.1527
45668W        W54468   3.274   5.203   8.580  0.0054  0.0346 -0.0133
45669W        W54469  12.160   7.284  23.079  0.2853 -0.1923  0.2638
45670W        W54470  12.977   6.734  25.911  0.0816  0.1599 -0.1714
45671W        W54471  23.151   0.510   4.159  0.0176  0.1543 -0.0570
45672W        W54472  26.758   3.884  18.474  0.1484 -0.1469 -0.0034
45673W        W54473  31.019   7.156  23.864  0.1964 -0.0950 -0.0224
45674W        W54474   2.178   5.760   2.836 -0.2701 -0.2937 -0.0815
45675W        W54475   8.281   2.454  20.424  0.0873 -0.2920 -0.2060
45676W        W54476  24.282   2.019   2.711 -0.0916 -0.0442  0.0469
45677W        W54477  16.720   6.261   1.327  0.0927 -0.1504 -0.1370
45678W        W54478  22.134   4.565   2.488 -0.0969 -0.2384 -0.1519
45679W        W54479  11.960   0.190   8.653 -0.0960 -0.0761  0.0989
45680W        W54480   4.095   6.924  15.725  0.0198  0.0963  0.0956
45681W        W54481  28.380   3.781   1.181 -0.0215 -0.1842  0.1615
45682W        W54482   7.104   1.184   0.931 -0.0391 -0.0508 -0.0026
45683W        W54483  20.900   6.977   3.062 -0.1788  0.1928  0.0631
45684W        W54484  12.530   6.851  22.323  0.1424 -0.1779  0.2690
45685W        W54485   1.812   1.652   1.748 -0.0861  0.2410 -0.1838
45686W        W54486  30.770   6.167  17.099  0.1840  0.0872 -0.0824
45687W        W54487  29.886   4.633   6.599 -0.1203  0.2296  0.0716
45688W        W54488  13.358   4.421  21.652  0.2883 -0.1812 -0.1667
45689W        W54489   3.852   3.014  24.516  0.0081 -0.2284 -0.1482
45690W        W54490  17.646   0.470  22.824  0.1203  0.0001 -0.2182
45691W        W54491  12.541   4.895  18.024  0.2324 -0.2501 -0.2195
45692W        W54492   1.642   0.694  10.475  0.2198  0.0047 -0.0480
45693W        W54493   9.353   7.228   8.171  0.0682  0.5665  0.2060
45694W        W54494  20.388   7.506  19.149  0.1563  0.1176 -0.0947
45695W        W54495  12.843   4.754  24.761  0.0909 -0.2338 -0.1030
45696W        W54496  13.885   0.997   4.201  0.2801 -0.2373 -0.2653
45697W        W54497  21.175   1.275  23.190  0.1086  0.0219  0.0599
45698W        W54498  10.720   6.787   7.004 -0.0569 -0.2527 -0.1296
45699W        W54499  12.029   5.549  23.570  0.0580 -0.1075  0.1488
45700W        W54500  15.482   4.658   5.183  0.3089 -0.0459 -0.3285
45701W        W54501  12.713   5.235  16.731 -0.0637  0.4413  0.0956
45702W        W54502  19.605   1.930   5.141  0.0732 -0.0500 -0.2575
45703W        W54503  21.424   7.684   6.558  0.1042  0.0311  0.3490
45704W        W54504  16.638   7.010   7.231  0.2383  0.1256 -0.0594
45705W        W54505   3.921   0.127  18.169 -0.2624 -0.0753  0.0318
45706W        W54506   8.030   1.794  26.161 -0.3438 -0.2097  0.2669
45707W        W54507  28.528   5.890  22.885  0.0499 -0.2262  0.0448
45708W        W54508  24.787   5.984   7.448 -0.0082  0.0375 -0.0561
45709W        W54509   8.045   0.416  23.017  0.3603 -0.3821  0.0518
45710W        W54510   0.211   4.366   9.223 -0.0121 -0.0646 -0.2336
45711W        W54511  26.013   6.161  20.823  0.3073 -0.1894 -0.0436
45712W        W54512  26.034   7.390   2.793  0.2935 -0.0154 -0.1586
45713W        W54513  27.502   4.849   3.701  0.0081  0.0279 -0.2177
45714W        W54514  10.808   4.251   7.360 -0.1887  0.2730 -0.1545
45715W        W54515   2.572   6.557   4.332 -0.1210 -0.1067 -0.1373
45716W        W54516   6.439   6.345  19.422  0.0395 -0.0912  0.0136
45717W        W54517  28.144   5.059   0.848  0.0523 -0.1457 -0.2860
45718W        W54518  27.264   7.510  24.404  0.1887 -0.1111 -0.1655
45719W        W54519   9.740   1.832  24.444  0.2468  0.0257  0.2475
45720W        W54520   4.158   5.847  25.297  0.1481 -0.0271 -0.0914
45721W        W54521   4.309   0.249  24.345 -0.0048  0.0924 -0.0368
45722W        W54522  17.410   1.434  17.378  0.1516  0.4163 -0.3965
45723W        W54523   3.841   2.616   7.715  0.0564  0.1351 -0.0458
45724W        W54524   1.436   2.855   2.229 -0.1934 -0.0032  0.0454
45725W        W54525  11.763   6.922  16.289 -0.1496  0.1547 -0.2590
45726W        W54526  18.888   3.235   8.527 -0.2810  0.0991 -0.2622
45727W        W54527  30.291   7.544  10.258 -0.0661  0.0041 -0.2311
45728W        W54528   9.896   3.481   1.514  0.1866 -0.0996  0.1718
45729W        W54529  16.066   3.353   3.917  0.2986  0.2468  0.1400
45730W        W54530   6.375   1.814  20.799  0.0837 -0.1544 -0.0221
45731W        W54531   0.542   0.514  18.833 -0.1053 -0.1132  0.0875
45732W        W54532   6.733   2.586   4.431  0.3936  0.0737  0.2796
45733W        W54533   2.757   3.211  25.510  0.0077 -0.1221  0.3299
45734W        W54534  29.465   0.747   5.901 -0.1425 -0.0438 -0.2429
45735W        W54535  16.078   4.081  24.683 -0.2235  0.1605 -0.2264
45736W        W54536  22.449   7.163   1.378  0.0273 -0.0922 -0.2321
45737W        W54537  22.037   7.346  24.201  0.2165 -0.1468 -0.5236
45738W        W54538  25.708   2.533  16.147 -0.1033 -0.2641  0.0802
45739W        W54539  16.551   3.497  23.206  0.2182 -0.1547  0.1533
45740W        W54540  10.894   2.284  18.114  0.2999  0.1007 -0.0641
45741W        W54541  16.142   6.993  15.181 -0.0598  0.0622 -0.1063
45742W        W54542  21.956   3.388   7.633  0.1081 -0.0723 -0.1626
45743W        W54543  27.224   4.071   3.248  0.0312  0.1411  0.4356
45744W        W54544   8.426   4.602  17.864 -0.0329 -0.1497 -0.2282
45745W        W54545  26.522   4.626   3.185  0.0384  0.0824  0.0839
45746W        W54546  13.938   4.245  15.525  0.0560  0.1617 -0.2090
45747W        W54547  30.745   1.775  24.751 -0.1322  0.0044  0.1964
45748W        W54548  16.656   4.187  23.271  0.2587 -0.2200 -0.3242
45749W        W54549   7.582   3.384  19.508 -0.1680 -0.4420  0.3029
45750W        W54550  17.993   5.764  15.447 -0.2904  0.0634  0.2223
45751W        W54551  24.590   6.799  24.209  0.1029  0.1722 -0.0158
45752W        W54552  24.837   6.163  19.300 -0.0078  0.1092 -0.2061
45753W        W54553  14.876   1.445   6.299  0.0947 -0.2882 -0.1046
45754W        W54554  30.853   1.171  23.111 -0.0993 -0.1379 -0.2335
45755W        W54555   6.654   7.560  15.995  0.0914  0.0513  0.0268
45756W        W54556  12.228   2.325  26.031  0.0176 -0.0973  0.2477
45757W        W54557  15.880   6.270   3.041  0.2273 -0.1982  0.2793
45758W        W54558   8.924   7.106  23.289  0.0466  0.0360  0.3013
45759W        W54559   4.351   0.752  25.832  0.0201  0.0845 -0.2421
45760W        W54560   4.794   7.351  19.453  0.1531 -0.1943 -0.0341
45761W        W54561   9.299   1.507  20.831  0.0303 -0.0949  0.0444
45762W        W54562  29.607   5.187   5.135 -0.2165  0.1546  0.0428
45763W        W54563  22.590   7.406   7.910 -0.1090  0.1657  0.0145
45764W        W54564  28.543   4.423  25.055 -0.1460 -0.0426 -0.2061
45765W        W54565  14.621   7.372  21.820 -0.1632 -0.5938  0.0836
45766W        W54566   7.322   1.609  15.435 -0.1524  0.1763 -0.0470
45767W        W54567  26.216   0.389  17.097  0.0021  0.2343 -0.2800
45768W        W54568   6.495   6.966   0.292  0.3084  0.0159  0.2702
45769W        W54569  21.881   4.834  23.290 -0.0393 -0.0673  0.0963
45770W        W54570  13.328   1.841  16.108 -0.1647  0.0872 -0.2034
45771W        W54571  12.515   4.580  25.184  0.2259  0.3480  0.3912
45772W        W54572  26.162   1.324  21.276  0.2114  0.1245  0.0170
45773W        W54573  16.833   0.660   0.614 -0.0865  0.3510 -0.2618
45774W        W54574  17.398   1.183  24.931  0.1112 -0.2845  0.0996
45775W        W54575   9.004   0.745   4.269 -0.0150 -0.0875  0.1646
45776W        W54576  18.614   0.561   5.413  0.0824  0.2768 -0.0590
45777W        W54577  27.758   0.367  20.091 -0.2444  0.1365  0.0286
45778W        W54578   6.880   0.003  16.418 -0.1392  0.2043  0.0522
45779W        W54579  21.136   6.658  17.395  0.1507  0.2217 -0.1059
45780W        W54580  21.440   0.769   6.508 -0.1312  0.0685  0.0929
45781W        W54581  22.101   0.036  24.217  0.1694 -0.1170 -0.1518
45782W        W54582   8.743   2.654   9.894  0.0135 -0.0686  0.1859
45783W        W54583   4.343   2.718  20.999  0.2339 -0.1534 -0.0304
45784W        W54584  29.257   3.566   7.666 -0.0386  0.1260 -0.1886
45785W        W54585   4.650   4.240  16.093 -0.0561 -0.1897 -0.0462
45786W        W54586  12.191   0.614   7.370 -0.1633 -0.0644 -0.0363
45787W        W54587  16.499   1.069  24.393 -0.0483  0.2565 -0.1067
45788W        W54588   9.117   6.451  24.564  0.0333  0.2454  0.0490
45789W        W54589   7.162   0.433   5.315  0.3434  0.0864 -0.1557
45790W        W54590   8.959   5.175  15.606 -0.1334 -0.2617  0.0254
45791W        W54591  16.331   6.548   5.291  0.2060 -0.2409  0.3027
45792W        W54592   4.588   4.421  18.965 -0.0444  0.1033  0.0820
45793W        W54593   5.244   4.638  10.958 -0.2801  0.1215  0.2667
45794W        W54594   1.084   2.636  17.928 -0.0337  0.0761 -0.0197
45795W        W54595   2.744   2.835   3.028  0.1345 -0.0180  0.2723
45796W        W54596  21.767   0.630   6.053 -0.0192  0.1054 -0.2824
45797W        W54597  27.576   2.250   7.854 -0.0741  0.1735 -0.1323
45798W        W54598   9.432   3.965   4.947 -0.2196  0.0095  0.1508
45799W        W54599  27.941   6.694  19.709  0.1166  0.2819 -0.1755
45800W        W54600  16.409   1.914   7.977  0.1260  0.0907  0.1811
45801W        W54601  26.482   6.154   0.042 -0.3424 -0.0474 -0.0458
45802W        W54602   5.187   7.415   0.118 -0.1065  0.5217 -0.0822
45803W        W54603  25.819   0.780  24.603 -0.2061 -0.2109 -0.2351
45804W        W54604  17.775   6.139  21.799  0.1408  0.0266  0.3698
45805W        W54605  29.550   0.498   7.291 -0.0553 -0.1861 -0.0994
45806W        W54606   3.956   5.620   7.174 -0.2925 -0.0872 -0.1001
45807W        W54607  27.445   1.944   9.039  0.1536  0.1775  0.0505
45808W        W54608   7.795   1.183   3.418  0.0724  0.5227  0.0843
45809W        W54609  20.002   6.565  15.689  0.0993 -0.1798 -0.0300
45810W        W54610   9.223   0.855   1.032  0.1212  0.0317 -0.0387
45811W        W54611  19.092   2.465  18.408 -0.0893 -0.1586  0.3275
45812W        W54612  30.984   3.848   9.340 -0.0073  0.0695 -0.1352
45813W        W54613   2.771   3.879  19.446 -0.1776  0.0970 -0.0774
45814W        W54614  27.142   7.698   9.853 -0.1343  0.0090 -0.1141
45815W        W54615  10.420   5.831   5.571  0.2792  0.0769 -0.3058
45816W        W54616  28.129   6.282  17.953  0.0983 -0.0427  0.0521
45817W        W54617  16.318   4.666   0.525 -0.1252  0.6015  0.1023
45818W        W54618   2.014   7.368  20.696 -0.1122 -0.0339 -0.2448
45819W        W54619  10.179   3.827  25.353  0.1594 -0.0785 -0.3144
45820W        W54620  17.558   7.583   9.239 -0.0209  0.1223 -0.1375
45821W        W54621   4.290   7.604   1.351  0.0660 -0.0122 -0.2384
45822W        W54622  21.706   1.520  26.046 -0.3187  0.0969 -0.1030
45823W        W54623  10.001   4.084   8.907  0.0836  0.0596  0.0167
45824W        W54624   5.019   0.670  22.131  0.0830 -0.0534 -0.2440
45825W        W54625  19.275   7.787   2.085  0.0305  0.0160  0.2250
45826W        W54626   2.059   6.960   3.581 -0.2618  0.1375 -0.3401
45827W        W54627  19.393   7.092   5.339  0.1251 -0.1354 -0.1086
45828W        W54628  16.514   1.099   4.476 -0.0412 -0.0619 -0.0991
45829W        W54629  11.225   1.155   8.478  0.3012  0.2949  0.1420
45830W        W54630   1.781   2.864   0.975  0.2282 -0.0683  0.2804
45831W        W54631  27.717   0.166   8.371 -0.0800 -0.0497 -0.1131
45832W        W54632  21.659   2.421   3.568 -0.0896 -0.2336  0.2023
45833W        W54633   0.263   7.297  19.885  0.1147  0.3980 -0.0342
45834W        W54634   4.256   3.941  24.680 -0.2873  0.0530  0.0392
45835W        W54635   1.524   4.239  23.397 -0.1122 -0.3224 -0.1073
45836W        W54636  10.278   6.946  21.711  0.1392 -0.0090  0.3137
45837W        W54637  16.707   6.665  19.983 -0.1255 -0.0539 -0.3671
45838W        W54638  25.510   5.048  16.039 -0.0122 -0.0075 -0.1687
45839W        W54639  30.637   3.710  19.894  0.3320 -0.4057  0.3928
45840W        W54640  10.140   5.191   2.677  0.0860 -0.0172  0.0920
45841W        W54641  17.941   2.364   6.361  0.3748 -0.0671  0.1941
45842W        W54642  30.592   3.679  21.766 -0.3734 -0.1051 -0.3452
45843W        W54643  12.482   6.545  21.085  0.2213  0.0138 -0.1165
45844W        W54644   5.341   1.449  20.157  0.0413  0.2156  0.2089
45845W        W54645  25.929   6.415  23.665  0.0199  0.0883 -0.1079
45846W        W54646   4.015   6.744   3.665 -0.1168  0.2926 -0.2666
45847W        W54647  14.048   0.129   1.496 -0.2695  0.1095  0.2143
45848W        W54648  31.122   3.848  10.592  0.1429 -0.0003 -0.2239
45849W        W54649  19.764   6.801  24.696 -0.0925 -0.2346 -0.0162
45850W        W54650  11.322   1.353  10.349  0.1618  0.1692  0.1095
45851W        W54651   9.004   2.263  15.445 -0.2249 -0.0417 -0.1486
45852W        W54652   7.576   4.859  26.082  0.1227  0.0632  0.0129
45853W        W54653  24.451   3.523   4.809 -0.0268 -0.0473 -0.1783
45854W        W54654  19.733   6.503  20.055  0.1356  0.0232 -0.1507
45855W        W54655  15.594   6.010  25.699 -0.0259 -0.1696  0.0499
45856W        W54656   6.479   1.721  16.922  0.2294 -0.2877  0.1601
45857W        W54657   0.385   5.941   2.914  0.0538  0.0781  0.1630
45858W        W54658  18.910   1.037   9.165 -0.0032 -0.0634  0.0862
45859W        W54659  12.125   5.629  20.907  0.2658 -0.2096 -0.1112
45860W        W54660  15.641   3.434   0.246 -0.1555 -0.2035  0.1126
45861W        W54661  24.963   5.018  19.937  0.0223  0.0750 -0.2717
45862W        W54662  11.452   3.064  24.371  0.0058  0.0256  0.2428
45863W        W54663  24.791   2.020   7.426 -0.0349  0.1862 -0.0051
45864W        W54664   8.898   4.704   5.526  0.1483 -0.0954 -0.2074
45865W        W54665  17.608   6.190  25.473 -0.0295  0.1577 -0.0540
45866W        W54666   2.068   7.387  25.909 -0.1054  0.0321 -0.1571
45867W        W54667   8.186   2.793  18.605  0.2760  0.0319  0.3776
45868W        W54668   6.129   5.639  17.630 -0.1117  0.1666 -0.0144
45869W        W54669  26.437   6.989   0.485  0.1155 -0.0182 -0.1254
45870W        W54670  16.019   0.944  19.836  0.3190 -0.2254  0.0167
45871W        W54671  20.658   7.621  25.180 -0.2242  0.0572 -0.0611
45872W        W54672  21.901   4.155   2.096  0.0887 -0.0119 -0.0254
45873W        W54673   4.851   1.034  10.041  0.3792 -0.4304 -0.1638
45874W        W54674  16.110   4.267  15.603 -0.1742  0.0366 -0.2335
45875W        W54675  15.255   1.927  22.678  0.1065  0.0353  0.0477
45876W        W54676  21.781   4.622   2.107  0.0029 -0.1983 -0.1214
45877W        W54677   1.003   4.776   2.459  0.2631  0.2333  0.0533
45878W        W54678   8.057   7.313   5.540 -0.2324  0.0657 -0.2188
45879W        W54679  12.697   3.400  16.107  0.4942 -0.0952  0.0883
45880W        W54680  21.004   2.431   9.941 -0.0581 -0.1084  0.0169
45881W        W54681  20.907   7.060  19.628 -0.0050  0.0488  0.0381
45882W        W54682   9.246   3.704   2.168  0.5015 -0.0665 -0.4101
45883W        W54683   8.073   6.360   9.139 -0.0858 -0.1285  0.1597
45884W        W54684  30.119   5.228   0.169  0.0326  0.0172  0.1281
45885W        W54685   4.256   5.119   6.877  0.1076 -0.0352 -0.1306
45886W        W54686   4.092   5.740  17.593 -0.0287 -0.0327  0.3062
45887W        W54687  23.360   4.476   3.058  0.0608 -0.2878  0.1409
45888W        W54688   4.815   5.196  24.610 -0.0016 -0.1735  0.0231
45889W        W54689   7.171   5.137  23.099 -0.2204 -0.1561 -0.1072
45890W        W54690  16.038   1.605   8.963  0.1089 -0.2898 -0.1651
45891W        W54691  20.966   0.006  20.564 -0.0200  0.0694  0.2573
45892W        W54692   6.496   5.079  18.516 -0.1012 -0.1490 -0.2262
45893W        W54693  16.383   3.821   3.869 -0.0448 -0.1792 -0.1933
45894W        W54694  20.791   4.230   5.891  0.1736 -0.0832  0.2296
45895W        W54695  26.484   4.861  16.310 -0.0802  0.0835  0.1052
45896W        W54696   5.030   7.020   3.518 -0.1032 -0.1178 -0.1823
45897W        W54697  14.548   0.464   4.215  0.1601 -0.0746 -0.1096
45898W        W54698  20.089   7.820   9.989  0.0404 -0.0991  0.0149
45899W        W54699  29.835   0.210   9.761  0.2226  0.2911 -0.0462
45900W        W54700   6.129   2.145   3.193  0.0953 -0.2619  0.0444
45901W        W54701   8.311   4.102   8.374  0.2621 -0.0740  0.1016
45902W        W54702  22.355   5.741   6.194 -0.2560  0.1171  0.1638
45903W        W54703   2.305   6.974  23.002  0.1174 -0.0068  0.0275
45904W        W54704  19.462   6.837   0.218  0.0119 -0.1175  0.0459
45905W        W54705   4.186   2.763  18.855 -0.1191  0.1520  0.0243
45906W        W54706   5.325   6.478  25.958 -0.1902 -0.1793  0.2281
45907W        W54707  25.594   3.883   5.468  0.3258 -0.2078  0.1971
45908W        W54708  23.388   6.746  19.456  0.1053  0.0763  0.2181
45909W        W54709  15.825   1.583   6.166 -0.1001  0.1086  0.1670
45910W        W54710   6.859   1.379  17.930 -0.1364 -0.2036  0.1172
45911W        W54711  11.947   0.357  20.717 -0.0601 -0.1447 -0.0718
45912W        W54712   6.333   4.086  24.327 -0.3771  0.5533 -0.1736
45913W        W54713   0.867   2.349   5.856 -0.2718 -0.2994 -0.2457
45914W        W54714  19.529   5.884  15.357  0.1640  0.1820 -0.1937
45915W        W54715  25.236   4.120   2.118  0.0864 -0.0851 -0.2104
45916W        W54716  11.750   0.321   7.754  0.0890  0.1978  0.0529
45917W        W54717   4.820   2.138   5.618 -0.2204 -0.0920 -0.2012
45918W        W54718  11.329   7.027  22.787 -0.0738 -0.1463 -0.3278
45919W        W54719  10.144   4.685  16.816  0.0917 -0.0586 -0.3459
45920W        W54720   2.504   0.431   4.645 -0.1574  0.0483  0.1014
45921W        W54721  29.865   7.432  18.004 -0.1906  0.0733  0.1216
45922W        W54722  23.093   6.562  15.371 -0.1379 -0.3056 -0.0088
45923W        W54723   5.735   7.119   6.102  0.1555  0.0046 -0.0781
45924W        W54724  18.164   3.909  24.678 -0.1010  0.3952  0.2485
45925W        W54725  16.539   3.749   7.521  0.0364  0.1156 -0.0043
45926W        W54726  13.577   2.526  24.896 -0.1414  0.2110 -0.0071
45927W        W54727  18.916   1.365   5.811  0.1670 -0.1105  0.2757
45928W        W54728  27.041   0.945   4.069 -0.1983 -0.0339 -0.1324
45929W        W54729   5.912   4.914   0.181 -0.1604  0.3184  0.1598
45930W        W54730   2.662   2.029  21.043  0.1630 -0.2551 -0.1158
45931W        W54731  27.787   3.070  24.871 -0.1399  0.0208 -0.2542
45932W        W54732   8.363   1.552   1.146  0.1815 -0.0512  0.2324
45933W        W54733   1.254   6.846   3.739  0.2613  0.1949 -0.1244
45934W        W54734  11.686   5.344  23.862 -0.1319 -0.1199 -0.2087
45935W        W54735  14.347   0.322  18.845 -0.1905  0.1061 -0.0474
45936W        W54736   7.182   5.012   1.440 -0.1457 -0.2709  0.3175
45937W        W54737   2.277   0.254  21.114 -0.2102 -0.1178 -0.1831
45938W        W54738  11.999   4.139   9.198 -0.1933 -0.1417 -0.1129
45939W        W54739  22.820   2.348  22.454  0.0265  0.0346  0.0735
45940W        W54740  15.210   3.546   3.059 -0.1319  0.0888  0.2645
45941W        W54741   4.260   0.017  23.865  0.2448  0.0071  0.0347
45942W        W54742   2.817   2.795  22.549  0.1781  0.1697 -0.1005
45943W        W54743  19.985   6.694  10.730  0.1244  0.0365  0.0545
45944W        W54744  25.728   7.436  24.283  0.0920  0.2079 -0.1216
45945W        W54745   1.833   6.978   6.246  0.0384 -0.0382 -0.0592
45946W        W54746   2.541   6.357  22.450 -0.1387 -0.1586 -0.0669
45947W        W54747   6.489   2.572   8.326 -0.1142 -0.0026 -0.0116
45948W        W54748   1.119   5.697   3.611 -0.1371  0.2361 -0.1183
45949W        W54749  29.912   1.970  23.076 -0.1860  0.1593  0.1600
45950W        W54750  16.799   2.188   3.759  0.0093 -0.3053 -0.1136
45951W        W54751  24.189   4.567  23.468  0.2218 -0.2741 -0.2266
45952W        W54752  16.858   2.615   9.607 -0.0630  0.2990  0.1387
45953W        W54753  27.223   3.663   0.702 -0.1226 -0.3110  0.1262
45954W        W54754  10.326   1.410  18.944 -0.2276  0.1477  0.1984
45955W        W54755   0.370   2.845   4.380  0.1501 -0.4110 -0.2015
45956W        W54756  29.240   2.278   7.953 -0.0909  0.2342  0.1316
45957W        W54757  20.150   5.230  19.994 -0.1069  0.2880 -0.0808
45958W        W54758   3.219   5.107   4.760  0.1115 -0.0921  0.0352
45959W        W54759  26.883   2.376  21.749 -0.4658 -0.2665  0.1543
45960W        W54760   1.169   0.693   2.439  0.3590 -0.0985  0.2120
45961W        W54761   8.384   3.721  25.486 -0.0320  0.1859 -0.0260
45962W        W54762   1.918   0.574   1.739  0.1231  0.0090  0.1666
45963W        W54763   0.047   0.407   3.604 -0.1162 -0.2709 -0.0739
45964W        W54764  26.257   2.071   2.640 -0.0128 -0.2230  0.0217
45965W        W54765   7.594   5.281   6.787  0.3417  0.2126  0.0794
45966W        W54766   1.599   3.377  23.773  0.2610  0.1823  0.0653
45967W        W54767   4.897   4.801   6.349 -0.0657  0.2643 -0.0757
45968W        W54768   9.332   1.764  19.692 -0.2064 -0.0047 -0.2537
45969W        W54769  22.683   1.696  22.468 -0.0887 -0.0293  0.2228
45970W        W54770   3.365   2.276  14.962  0.1033  0.0399 -0.0408
45971W        W54771  31.288   5.173   1.280  0.1176  0.0821  0.3246
45972W        W54772   5.173   1.158  17.715  0.0198 -0.1971  0.1024
45973W        W54773  18.465   4.932   3.653  0.0469  0.1421  0.0411
45974W        W54774  20.315   0.442   8.835  0.1430  0.1118 -0.2596
45975W        W54775   5.447   0.791   0.655  0.0892 -0.1112  0.2950
45976W        W54776  11.148   2.102  19.280  0.0594  0.0051  0.0596
45977W        W54777  28.439   7.399  17.172 -0.1804 -0.3127  0.2012
45978W        W54778   6.412   0.603  11.048 -0.1637  0.2757 -0.0363
45979W        W54779  28.555   1.007   1.260  0.3613 -0.2723  0.2134
45980W        W54780  22.500   3.798   3.154  0.0392  0.0157 -0.0500
45981W        W54781   3.059   7.784  16.391  0.0444 -0.1314 -0.3644
45982W        W54782   4.282   6.616  10.503 -0.0426  0.2445  0.2625
45983W        W54783  27.156   7.096   6.948 -0.1102 -0.2455  0.2918
45984W        W54784  22.620   4.698  25.921  0.2070  0.1098  0.0664
45985W        W54785  19.891   4.614  21.377  0.0339  0.0372  0.2957
45986W        W54786  13.804   6.989   9.745 -0.3806 -0.0865  0.2860
45987W        W54787   6.554   7.310  24.173 -0.0734  0.3949  0.1478
45988W        W54788  23.836   6.585   0.340 -0.0453 -0.2372  0.0259
45989W        W54789   9.860   2.499  25.443 -0.2054  0.2161  0.0610
45990W        W54790  16.172   4.282   5.363  0.0622  0.0630 -0.0115
45991W        W54791   8.491   7.770  14.779 -0.2093 -0.2398 -0.0828
45992W        W54792  27.851   7.135   6.235  0.0073  0.3130 -0.0281
45993W        W54793   9.358   0.148  17.262  0.1783  0.0072  0.0839
45994W        W54794  25.507   1.292   2.406 -0.2676 -0.0271 -0.1376
45995W        W54795   8.524   0.428  15.588 -0.0820 -0.1348 -0.0067
45996W        W54796   3.893   7.238   8.368 -0.2473  0.0066 -0.2281
45997W        W54797  16.544   5.194  17.431 -0.0134 -0.1227 -0.0284
45998W        W54798  20.709   5.242  17.241 -0.0591  0.0476 -0.3115
45999W        W54799  12.973   4.216   4.634 -0.0609 -0.1256 -0.1040
46000W        W54800   6.659   3.526  17.859  0.2755 -0.1855 -0.2959
46001W        W54801  15.122   1.546   0.068  0.1630 -0.1954  0.1930
46002W        W54802  25.904   1.849  18.371 -0.1262 -0.2302 -0.1332
46003W        W54803  16.142   4.123  18.410 -0.1503  0.1219 -0.1049
46004W        W54804  28.820   7.602  25.814 -0.1516 -0.2131  0.1383
46005W        W54805  18.593   1.448  16.244  0.2062  0.3039 -0.0867
46006W        W54806   7.570   1.747   6.402 -0.0061 -0.2126  0.2146
46007W        W54807  26.675   5.424   6.590 -0.5069 -0.0983  0.2902
46008W        W54808  20.691   7.531  24.323  0.0977 -0.2646  0.1712
46009W        W54809  26.271   3.182   5.007  0.1037 -0.0016 -0.1199
46010W        W54810  28.269   6.492   7.832 -0.0289 -0.2637  0.1161
46011W        W54811   7.107   4.049   9.317 -0.0939  0.1367 -0.1952
46012W        W54812   9.419   1.263   9.213  0.3399  0.1743  0.1344
46013W        W54813  16.841   3.176   5.478  0.3255  0.2398  0.1869
46014W        W54814  27.337   6.514   0.034  0.0616  0.1738 -0.0699
46015W        W54815  22.610   0.551  26.160  0.1009  0.1289 -0.0655
46016W        W54816   2.424   6.502   2.153  0.0014  0.0307  0.1053
46017W        W54817  12.162   5.811   6.508 -0.2245 -0.1139 -0.0246
46018W        W54818  25.550   3.736   2.167 -0.3457  0.0482  0.0093
46019W        W54819   3.145   3.899   5.787 -0.1067  0.1280 -0.2885
46020W        W54820   9.210   2.294  10.024 -0.0572 -0.0249  0.3122
46021W        W54821   7.648   4.397  25.651 -0.0430  0.0236 -0.2923
46022W        W54822   4.476   1.081  16.420  0.1020  0.0675  0.0649
46023W        W54823  22.314   3.732  15.855 -0.0208  0.0618  0.2073
46024W        W54824   1.258   4.952   1.176  0.0928  0.0277 -0.1480
46025W        W54825   0.364   5.249   6.582  0.0103 -0.1503 -0.2042
46026W        W54826  24.353   1.336   5.275 -0.0718 -0.1688 -0.4387
46027W        W54827   8.478   6.253  22.028 -0.0455 -0.0254 -0.2768
46028W        W54828  17.278   2.606  18.079 -0.0582 -0.0579 -0.1054
46029W        W54829   3.097   5.066  26.088  0.4039  0.2425  0.0453
46030W        W54830  16.548   4.290   4.902 -0.2122  0.1022 -0.2035
46031W        W54831  27.953   2.909   2.718  0.0174 -0.0465 -0.0632
46032W        W54832  25.393   2.267   0.104  0.1374  0.1917  0.2023
46033W        W54833   7.069   6.726   0.197 -0.1469 -0.1419  0.0018
46034W        W54834  26.590   6.954  19.510  0.7869 -0.0802  0.0451
46035W        W54835  17.058   3.602   9.621  0.0188  0.1259 -0.1324
46036W        W54836   3.113   7.212  10.760  0.1435 -0.1681 -0.0871
46037W        W54837  24.567   7.762   3.371  0.1111 -0.0257  0.1576
46038W        W54838   0.911   0.080  10.891  0.2882  0.2612 -0.1011
46039W        W54839  16.580   4.837   2.287  0.1423 -0.1838  0.0057
46040W        W54840  28.836   3.539   7.354  0.0750 -0.2805 -0.0224
46041W        W54841  21.171   1.017   1.463 -0.1696  0.0504 -0.1175
46042W        W54842  16.247   7.356   1.724  0.1506 -0.1646 -0.0613
46043W        W54843  16.256   5.710  22.674  0.0108 -0.0230  0.1261
46044W        W54844  16.851   3.375   4.424 -0.2138  0.0553 -0.1439
46045W        W54845  19.616   1.371   2.153 -0.0598  0.1136 -0.0543
46046W        W54846  21.528   4.459  15.269  0.1151 -0.2898  0.3449
46047W        W54847  15.226   4.993  17.502 -0.1185  0.2520  0.2927
46048W        W54848  21.317   5.394  15.315  0.1189 -0.2451 -0.0861
46049W        W54849  25.843   5.221   8.007  0.0622 -0.1177 -0.1612
46050W        W54850  14.070   5.221  25.540  0.2401 -0.1621  0.0655
46051W        W54851   7.884   3.848  19.344 -0.1105 -0.0366  0.0746
46052W        W54852   7.574   3.791  17.454 -0.0150  0.2110  0.0367
46053W        W54853  10.557   4.340   6.947 -0.0858  0.0047 -0.1100
46054W        W54854   6.237   7.636   7.640 -0.1062 -0.1570 -0.0734
46055W        W54855  29.972   5.881  20.501 -0.1168 -0.1814  0.0561
46056W        W54856  11.619   0.016  22.340  0.2762 -0.2405  0.0816
46057W        W54857  16.093   2.319  18.668  0.1194  0.1588  0.2934
46058W        W54858  14.536   3.603   5.292 -0.2191 -0.0709 -0.0560
46059W        W54859  19.441   7.538   5.096 -0.0905 -0.0246  0.2938
46060W        W54860  18.744   4.109   5.092 -0.0542 -0.0550 -0.0810
46061W        W54861  31.021   1.842  10.267 -0.1399  0.4979 -0.1706
46062W        W54862   8.258   3.343  16.019  0.0056 -0.1221  0.1254
46063W        W54863   0.740   2.119   7.551  0.2518  0.3146  0.1455
46064W        W54864   7.613   1.163   9.722 -0.2307 -0.1427  0.0637
46065W        W54865   6.064   6.511   3.740  0.1013  0.5289  0.0203
46066W        W54866  14.111   2.616   9.213  0.1030  0.0122  0.1145
46067W        W54867  23.060   4.427  10.887  0.0724 -0.1084 -0.0594
46068W        W54868   3.691   5.101  22.249  0.0616 -0.1878  0.1140
46069W        W54869  13.361   1.587  20.899  0.0517 -0.3266 -0.2052
46070W        W54870  14.634   3.916   1.028 -0.2035 -0.3023 -0.0777
46071W        W54871  25.684   4.894  16.646 -0.1569  0.0444 -0.0203
46072W        W54872  22.556   2.052   7.797 -0.2045  0.1149 -0.3014
46073W        W54873   1.986   3.315  15.024  0.3537  0.2014  0.3445
46074W        W54874   5.605   4.750   3.603  0.0259 -0.0066 -0.2178
46075W        W54875  23.674   3.255  10.591  0.1198  0.0808 -0.0842
46076W        W54876  21.166   3.246  15.634  0.2228  0.0680 -0.1503
46077W        W54877   4.369   1.745  11.376  0.2043  0.0902  0.0467
46078W        W54878  25.419   4.607   3.978 -0.0270  0.1247  0.2370
46079W        W54879   9.653   4.012  17.368 -0.0325 -0.0920  0.0158
46080W        W54880   6.185   4.616  15.831  0.0070 -0.2036 -0.2205
46081W        W54881  16.042   4.306  18.839 -0.1928 -0.0031  0.2327
46082W        W54882  21.723   5.388  16.734 -0.1867  0.1542  0.0643
46083W        W54883  21.401   6.632   4.890 -0.0824 -0.0667  0.0641
46084W        W54884  19.531   3.202   2.943  0.2019  0.0649 -0.0300
46085W        W54885  29.897   5.994  23.868 -0.2653 -0.0647 -0.0204
46086W        W54886  16.461   6.327  19.771  0.0787 -0.1479  0.1223
46087W        W54887  28.205   2.033   6.176  0.0644 -0.0726 -0.0726
46088W        W54888  16.692   6.204  17.316 -0.1298 -0.0898 -0.0093
46089W        W54889  14.913   6.542   1.011  0.0645  0.0603  0.4650
46090W        W54890   0.225   3.822  11.128  0.3077 -0.4403 -0.0484
46091W        W54891   1.991   5.887   6.568 -0.1328 -0.0245 -0.4802
46092W        W54892   6.919   7.342  20.145  0.3705 -0.0241 -0.3552
46093W        W54893   3.225   4.386   7.503 -0.0792 -0.1500  0.1379
46094W        W54894   1.011   2.816  25.761  0.1135 -0.1622 -0.0120
46095W        W54895   1.947   2.564  22.681 -0.1250  0.0007 -0.0978
46096W        W54896   5.731   5.652  19.603 -0.3263 -0.0653 -0.2571
46097W        W54897   1.051   6.727   7.918  0.2270  0.1820  0.3778
46098W        W54898   1.949   3.703  24.569  0.3575  0.0068 -0.4335
46099W        W54899   1.020   3.309   5.695 -0.0598  0.0563  0.0563
46100W        W54900   2.760   2.360  25.669  0.4117  0.1826 -0.1369
46101W        W54901  22.266   5.905  21.731 -0.0327  0.0507  0.1967
46102W        W54902  12.017   0.256  10.359 -0.0526 -0.0601 -0.2270
46103W        W54903   7.527   7.520   7.652  0.0613 -0.0163 -0.1812
46104W        W54904  28.011   5.445  24.312 -0.0867  0.1931  0.0200
46105W        W54905  23.755   3.358  21.247 -0.0607  0.0493 -0.1555
46106W        W54906  30.983   6.484   6.219 -0.1823 -0.0732 -0.0262
46107W        W54907   3.742   2.751  17.581  0.1303 -0.1024 -0.2587
46108W        W54908  30.671   0.688  25.426 -0.1705 -0.3814  0.0714
46109W        W54909   1.171   1.205  21.702  0.0734  0.1256 -0.0029
46110W        W54910  22.540   3.234   2.464  0.1362  0.1840 -0.1729
46111W        W54911  10.695   7.476  16.059  0.2403 -0.1428 -0.1006
46112W        W54912  30.559   0.713   2.547 -0.0316 -0.0894 -0.1154
46113W        W54913  14.190   6.554  25.548 -0.2117  0.0739  0.1311
46114W        W54914  26.507   2.159   3.768 -0.0775 -0.0431  0.0674
46115W        W54915  18.513   3.214   8.178  0.1180  0.3403 -0.0512
46116W        W54916  16.379   0.182   2.560  0.1967  0.0328  0.2664
46117W        W54917  17.307   5.563  24.858  0.2508  0.3448 -0.1376
46118W        W54918  20.739   2.303  16.549 -0.2022 -0.0566 -0.0441
46119W        W54919  28.887   4.039  18.449  0.3390  0.1333 -0.0832
46120W        W54920  14.125   5.437   7.590 -0.0355  0.0473  0.2627
46121W        W54921   4.195   0.051   4.011 -0.1271  0.0328  0.0712
46122W        W54922  19.614   2.937  23.069  0.0066  0.1122  0.0795
46123W        W54923  17.464   4.246   4.126 -0.0901 -0.0752 -0.1016
46124W        W54924  26.402   6.036  19.168  0.1522 -0.3523  0.0684
46125W        W54925   2.989   1.913   5.876 -0.0121 -0.0449  0.0816
46126W        W54926  11.711   4.161   3.521 -0.2451 -0.1906  0.1236
46127W        W54927  31.040   5.893  25.969 -0.1633 -0.2915 -0.0051
46128W        W54928   4.458   0.600  11.727 -0.1165 -0.2549  0.0494
46129W        W54929  27.122   5.497  14.603 -0.0012 -0.0039  0.0105
46130W        W54930  21.032   5.065   7.791  0.4790  0.1105  0.0503
46131W        W54931   8.965   4.869  24.045 -0.2243 -0.0061 -0.4469
46132W        W54932   1.186   1.255  19.419 -0.1069 -0.2915  0.0201
46133W        W54933  11.568   2.089   6.607 -0.1499  0.2463 -0.1091
46134W        W54934   1.567   5.432   2.884  0.1130  0.0981  0.0553
46135W        W54935   2.915   0.834   6.738 -0.1514  0.3312  0.0524
46136W        W54936  13.795   0.036  23.887  0.1552 -0.0929  0.2051
46137W        W54937  28.248   1.141   4.725 -0.2751 -0.1079 -0.0263
46138W        W54938  10.928   1.482   1.791 -0.0595  0.0236 -0.0019
46139W        W54939  12.450   4.756  25.670  0.2290 -0.0419  0.1202
46140W        W54940  20.330   3.615   7.655 -0.0560 -0.1642 -0.1138
46141W        W54941  15.842   5.741   3.703  0.1397 -0.2692  0.0369
46142W        W54942  26.913   2.476   6.745 -0.0991  0.0604  0.0982
46143W        W54943   9.782   2.831  21.326  0.0016 -0.1394 -0.0589
46144W        W54944  15.810   5.853  18.376 -0.1750 -0.0922 -0.3565
46145W        W54945  19.501   5.871  19.550 -0.2006 -0.4182  0.0530
46146W        W54946   1.347   1.725  19.418 -0.2218 -0.0353  0.2752
46147W        W54947  10.965   7.060  23.886 -0.2668  0.2845 -0.1497
46148W        W54948   1.627   6.393  19.900  0.1844  0.0027 -0.2085
46149W        W54949   6.893   1.858   0.755 -0.0441 -0.2057 -0.3089
46150W        W54950  24.704   6.346  24.408  0.1023 -0.3259 -0.3557
46151W        W54951  29.275   0.371   5.091 -0.0566  0.3762 -0.1640
46152W        W54952  20.737   0.017   1.633 -0.3775 -0.1773  0.2707
46153W        W54953  10.477   7.606  17.222  0.1803 -0.1663 -0.2478
46154W        W54954  11.862   7.470   5.907 -0.4779 -0.4616 -0.5204
46155W        W54955  29.009   6.101   1.487 -0.0724  0.0807  0.1919
46156W        W54956   3.655   6.037  11.291 -0.0804 -0.0156  0.0435
46157W        W54957  18.503   2.787   7.350 -0.1930  0.2081 -0.1182
46158W        W54958  23.807   4.622   6.789 -0.0550  0.0210 -0.4213
46159W        W54959   6.268   5.401  16.030 -0.1181  0.1777  0.4051
46160W        W54960   1.042   1.243  25.857 -0.1647 -0.0350  0.0700
46161W        W54961   0.963   7.826  24.235 -0.1076  0.2325 -0.0153
46162W        W54962  26.147   1.331   3.080  0.0736 -0.2253 -0.0940
46163W        W54963  24.273   2.501  22.114 -0.0174 -0.1193  0.0624
46164W        W54964  31.099   7.787   2.288 -0.0767 -0.0800 -0.1324
46165W        W54965   0.299   0.843  19.889  0.3400  0.1489  0.0810
46166W        W54966   9.942   3.075  15.733  0.1382  0.3172 -0.0777
46167W        W54967  29.094   3.565  19.407 -0.0533 -0.1135 -0.0654
46168W        W54968  10.200   0.419   1.999  0.2412  0.1570 -0.2789
46169W        W54969  31.279   5.661  18.747 -0.1120 -0.0303  0.0007
46170W        W54970   5.594   2.560  22.547 -0.1816  0.0178  0.1384
46171W        W54971  29.953   1.496  10.563 -0.2818  0.0098  0.4545
46172W        W54972  30.481   6.590  23.835 -0.2276  0.0333 -0.3095
46173W        W54973  22.476   6.482  26.099 -0.0088  0.0742 -0.2574
46174W        W54974  28.253   0.753   1.621 -0.0992  0.1986 -0.0180
46175W        W54975  21.293   6.827   7.189  0.1285  0.0949 -0.1508
46176W        W54976   1.184   3.629   6.332 -0.0860 -0.1104 -0.0241
46177W        W54977  13.474   0.135   2.231 -0.2074 -0.0941  0.3429
46178W        W54978   2.794   2.225  22.293 -0.1072  0.1928 -0.1064
46179W        W54979  28.555   2.671  21.285 -0.0883  0.2019 -0.0287
46180W        W54980  17.885   5.332  25.977  0.0829  0.1048 -0.0379
46181W        W54981   9.889   3.301  26.161 -0.0780  0.0523  0.2383
46182W        W54982   6.397   7.824  20.092 -0.0734  0.0316 -0.1913
46183W        W54983   9.758   2.835   5.087  0.0215  0.1631  0.0133
46184W        W54984  12.413   3.969   5.186  0.1109 -0.0680  0.1087
46185W        W54985  28.285   3.281  23.682 -0.2059 -0.2155 -0.0222
46186W        W54986  12.677   7.348  19.599 -0.4537  0.0230 -0.1315
46187W        W54987  29.974   0.087  10.233  0.0135  0.0774 -0.1024
46188W        W54988  16.159   0.208   1.003  0.0531  0.2063 -0.0805
46189W        W54989   8.934   4.233   5.115 -0.1859 -0.0220  0.1394
46190W        W54990  30.646   0.846  21.862  0.2382 -0.3163 -0.0507
46191W        W54991   7.508   6.958  24.274  0.0445  0.1143 -0.1680
46192W        W54992  29.965   5.642   2.511 -0.0702 -0.0610 -0.0246
46193W        W54993   9.202   1.532   6.078 -0.0095  0.0380  0.1412
46194W        W54994  21.044   3.516   9.120  0.0732 -0.0074 -0.1358
46195W        W54995   8.913   5.437   4.417  0.0478  0.1931  0.0694
46196W        W54996   0.864   1.314  16.244 -0.1014  0.0368 -0.2769
46197W        W54997   2.942   6.765   8.378 -0.1304 -0.0032  0.2923
46198W        W54998  17.457   5.147   3.971 -0.2322 -0.1783 -0.0678
46199W        W54999   3.496   6.611  23.605 -0.1583 -0.1202 -0.1298
46200W        W55000  14.554   0.215  20.627 -0.2967 -0.0648  0.0395
46201W        W55001  24.492   0.436  16.965  0.0455  0.2404  0.0727
46202W        W55002  22.546   4.830   5.538  0.2249  0.1801  0.1475
46203W        W55003   3.721   5.906   5.225  0.1297 -0.0766  0.3167
46204W        W55004   8.220   5.233  10.039  0.0680  0.2497  0.1037
46205W        W55005   6.004   6.562  23.016 -0.0866 -0.2125  0.0535
46206W        W55006  24.111   0.629   8.500  0.1137  0.0362 -0.0689
46207W        W55007  28.082   3.631   0.602  0.0409 -0.2825 -0.2600
46208W        W55008  23.454   5.824  17.278 -0.2311 -0.0602 -0.0862
46209W        W55009   8.851   0.049   3.391  0.1326  0.0728  0.0462
46210W        W55010  18.000   7.767  20.067 -0.1813 -0.1767  0.0174
46211W        W55011  29.695   6.517   2.473 -0.1522  0.1628 -0.4468
46212W        W55012  22.812   2.896   5.878 -0.3158 -0.0826 -0.1168
46213W        W55013  19.468   4.453  16.561  0.1367  0.0632 -0.0485
46214W        W55014  17.942   4.616   8.261 -0.0729  0.0147 -0.0688
46215W        W55015   3.186   1.663   5.499  0.1616  0.1068  0.2370
46216W        W55016  14.142   5.393  23.585 -0.2662 -0.1176  0.0283
46217W        W55017  27.007   4.729   2.171 -0.3711 -0.0510  0.0624
46218W        W55018  22.660   3.976  10.832  0.1135  0.1510  0.0267
46219W        W55019  17.368   7.183   9.443  0.1614 -0.0913  0.0700
46220W        W55020  30.443   3.292   0.506 -0.0256  0.0785 -0.1795
46221W        W55021  17.766   3.779   4.959  0.3361 -0.0069  0.0011
46222W        W55022   1.654   0.428   4.213 -0.2253 -0.0401 -0.0752
46223W        W55023   7.015   6.438  23.408 -0.0890  0.0001  0.1789
46224W        W55024  22.031   3.928   9.619  0.1709 -0.1185 -0.2242
46225W        W55025  23.922   6.041   7.672 -0.2808 -0.3016  0.0709
46226W        W55026  26.479   5.090  21.193 -0.1110  0.1299 -0.0047
46227W        W55027   2.029   3.303  20.937  0.0279  0.0331 -0.0425
46228W        W55028   5.939   5.263   1.374  0.2159  0.0009 -0.2203
46229W        W55029  18.687   6.435  17.590 -0.0520  0.0861 -0.1910
46230W        W55030   7.545   6.333   9.370 -0.1574  0.0340 -0.1374
46231W        W55031   0.221   0.814  16.475  0.0124  0.0757 -0.0461
46232W        W55032  19.194   0.507  18.003  0.1994  0.0634 -0.1839
46233W        W55033  14.180   7.048  23.750 -0.1075 -0.0309 -0.0813
46234W        W55034   3.478   4.720  16.499 -0.1503 -0.0239 -0.2203
46235W        W55035  13.083   3.584  10.715 -0.3148 -0.0299  0.1709
46236W        W55036  21.202   6.837   0.078  0.1583 -0.0084  0.1621
46237W        W55037   6.423   4.726  25.993  0.2050 -0.0220  0.0941
46238W        W55038  10.238   1.781  19.282  0.0998 -0.2882 -0.0348
46239W        W55039  21.869   7.239   5.120  0.0878 -0.1315  0.0173
46240W        W55040  21.412   3.704   8.791  0.1422  0.0315 -0.2832
46241W        W55041  21.614   7.780   4.012 -0.0571 -0.1420  0.1541
46242W        W55042  13.804   6.848  17.018 -0.1045  0.0260 -0.0042
46243W        W55043   1.435   1.619   7.799 -0.0072 -0.2736 -0.1925
46244W        W55044  11.806   4.478   4.123 -0.0741 -0.2685 -0.0943
46245W        W55045  11.270   3.961   0.148  0.2100 -0.3019 -0.0669
46246W        W55046  12.573   5.305  22.702  0.0071  0.1538 -0.2127
46247W        W55047   8.537   4.929   1.379  0.0063  0.2154  0.1556
46248W        W55048   5.690   1.361  11.013  0.1335  0.0214 -0.1775
46249W        W55049   5.245   0.093  11.154 -0.0327  0.0955 -0.2852
46250W        W55050  24.378   4.494  16.527 -0.0595  0.1187  0.3914
46251W        W55051  15.661   4.034  24.215 -0.1065 -0.0583 -0.0777
46252W        W55052  28.923   7.345  16.963 -0.2060 -0.0467  0.0171
46253W        W55053  31.178   1.595   1.508 -0.1698  0.2662 -0.0522
46254W        W55054  23.676   4.235  22.375 -0.0655  0.0177  0.0720
46255W        W55055  29.574   6.299  23.467  0.2004  0.0833 -0.0594
46256W        W55056  12.976   6.079  24.639 -0.0976 -0.1071 -0.2096
46257W        W55057   4.843   5.217   3.264 -0.0835 -0.1050  0.1392
46258W        W55058   8.189   0.005  23.311 -0.2753  0.0710  0.1915
46259W        W55059  26.258   5.539  22.237 -0.1500 -0.2392 -0.0751
46260W        W55060  17.063   4.792  21.119 -0.2066 -0.0510 -0.1265
46261W        W55061  26.924   6.506   7.844 -0.0521  0.2043 -0.2218
46262W        W55062   5.590   6.899   0.734  0.0725 -0.0625 -0.1409
46263W        W55063   3.760   0.752  18.737 -0.1714 -0.1980  0.0501
46264W        W55064  14.303   2.665   2.857  0.1244  0.0390 -0.1159
46265W        W55065  14.282   6.831   9.864 -0.0955  0.0450 -0.1979
46266W        W55066  11.836   2.776  21.387  0.0941  0.1405  0.0692
46267W        W55067  22.998   5.102  15.752 -0.0737 -0.1105 -0.0633
46268W        W55068   4.786   2.777   0.746  0.1539 -0.2200 -0.0374
46269W        W55069   6.167   4.354  19.653 -0.3233 -0.0560 -0.0911
46270W        W55070   9.883   5.196  15.345  0.2874  0.4128  0.1861
46271W        W55071   2.518   6.945  19.934  0.0700  0.2431  0.1034
46272W        W55072  11.077   0.872  23.158  0.0594 -0.1409 -0.1691
46273W        W55073  20.339   1.599   4.049  0.1669  0.0259 -0.1260
46274W        W55074  14.969   6.956  15.820 -0.0090  0.0305  0.0317
46275W        W55075  27.105   3.555  14.900 -0.0550 -0.0525  0.1743
46276W        W55076  22.577   6.604   0.643  0.4104  0.0117  0.1080
46277W        W55077   0.706   6.333  16.034  0.2566  0.1555  0.3406
46278W        W55078  29.115   2.930   7.393 -0.1231 -0.1299 -0.1704
46279W        W55079   1.472   1.309   8.728  0.0895 -0.1718  0.0324
46280W        W55080   6.233   6.291  20.923  0.1807 -0.3878 -0.0157
46281W        W55081  19.660   3.519   0.522 -0.0641 -0.0059  0.2528
46282W        W55082  19.508   1.529  16.607 -0.3074  0.0099 -0.1520
46283W        W55083  27.125   1.659   0.361 -0.1046 -0.3973  0.0730
46284W        W55084   5.461   4.182  15.243  0.0042  0.1703  0.1121
46285W        W55085   7.928   2.792  10.308  0.0992  0.0459  0.2171
46286W        W55086  28.422   5.901  10.653 -0.0907 -0.0984  0.1407
46287W        W55087  18.481   4.494  10.760 -0.4100 -0.4216  0.0506
46288W        W55088  14.248   4.558  24.258 -0.0081  0.0882  0.0557
46289W        W55089   3.306   2.803  21.111 -0.0622  0.2925 -0.2511
46290W        W55090  19.564   6.296  21.775 -0.0924  0.2063  0.1418
46291W        W55091  11.430   4.599  17.597 -0.1002  0.2115  0.0657
46292W        W55092  23.127   1.591  23.349  0.1258 -0.3256  0.0778
46293W        W55093  15.332   0.133  23.659  0.0319  0.3246  0.2321
46294W        W55094  28.869   7.548  23.523 -0.0660  0.0612 -0.0033
46295W        W55095  27.355   4.385  22.280  0.2098 -0.0564 -0.0637
46296W        W55096  12.868   1.205   8.050  0.2076  0.0328  0.0923
46297W        W55097   7.937   6.922  22.242 -0.1063  0.0372 -0.2383
46298W        W55098   4.887   5.835  16.872 -0.0635 -0.1753  0.0880
46299W        W55099   5.995   6.157  16.963  0.0575  0.1632  0.0559
46300W        W55100   4.681   1.912  22.450  0.0978 -0.1902 -0.0535
46301W        W55101  17.947   1.630   5.137 -0.1894 -0.1103 -0.1076
46302W        W55102   2.571   2.480   0.387  0.1326  0.1273  0.1947
46303W        W55103  21.405   0.702  25.609 -0.1150  0.3491  0.1968
46304W        W55104  17.743   0.051   2.331  0.0192  0.0262  0.1283
46305W        W55105  17.823   3.103  10.200  0.0961 -0.1624 -0.0341
46306W        W55106  13.498   1.582   3.617  0.1061 -0.2416 -0.1809
46307W        W55107   5.870   4.454  17.590  0.1690  0.0127 -0.2015
46308W        W55108   6.495   7.782  17.290 -0.0858  0.1568 -0.0964
46309W        W55109   8.928   5.616   3.144  0.3388 -0.1299 -0.0466
46310W        W55110  16.951   4.214   5.881 -0.2000  0.1183 -0.4368
46311W        W55111   3.840   4.709  17.730  0.0367 -0.1612  0.1658
46312W        W55112  15.927   3.742  25.465 -0.0451 -0.0072  0.1972
46313W        W55113  26.505   7.448   6.426 -0.0273  0.1934  0.1899
46314W        W55114   2.503   1.240   4.295 -0.0601  0.0872 -0.0644
46315W        W55115  30.660   4.325  24.005  0.0426  0.1071  0.1641
46316W        W55116  12.126   5.100   3.078 -0.0531 -0.2678  0.2099
46317W        W55117  15.933   6.385  21.592 -0.1969  0.0064 -0.1054
46318W        W55118   2.899   0.078  10.808  0.3708 -0.0433  0.1720
46319W        W55119  27.078   3.165   6.555 -0.0357  0.2048 -0.1410
46320W        W55120   8.028   4.458   5.748 -0.0690  0.1097 -0.0969
46321W        W55121   0.635   1.782   5.958  0.1010  0.1047  0.0811
46322W        W55122  16.146   1.267   1.510  0.1559  0.0883 -0.0573
46323W        W55123   2.831   0.014  21.069 -0.1195  0.1292  0.0902
46324W        W55124  31.261   1.535   3.805 -0.0900  0.0231 -0.1873
46325W        W55125  11.431   3.177  22.131 -0.0100  0.0762 -0.0267
46326W        W55126  12.484   5.476  17.115 -0.1469 -0.2016 -0.0754
46327W        W55127   7.880   6.486  23.527  0.0905 -0.0710 -0.0598
46328W        W55128  29.094   5.981  18.722 -0.0625  0.1646 -0.2357
46329W        W55129  10.881   0.283   5.412 -0.3915 -0.0742 -0.0402
46330W        W55130   6.628   4.556  25.211 -0.2310 -0.0237 -0.0335
46331W        W55131  13.130   5.240  11.144  0.0579  0.0685  0.2770
46332W        W55132  16.555   0.754  24.833  0.1022  0.0715  0.2057
46333W        W55133  31.251   3.619   8.153 -0.0974 -0.1525  0.0294
46334W        W55134  30.430   2.004   1.988  0.0215  0.0688  0.3401
46335W        W55135  16.238   2.223  10.153  0.0316 -0.1951 -0.2619
46336W        W55136   2.301   0.853  25.642  0.0171  0.0239 -0.2465
46337W        W55137  28.554   2.731  18.245  0.0535 -0.3023  0.0474
46338W        W55138   7.097   3.748   7.118  0.2873  0.3634 -0.0603
46339W        W55139   6.205   3.508   6.941  0.3464  0.1466  0.1413
46340W        W55140   0.521   0.843   1.717 -0.1072  0.0331 -0.0708
46341W        W55141  15.722   0.241   6.800 -0.0412 -0.1420 -0.2707
46342W        W55142   0.582   0.026  25.767 -0.1784  0.0814 -0.0677
46343W        W55143  13.748   1.907  15.693  0.0195 -0.1896  0.1265
46344W        W55144  12.198   1.532   5.000 -0.0903  0.1143 -0.1339
46345W        W55145   6.702   1.704   7.446 -0.1065 -0.1598  0.4366
46346W        W55146   5.036   7.538  16.327 -0.1319 -0.0111 -0.0483
46347W        W55147   3.689   2.083   2.426 -0.0947  0.1351 -0.0306
46348W        W55148  16.276   0.240  22.415  0.0772  0.0575  0.3230
46349W        W55149   2.761   0.814  24.212  0.3279 -0.3505 -0.1016
46350W        W55150  15.911   2.110   2.933 -0.1139 -0.2936 -0.0014
46351W        W55151  10.235   5.014   8.466  0.1904 -0.1130 -0.1956
46352W        W55152  11.183   5.871   7.953 -0.0533 -0.4487 -0.0325
46353W        W55153  30.239   3.445   0.017 -0.0295  0.2867 -0.2425
46354W        W55154  10.487   3.903  17.007 -0.1776  0.1407 -0.4890
46355W        W55155   3.421   2.113  23.918  0.0603 -0.1224  0.0409
46356W        W55156   6.866   3.471   7.538  0.0965 -0.1107 -0.4116
46357W        W55157  30.655   1.411  20.671  0.1740 -0.3376 -0.2414
46358W        W55158  16.999   4.169   9.688  0.0636  0.2875  0.0306
46359W        W55159   6.490   1.501  15.652 -0.0276 -0.0665  0.0248
46360W        W55160   0.404   4.692  16.783 -0.0311 -0.1091  0.0761
46361W        W55161   7.967   4.618  25.326 -0.2218 -0.0165 -0.1546
46362W        W55162   4.467   2.826  25.817 -0.2991 -0.0500 -0.5020
46363W        W55163  16.664   0.954  18.190 -0.2523 -0.3201  0.1971
46364W        W55164  27.260   5.816  19.528 -0.0051  0.0813 -0.0295
46365W        W55165  27.247   2.705  21.848 -0.1735 -0.1438  0.2018
46366W        W55166  21.900   3.465  17.831  0.2471 -0.0197  0.1245
46367W        W55167   0.794   5.554  18.210 -0.4165  0.3354 -0.0670
46368W        W55168   0.421   3.403   2.320 -0.2976 -0.0231 -0.0733
46369W        W55169  29.287   3.337  25.878 -0.1170 -0.0727 -0.1046
46370W        W55170  15.922   0.197  16.781  0.1618 -0.1630 -0.2515
46371W        W55171   2.913   5.095  18.042  0.1149  0.2627  0.2848
46372W        W55172  20.399   5.779  16.745  0.0955 -0.3503  0.2288
46373W        W55173  17.693   2.389   7.744  0.0614 -0.1019  0.1285
46374W        W55174  14.411   1.822   3.927  0.0345  0.1184  0.0624
46375W        W55175  11.509   3.191   3.060  0.1184  0.1181 -0.3772
46376W        W55176   3.063   1.457   1.133 -0.0979 -0.0204  0.1989
46377W        W55177  18.770   0.640  15.772 -0.1091 -0.1096  0.0260
46378W        W55178   2.286   7.188  19.549 -0.2450 -0.2355 -0.0331
46379W        W55179   7.331   0.324  16.513  0.1836  0.0187 -0.1904
46380W        W55180  16.134   5.830   5.952 -0.0807 -0.5023 -0.0255
46381W        W55181  28.213   4.057  24.450  0.0593  0.0321  0.2216
46382W        W55182   8.958   3.291   9.165 -0.2995 -0.0028  0.1233
46383W        W55183   0.173   4.559  11.002  0.1226  0.2328  0.0259
46384W        W55184   0.417   6.189  20.031  0.2481 -0.1070  0.2805
46385W        W55185  26.621   3.861  17.442  0.0294 -0.1637  0.0568
46386W        W55186   1.221   0.565  22.396  0.0333 -0.1420 -0.0909
46387W        W55187  28.464   1.157   0.028 -0.0945 -0.0206 -0.0125
46388W        W55188   6.435   1.832   4.775  0.1952 -0.0495 -0.2280
46389W        W55189  23.138   1.769   0.363  0.1945  0.0490 -0.1194
46390W        W55190  24.455   5.602  20.812 -0.0517  0.0002  0.0799
46391W        W55191  20.231   1.525  24.706 -0.0572 -0.1767  0.1788
46392W        W55192   3.295   0.327   2.952  0.1073 -0.2403  0.2085
46393W        W55193  18.516   6.203   6.892 -0.2680  0.0995  0.4853
46394W        W55194   2.398   4.719   6.871 -0.1592  0.1594  0.1217
46395W        W55195   2.621   3.124  10.501  0.1230 -0.3327 -0.4762
46396W        W55196  19.482   5.121  24.720  0.0414 -0.1538 -0.0795
46397W        W55197  27.173   2.370  24.147  0.2741 -0.2355  0.2577
46398W        W55198  20.114   4.292  25.536  0.1635 -0.2085 -0.0611
46399W        W55199   3.224   2.399   4.789  0.1404  0.2062 -0.1868
46400W        W55200  25.817   0.508   5.758  0.0646  0.1165  0.4436
46401W        W55201   0.696   3.909  10.028  0.1087  0.1284 -0.0293
46402W        W55202  13.325   6.494   5.849 -0.0731  0.1201 -0.1478
46403W        W55203   5.462   7.303  10.240  0.1776  0.1038  0.2009
46404W        W55204  20.730   4.833   7.138 -0.0497  0.2398  0.0179
46405W        W55205  25.608   0.505   7.027 -0.0450  0.0820 -0.0372
46406W        W55206   4.297   5.762   1.981  0.1133  0.2947 -0.1060
46407W        W55207  28.525   0.452   6.468  0.0457  0.3566 -0.2879
46408W        W55208  28.540   0.997   0.750 -0.0903  0.2092 -0.0126
46409W        W55209  10.357   3.726  26.159 -0.1599  0.0685  0.1814
46410W        W55210  27.536   4.071  18.451 -0.3370 -0.1575  0.0742
46411W        W55211  14.758   0.553   8.500 -0.1005 -0.1734  0.1288
46412W        W55212   7.908   6.325  15.755 -0.0171  0.1588  0.3066
46413W        W55213   9.254   2.483  18.008  0.2382 -0.3514 -0.3298
46414W        W55214  16.787   3.637   8.842  0.0110 -0.2485 -0.0646
46415W        W55215  29.742   2.340  10.135  0.0178 -0.3667 -0.2468
46416W        W55216  18.712   5.334   3.920 -0.0335  0.0348 -0.0931
46417W        W55217  22.818   0.222   0.292 -0.0936 -0.0371 -0.1172
46418W        W55218  15.705   4.839  10.238  0.1944 -0.3247  0.1436
46419W        W55219  26.920   6.197  18.888 -0.1518  0.0025  0.1049
46420W        W55220   4.122   4.026   6.485 -0.0771  0.0546 -0.1004
46421W        W55221  23.567   6.375   3.488  0.0810 -0.0722 -0.1076
46422W        W55222  14.331   7.049  18.673 -0.4974  0.1030  0.0584
46423W        W55223   3.003   6.480   4.020 -0.1988 -0.0326 -0.2357
46424W        W55224  23.779   1.831   4.741 -0.1979 -0.2399  0.2350
46425W        W55225  14.239   6.697  10.459  0.1019 -0.0393 -0.1784
46426W        W55226   4.593   1.091   0.448  0.3611  0.1483  0.0367
46427W        W55227   5.411   5.185   1.237  0.0542 -0.2125  0.3922
46428W        W55228  17.343   5.995  21.561 -0.1681 -0.1809 -0.0536
46429W        W55229  23.331   1.807   1.928  0.0094 -0.1046 -0.0092
46430W        W55230  20.288   5.422  15.114 -0.1410  0.0384  0.0091
46431W        W55231   3.351   4.069  25.443 -0.1588  0.2249  0.1501
46432W        W55232  18.766   3.718  23.937 -0.1202  0.2491 -0.0269
46433W        W55233   6.204   2.645  16.989 -0.1462  0.1080  0.1956
46434W        W55234   5.364   5.365  20.041 -0.2514  0.1238 -0.1292
46435W        W55235   4.676   2.369   1.531 -0.0926  0.2987  0.0224
46436W        W55236   9.243   7.153  17.178  0.0755  0.2472  0.1145
46437W        W55237  17.228   7.454  21.828  0.1063  0.0482  0.2109
46438W        W55238   5.501   5.867   4.781  0.4827 -0.2617  0.0154
46439W        W55239  24.791   2.621  22.342 -0.0854  0.0894 -0.1478
46440W        W55240  20.391   7.183  15.031 -0.0978  0.2138  0.2997
46441W        W55241  14.035   0.840  22.781 -0.1348  0.1159  0.0532
46442W        W55242  22.220   3.359  16.613 -0.0198 -0.0710 -0.0156
46443W        W55243   1.695   7.050   0.576  0.2264  0.0383  0.2413
46444W        W55244  18.181   4.229   9.502  0.1345 -0.0419 -0.0760
46445W        W55245  28.954   4.800  10.875 -0.3091  0.2829 -0.2974
46446W        W55246  14.238   3.221  23.783  0.0128 -0.0505  0.4447
46447W        W55247   2.072   7.756  22.790  0.2322  0.2193 -0.1087
46448W        W55248  24.893   4.770  25.243  0.0017  0.2376  0.0855
46449W        W55249  14.932   7.403   3.470 -0.1956 -0.1523 -0.2931
46450W        W55250   2.232   4.196  17.073  0.1769 -0.1788 -0.1880
46451W        W55251  20.970   6.373  15.558  0.1099 -0.1625 -0.0981
46452W        W55252  29.472   2.947  10.955  0.3534  0.0584 -0.0586
46453W        W55253  28.770   1.502  21.216  0.1284 -0.2222 -0.0924
46454W        W55254  28.569   1.558   4.830 -0.0742  0.1752 -0.3642
46455W        W55255  30.373   4.849  22.242  0.1965 -0.1030 -0.0636
46456W        W55256  13.881   3.361   1.581 -0.2260 -0.0469  0.2953
46457W        W55257   5.074   5.350  17.032  0.1888 -0.2325 -0.0685
46458W        W55258   4.175   6.205  23.156  0.0998 -0.1140  0.2135
46459W        W55259  14.835   2.568  16.247  0.0863  0.0651  0.0282
46460W        W55260   0.787   5.620  15.760  0.0534 -0.1413  0.2514
46461W        W55261  19.650   1.262   0.358 -0.3152 -0.4083 -0.1379
46462W        W55262  12.297   2.272   0.494  0.0964 -0.0070  0.1115
46463W        W55263  26.714   2.735   3.923  0.1834 -0.2720  0.2161
46464W        W55264  29.149   4.555  18.327  0.2687  0.1283 -0.2685
46465W        W55265  15.538   5.373   7.185 -0.1363 -0.0494 -0.0015
46466W        W55266  25.748   3.234  24.796 -0.1313  0.1159  0.1255
46467W        W55267   4.627   0.448   1.758 -0.1802  0.0882 -0.1976
46468W        W55268  25.082   2.870  17.866  0.0995 -0.1977 -0.1077
46469W        W55269  23.391   3.192   4.148  0.3126  0.0703 -0.1688
46470W        W55270  10.620   6.189  22.881 -0.0162  0.0997 -0.1356
46471W        W55271  18.654   6.771   2.896 -0.0923 -0.1664 -0.1635
46472W        W55272  10.710   2.565  16.758  0.0618  0.3484 -0.1649
46473W        W55273  19.078   7.504  16.356  0.0039  0.0527 -0.3091
46474W        W55274  30.120   4.608  19.898 -0.0055 -0.1768  0.0076
46475W        W55275  21.394   5.852  15.044  0.2596 -0.1432 -0.1942
46476W        W55276  22.734   4.099   0.879  0.0368 -0.2695  0.1321
46477W        W55277  18.594   5.207   9.643  0.1807  0.0374  0.0627
46478W        W55278   2.833   1.046  10.736  0.0344 -0.1505  0.2554
46479W        W55279   6.587   5.005  19.073 -0.1039 -0.3455 -0.0341
46480W        W55280  10.523   2.681   5.488 -0.7161 -0.1600 -0.1302
46481W        W55281  25.374   6.550  22.036  0.2547  0.1188 -0.1508
46482W        W55282  20.043   4.258  26.093 -0.3065  0.1639 -0.1248
46483W        W55283   9.154   0.825  20.621 -0.0078  0.6617 -0.1229
46484W        W55284  18.385   3.460  23.142  0.1432  0.2415 -0.0396
46485W        W55285  11.366   1.347   7.184  0.0901 -0.1657 -0.0853
46486W        W55286  12.670   4.070  23.305  0.2096 -0.2262 -0.1706
46487W        W55287  20.714   2.051   9.841 -0.3796  0.1246 -0.0064
46488W        W55288  25.531   5.530  19.631  0.1184 -0.0272  0.0479
46489W        W55289   0.717   4.531  17.816 -0.2144  0.0414  0.1521
46490W        W55290   6.103   2.866   7.657 -0.4093  0.0618 -0.0918
46491W        W55291   5.336   5.029  22.377 -0.1261 -0.2644 -0.2383
46492W        W55292  16.150   5.134  19.548  0.0417 -0.1315 -0.0317
46493W        W55293   4.016   6.304   9.264 -0.0214 -0.0199 -0.0974
46494W        W55294   3.683   3.898  22.901  0.1199  0.0655  0.0274
46495W        W55295   4.795   5.608  10.169  0.0472  0.1057 -0.1609
46496W        W55296  12.918   1.380  17.465  0.1120  0.1140  0.1208
46497W        W55297   9.249   1.202   3.308 -0.0936  0.1654 -0.1329
46498W        W55298   2.916   7.361   5.809  0.0671  0.1214 -0.0065
46499W        W55299  30.399   2.806  17.057 -0.2322  0.0875  0.1053
46500W        W55300   6.685   5.718   0.964  0.0622 -0.1043 -0.0310
46501W        W55301  13.245   7.192   6.603  0.2019  0.3238 -0.1591
46502W        W55302  15.107   4.554  10.279  0.1439 -0.0131  0.0587
46503W        W55303   0.554   3.453  16.679 -0.1375 -0.0118  0.0772
46504W        W55304  25.400   4.423   1.760 -0.0199 -0.0705 -0.1142
46505W        W55305   8.748   1.548  15.998  0.3310  0.1929  0.0245
46506W        W55306  20.864   6.863  21.092  0.3036  0.1859  0.0316
46507W        W55307   7.524   1.610  19.834  0.0035 -0.0518  0.1830
46508W        W55308   4.155   7.548  25.941  0.1827 -0.2757  0.0760
46509W        W55309  13.967   0.287   6.558  0.1571  0.2233  0.1234
46510W        W55310  14.039   3.523  22.468  0.3173 -0.1738 -0.0542
46511W        W55311   1.292   5.248   3.274  0.0657  0.3050  0.2685
46512W        W55312   6.988   5.762  16.138 -0.0587  0.0890 -0.2136
46513W        W55313  24.814   1.484  23.724 -0.0381 -0.2996  0.0021
46514W        W55314  19.294   6.070   2.804  0.2376  0.0828  0.0452
46515W        W55315   4.784   2.545   4.214 -0.0312  0.0789 -0.1118
46516W        W55316  29.597   1.380   6.571 -0.3204 -0.1808  0.0166
46517W        W55317  25.902   4.573  14.868 -0.1241  0.4978  0.2326
46518W        W55318  27.009   3.558  22.296 -0.0617  0.2874  0.0503
46519W        W55319   5.291   0.456   0.980  0.0863  0.0664  0.1248
46520W        W55320  27.246   0.687   1.984  0.0957 -0.0474  0.2853
46521W        W55321  22.203   0.214   0.978  0.1538  0.1447 -0.1048
46522W        W55322  11.017   6.046  16.139 -0.2579 -0.4879 -0.3686
46523W        W55323   3.305   0.616  18.982  0.2048  0.1206  0.1058
46524W        W55324   9.755   0.165  25.359 -0.1230 -0.1505 -0.1066
46525W        W55325   6.332   3.640   1.163  0.2227 -0.1295  0.1760
46526W        W55326   0.982   0.369  23.897 -0.1340 -0.0254 -0.1938
46527W        W55327  12.716   2.503   6.237  0.0069 -0.2227  0.0787
46528W        W55328  11.876   2.838  17.287 -0.1442  0.4350 -0.1835
46529W        W55329  20.249   5.549  10.613 -0.0460  0.1802 -0.0047
46530W        W55330   4.617   3.866   4.879 -0.3188 -0.0203 -0.1756
46531W        W55331   8.112   7.456   3.952  0.3097 -0.2669 -0.1837
46532W        W55332   4.560   7.073  20.864 -0.0050  0.3245 -0.2810
46533W        W55333   8.303   5.489   8.598  0.2236  0.0454  0.0221
46534W        W55334  12.790   4.805   2.236 -0.0557 -0.3223 -0.1118
46535W        W55335  22.166   1.749   5.199 -0.1083 -0.2049  0.2952
46536W        W55336   1.334   4.781   3.421  0.1319 -0.1030  0.2354
46537W        W55337  11.263   0.390  23.076  0.3509  0.0857  0.4731
46538W        W55338  24.564   5.361  19.456  0.0558 -0.2314  0.0880
46539W        W55339  11.684   3.381  16.866  0.3529 -0.4003  0.0336
46540W        W55340  14.033   4.264   6.079  0.0394  0.1805 -0.0083
46541W        W55341  11.452   3.220   7.563 -0.0039 -0.1033 -0.3078
46542W        W55342  22.662   6.606   7.805 -0.2601 -0.0492 -0.1280
46543W        W55343  28.375   0.649  16.398  0.0473 -0.1818 -0.1545
46544W        W55344  30.442   6.554  24.980  0.0820 -0.0119  0.1058
46545W        W55345  22.983   4.640  24.124 -0.0330 -0.1148 -0.0881
46546W        W55346   1.965   1.413   5.789 -0.0589 -0.0187  0.1752
46547W        W55347  24.649   1.133   3.227  0.0593 -0.1086  0.0990
46548W        W55348   3.186   4.417   1.566 -0.1378 -0.0398 -0.1702
46549W        W55349  20.163   7.696   5.345  0.2831  0.0156  0.0030
46550W        W55350  18.042   1.338  19.751  0.2167  0.0299 -0.0122
46551W        W55351  27.486   2.110  19.901  0.1969  0.1730 -0.0784
46552W        W55352  23.552   6.209   0.899 -0.2360 -0.0451 -0.3108
46553W        W55353   7.215   5.905  21.543  0.1393  0.1668  0.3167
46554W        W55354  30.361   4.466   2.298 -0.0918 -0.0138 -0.2499
46555W        W55355  15.875   5.156  20.901  0.2433 -0.0842 -0.1074
46556W        W55356  12.838   5.553   1.316 -0.2917 -0.0320 -0.1300
46557W        W55357  24.438   6.330  17.855  0.0594  0.0247  0.1088
46558W        W55358   6.518   3.558  15.842  0.0057  0.3107  0.1201
46559W        W55359  25.624   6.460  18.532  0.0707  0.0935 -0.0691
46560W        W55360   8.009   1.373  20.602 -0.2048  0.2636 -0.0607
46561W        W55361   2.811   4.950   8.331 -0.0031  0.0616 -0.0098
46562W        W55362  26.859   1.849   5.885  0.0584 -0.0670 -0.0324
46563W        W55363   3.269   2.289  25.779  0.2982 -0.1629 -0.2589
46564W        W55364  26.777   2.586  17.694 -0.0760  0.2544 -0.2075
46565W        W55365  23.050   1.303   4.859  0.0409  0.1445 -0.1460
46566W        W55366  24.100   0.934  21.128  0.1032 -0.3366  0.1015
46567W        W55367   4.927   0.704  18.514 -0.3545 -0.2343 -0.0566
46568W        W55368  18.734   1.755   2.223  0.1308 -0.2789 -0.1362
46569W        W55369  14.402   2.891  22.319 -0.1954  0.0567  0.0316
46570W        W55370  22.742   0.493  25.131 -0.1136  0.3053  0.1196
46571W        W55371  22.135   0.690  23.093 -0.2059 -0.2441 -0.2422
46572W        W55372  24.489   0.176   9.780  0.2085  0.0281  0.1666
46573W        W55373   3.403   3.065   0.200 -0.0092 -0.0662 -0.0014
46574W        W55374  14.687   1.933  20.412  0.2758  0.0709  0.1147
46575W        W55375   2.409   3.408   9.661 -0.0829 -0.0467  0.3680
46576W        W55376  29.498   5.976   3.745 -0.0818  0.4571 -0.1832
46577W        W55377  18.842   5.163   9.210  0.2317  0.3709  0.1638
46578W        W55378  22.052   1.821  25.771  0.0250  0.0158 -0.1048
46579W        W55379  19.101   1.216  18.839  0.3116 -0.2238 -0.1351
46580W        W55380  28.904   3.872  19.730  0.0980 -0.0020 -0.2667
46581W        W55381  18.275   7.011  24.331  0.2217 -0.1730 -0.2688
46582W        W55382  18.276   2.861   0.355 -0.1079 -0.4263  0.0058
46583W        W55383  14.303   6.411  17.442 -0.3994  0.1602  0.0358
46584W        W55384   3.662   0.257   8.678 -0.2478 -0.2270 -0.0326
46585W        W55385   4.209   7.551  11.830 -0.0218  0.0411  0.2611
46586W        W55386   1.226   4.455  17.912 -0.2855  0.1363  0.1281
46587W        W55387   7.663   2.078  19.936  0.0289  0.1058 -0.1668
46588W        W55388  17.956   3.652   8.701  0.0983  0.1559 -0.0158
46589W        W55389  25.312   1.227   0.179 -0.2461 -0.1048  0.0709
46590W        W55390   4.504   5.670  25.958 -0.1206 -0.2110  0.1180
46591W        W55391  29.363   2.141  10.591 -0.0040  0.0693  0.2375
46592W        W55392  14.283   6.742  17.125 -0.2004 -0.0276  0.0908
46593W        W55393  30.404   7.049   6.637 -0.3966 -0.0382 -0.1971
46594W        W55394  12.175   2.647  16.049  0.2886 -0.0109 -0.1438
46595W        W55395   3.460   5.448   1.175  0.0065  0.0257 -0.0399
46596W        W55396  27.228   0.346  17.062 -0.2126 -0.0553 -0.1997
46597W        W55397  18.322   4.100   4.861 -0.0217 -0.2390  0.2052
46598W        W55398   3.737   5.860  11.808  0.1419 -0.1816  0.0197
46599W        W55399  18.243   1.881   6.170  0.0805  0.1738 -0.1312
46600W        W55400  13.087   2.697  18.751 -0.0069 -0.3517 -0.1689
46601W        W55401  11.162   1.241  17.378 -0.1105 -0.0575  0.1652
46602W        W55402   9.614   0.817  17.161  0.1871  0.2560  0.0279
46603W        W55403  25.410   1.827  21.033  0.1508  0.0397 -0.0842
46604W        W55404  20.716   0.946  19.826  0.3844  0.1166  0.2119
46605W        W55405   5.968   0.967   2.280 -0.1457 -0.1507 -0.2553
46606W        W55406  28.630   4.662  22.132 -0.1647  0.0793 -0.1840
46607W        W55407  22.255   2.429   9.469  0.1214 -0.2468 -0.1249
46608W        W55408  17.174   2.424   7.921 -0.0730 -0.1291 -0.0504
46609W        W55409  16.227   3.358  17.086 -0.0455 -0.0917  0.2011
46610W        W55410  28.648   4.710  18.190 -0.0289 -0.3762  0.2343
46611W        W55411  25.738   1.179  24.279  0.1878 -0.0984 -0.1534
46612W        W55412   2.412   6.108  18.684 -0.2241 -0.2366 -0.0526
46613W        W55413  25.414   7.684  24.905 -0.0467  0.1998  0.1391
46614W        W55414  12.277   6.084   3.839  0.0628  0.1020 -0.0405
46615W        W55415  27.656   2.173   3.462 -0.1658 -0.2796  0.1796
46616W        W55416  28.714   3.758   9.139 -0.0911  0.0865 -0.4623
46617W        W55417  20.491   0.670  15.645 -0.1047  0.2366 -0.2890
46618W        W55418   4.774   0.442  25.750 -0.2764 -0.3904 -0.0879
46619W        W55419   6.698   4.803   4.285 -0.0544  0.0801 -0.1130
46620W        W55420   5.326   5.257  24.264 -0.0303 -0.0626 -0.0284
46621W        W55421  16.024   6.895   9.149  0.1233 -0.0594 -0.3081
46622W        W55422   8.192   4.217  22.441  0.0902  0.1433  0.0161
46623W        W55423  11.268   7.018  19.444 -0.1346 -0.1505 -0.0879
46624W        W55424   9.093   0.046   1.529  0.1085  0.2900  0.2871
46625W        W55425   9.925   6.822  16.535  0.1508  0.1259  0.2199
46626W        W55426  15.519   1.367   0.376  0.0027 -0.0124 -0.0126
46627W        W55427   3.340   3.138  22.267  0.4087 -0.2882 -0.0944
46628W        W55428  21.470   1.243   6.384 -0.3005  0.2778 -0.0118
46629W        W55429   9.972   4.095  20.607  0.1604 -0.2067  0.1482
46630W        W55430  29.803   6.740  22.537 -0.0484 -0.0541  0.1959
46631W        W55431   5.025   1.503   5.141  0.1048  0.0023 -0.0131
46632W        W55432  30.106   1.545  20.388  0.0544  0.2517 -0.3765
46633W        W55433   0.466   4.512  20.494  0.2138 -0.2026 -0.3052
46634W        W55434  15.059   4.939   3.863 -0.1005 -0.0692  0.0076
46635W        W55435   2.437   4.782  21.686 -0.1130 -0.1381  0.2593
46636W        W55436  28.835   2.245  24.643 -0.0322 -0.1629  0.0451
46637W        W55437  19.704   4.178  18.725  0.0349 -0.2320  0.2642
46638W        W55438   5.731   6.194  22.762 -0.0642 -0.0026 -0.0622
46639W        W55439  26.931   5.963   3.220  0.0271 -0.1329  0.1921
46640W        W55440  16.763   7.496  20.041 -0.0175  0.0492 -0.2115
46641W        W55441   0.905   1.085  11.229 -0.1752  0.0578  0.1752
46642W        W55442  14.572   7.708   6.387  0.1200 -0.0916 -0.0868
46643W        W55443   8.910   3.527  21.886  0.0196  0.0800 -0.0520
46644W        W55444   1.346   2.094   7.635  0.1573  0.1350 -0.0823
46645W        W55445  10.020   0.617  23.597  0.0626 -0.2812 -0.0337
46646W        W55446  24.199   3.393   2.615 -0.0567 -0.0142  0.3029
46647W        W55447   6.685   3.320   8.924  0.0723 -0.0221  0.0881
46648W        W55448   7.186   0.819   9.390 -0.0589 -0.0078  0.0981
46649W        W55449  14.873   6.685  24.107 -0.1577  0.1423 -0.0387
46650W        W55450  18.851   1.491  14.437 -0.1382 -0.2194 -0.1995
46651W        W55451  21.354   5.800  16.619  0.1094  0.2792 -0.1062
46652W        W55452  18.900   2.073  17.605  0.0759  0.1449  0.1352
46653W        W55453   0.108   6.121   2.400  0.0576 -0.3527 -0.2405
46654W        W55454   4.139   6.486  24.804  0.4487 -0.3434 -0.0472
46655W        W55455   5.998   5.603  10.651 -0.0881 -0.0735 -0.2099
46656W        W55456  23.833   4.414   1.818  0.3013 -0.1421  0.0118
46657W        W55457   0.330   1.902  24.004 -0.0774 -0.2870  0.3663
46658W        W55458   4.796   1.895  11.118  0.1544  0.1145 -0.1237
46659W        W55459  13.476   7.418   5.970 -0.1100  0.2523  0.0828
46660W        W55460   1.389   5.929   5.478 -0.2142  0.2801 -0.0407
46661W        W55461   7.844   5.611  10.143 -0.2300  0.1099  0.2957
46662W        W55462   2.575   2.914  17.183  0.1306  0.1560 -0.3027
46663W        W55463  15.279   2.327   3.727 -0.1189  0.2975 -0.1761
46664W        W55464  30.351   0.171  25.989 -0.0302 -0.4281 -0.2354
46665W        W55465   9.284   6.330  17.411 -0.0576 -0.2863 -0.1767
46666W        W55466  28.338   6.966   5.989 -0.4184  0.3789  0.0271
46667W        W55467  23.165   6.171  14.992  0.3256 -0.2947  0.0299
46668W        W55468  16.921   6.237  19.587 -0.0797 -0.3407  0.1929
46669W        W55469  24.423   3.525   1.859  0.0367 -0.0768 -0.2526
46670W        W55470   6.496   3.083   3.350 -0.1103 -0.0202 -0.0419
46671W        W55471  29.764   0.446  25.002  0.0107  0.0349 -0.2611
46672W        W55472  23.903   0.871   9.294  0.2460  0.0811  0.4660
46673W        W55473  22.627   5.949  17.938  0.0094 -0.2205 -0.1884
46674W        W55474  12.254   6.957  16.219  0.1789 -0.2792  0.0510
46675W        W55475  28.272   7.074   2.907  0.1793 -0.2738 -0.2793
46676W        W55476  19.359   0.071   6.994  0.1023  0.4450 -0.0114
46677W        W55477   1.883   0.143   9.185 -0.0647 -0.0593  0.0486
46678W        W55478   8.035   6.982   4.899  0.1786 -0.2583 -0.0718
46679W        W55479   5.092   4.623  21.819  0.1785 -0.1848 -0.0722
46680W        W55480   4.378   3.806  16.177  0.2804 -0.0734 -0.1499
46681W        W55481  20.946   0.900   5.029  0.0826 -0.0450 -0.0272
46682W        W55482  28.118   6.171   4.706 -0.0124 -0.1991  0.3356
46683W        W55483   3.756   2.838   3.186 -0.1986  0.4147  0.0159
46684W        W55484  10.192   6.951  22.137  0.0831 -0.1476 -0.3405
46685W        W55485  21.827   1.764   5.579  0.0948  0.1284 -0.1644
46686W        W55486  12.318   4.780  23.718 -0.1480 -0.0975  0.0420
46687W        W55487   8.763   1.053   4.614  0.0671 -0.1468  0.0110
46688W        W55488  11.925   6.200  25.897 -0.0479  0.2172  0.2717
46689W        W55489  28.510   2.178  21.672 -0.2325 -0.2786 -0.1463
46690W        W55490  24.869   4.846  21.750  0.0641  0.1590 -0.0045
46691W        W55491  17.808   2.832   5.880 -0.1283 -0.2539  0.1071
46692W        W55492  14.954   6.737  17.844  0.0839 -0.4156 -0.0530
46693W        W55493   1.827   5.671   2.490 -0.0083 -0.1011  0.0342
46694W        W55494   6.997   0.550  19.034 -0.0762 -0.0706  0.0552
46695W        W55495   1.074   4.142  23.124  0.1098  0.3581 -0.0860
46696W        W55496  18.532   6.996   9.910 -0.0070  0.4239 -0.0320
46697W        W55497  21.355   5.718   6.336  0.1650 -0.0645  0.2801
46698W        W55498  19.459   1.122  22.543  0.0147 -0.0506 -0.3382
46699W        W55499  16.093   5.641   1.818  0.0938 -0.0900  0.0041
46700W        W55500  11.382   4.042  20.686  0.2641 -0.0951  0.0248
46701W        W55501  12.315   0.322   8.234  0.0471 -0.1460 -0.0977
46702W        W55502  12.728   0.902  17.524 -0.2071 -0.4535 -0.0763
46703W        W55503  30.953   5.774  25.526 -0.0425  0.2357  0.1515
46704W        W55504  22.196   2.372   2.469  0.1787 -0.2370 -0.2809
46705W        W55505  20.592   4.322   1.309  0.1171  0.2924  0.1343
46706W        W55506  23.653   2.543   2.643 -0.2429  0.1121 -0.1796
46707W        W55507  28.989   6.741  16.337 -0.0985 -0.1721  0.0268
46708W        W55508  27.040   6.797   3.437  0.2759 -0.1738 -0.1691
46709W        W55509   3.552   5.529  20.917  0.0615 -0.1344  0.0033
46710W        W55510  14.191   4.146   1.267  0.1799  0.3075 -0.0567
46711W        W55511   2.836   6.850  20.363 -0.0118 -0.1009 -0.5074
46712W        W55512   0.124   0.126  23.975  0.1698 -0.1134  0.0679
46713W        W55513  21.876   7.571   7.453 -0.0679  0.1226  0.1879
46714W        W55514  24.863   7.347  23.067  0.0477 -0.1620  0.3253
46715W        W55515  16.685   7.205  17.821  0.1064 -0.1344 -0.0633
46716W        W55516   7.721   0.070  22.116 -0.2050  0.3913  0.0728
46717W        W55517  16.765   6.496  20.441  0.1728 -0.1051  0.2658
46718W        W55518   3.327   3.031  24.552  0.0992 -0.1246 -0.1844
46719W        W55519  17.403   3.844  15.896  0.1497  0.3081  0.1945
46720W        W55520   0.634   2.829  17.761 -0.1268  0.3029 -0.2236
46721W        W55521   5.321   2.904   8.016  0.0192  0.0860 -0.0726
46722W        W55522  15.154   3.179   0.172 -0.1184  0.0611 -0.2213
46723W        W55523   1.127   7.078  24.980  0.0084  0.0170 -0.3779
46724W        W55524   8.089   3.488  19.659 -0.1903  0.0210  0.0831
46725W        W55525  25.252   2.043   7.097 -0.0553  0.2607 -0.1445
46726W        W55526  16.587   5.575   9.283  0.1199  0.1630  0.0853
46727W        W55527  10.723   3.832   3.602  0.0631  0.3645  0.1333
46728W        W55528  24.835   4.073  24.739  0.1558  0.1121  0.0492
46729W        W55529   0.762   5.321  24.333 -0.2037 -0.0704  0.1289
46730W        W55530   2.954   5.182  10.490  0.0311 -0.2191 -0.2165
46731W        W55531  14.188   4.441   4.490  0.2298 -0.2032  0.0228
46732W        W55532  16.945   2.469  25.149  0.2525  0.2052 -0.3049
46733W        W55533  27.388   2.171  18.478 -0.2109  0.2277 -0.2297
46734W        W55534  22.812   0.271  23.286  0.0804  0.0120  0.0182
46735W        W55535   0.729   2.528   9.434  0.1603 -0.4791 -0.0835
46736W        W55536  15.348   4.090   3.137 -0.0937 -0.0078 -0.0327
46737W        W55537  16.891   0.117   8.965 -0.0300  0.1095 -0.1475
46738W        W55538   6.467   6.874   7.337  0.1242 -0.0209  0.0271
46739W        W55539   5.167   5.302  10.559  0.0747 -0.3801  0.3280
46740W        W55540  13.080   0.235  26.184  0.2420  0.0686  0.0935
46741W        W55541   3.543   3.790   9.071  0.1836 -0.2422  0.0384
46742W        W55542  19.329   4.850  19.748 -0.0688  0.2892  0.1964
46743W        W55543   9.597   1.927   5.480 -0.3384 -0.0646  0.2067
46744W        W55544   3.727   2.044  19.748  0.0877  0.0210  0.0319
46745W        W55545  23.657   7.275  25.090  0.0093 -0.0154 -0.2927
46746W        W55546  13.348   7.282   5.074 -0.1141 -0.0988 -0.1199
46747W        W55547  19.558   5.598  24.607 -0.1701  0.0026 -0.2667
46748W        W55548   9.340   5.172   5.975 -0.3206 -0.1286  0.1768
46749W        W55549  15.084   3.557  10.719  0.4836  0.2979 -0.1936
46750W        W55550   9.385   1.283   1.276  0.0058  0.1223  0.3276
46751W        W55551  11.286   7.153  14.446 -0.1312 -0.4376 -0.1967
46752W        W55552  29.418   2.476   1.010  0.3469 -0.0163 -0.1556
46753W        W55553  11.397   2.705  16.059 -0.0542 -0.1467 -0.2866
46754W        W55554   8.663   3.125  17.997 -0.1284  0.0619 -0.1701
46755W        W55555  23.455   3.401   4.728  0.0491  0.0118  0.3051
46756W        W55556  22.967   4.584  16.245  0.1159 -0.0032 -0.2348
46757W        W55557  17.038   2.096  20.394 -0.1478 -0.3470  0.1781
46758W        W55558   4.825   7.612  21.942 -0.0061 -0.2978 -0.0961
46759W        W55559   6.381   5.061   4.071  0.0949  0.1794 -0.1270
46760W        W55560  28.025   4.926   6.010  0.2393  0.1131  0.2096
46761W        W55561  19.254   1.517   7.859 -0.0375  0.0566  0.2050
46762W        W55562  23.862   5.867  22.040  0.2166  0.0833  0.0513
46763W        W55563  23.409   0.508   2.912  0.1171  0.0713  0.1167
46764W        W55564  13.762   6.734  25.348  0.2312  0.0133 -0.2301
46765W        W55565  25.441   2.672   1.589 -0.0619  0.2256  0.1266
46766W        W55566  11.258   4.079   4.609 -0.0913  0.0244  0.0171
46767W        W55567  28.352   1.787  21.489  0.1689  0.0964 -0.0031
46768W        W55568  18.024   5.566   9.955  0.1082 -0.2989  0.0797
46769W        W55569  27.826   2.817   8.531  0.0729  0.3446 -0.0959
46770W        W55570  21.260   0.799   6.024  0.2387 -0.0137 -0.0882
46771W        W55571   4.043   3.020  26.075  0.0429  0.0615  0.0431
46772W        W55572  14.484   2.663   4.340  0.0872  0.3024  0.0487
46773W        W55573  22.575   7.787   7.053 -0.0453  0.0382  0.1605
46774W        W55574  17.480   2.001  22.472  0.3532 -0.1005 -0.0550
46775W        W55575  20.681   1.295   5.280 -0.3534  0.1337  0.0638
46776W        W55576  23.635   3.396   7.812 -0.0150 -0.2758 -0.1774
46777W        W55577   7.857   0.428  21.271 -0.0188 -0.1499 -0.2818
46778W        W55578  24.552   3.819   0.805  0.3569 -0.1485  0.2567
46779W        W55579  12.452   1.662  11.241 -0.5412 -0.4041 -0.1646
46780W        W55580  16.330   7.617  20.407 -0.2621 -0.0688  0.0234
46781W        W55581  13.014   5.242  23.424  0.0436  0.1579 -0.1967
46782W        W55582   8.687   5.469  19.398 -0.1696 -0.2204 -0.0041
46783W        W55583  31.097   1.167   6.972  0.0003  0.1155  0.2367
46784W        W55584   2.210   6.736   3.123  0.1385 -0.1596  0.0619
46785W        W55585  30.227   1.892  16.318  0.1443 -0.1597 -0.0163
46786W        W55586  17.804   3.069  19.862  0.1073  0.0037  0.2022
46787W        W55587   3.968   7.256  10.133 -0.0063  0.1301 -0.0585
46788W        W55588   4.756   5.238  20.629 -0.0767  0.2229  0.4256
46789W        W55589  10.042   5.605   4.424 -0.4331  0.0948  0.1990
46790W        W55590   9.492   6.818   4.170 -0.1608  0.1610 -0.1767
46791W        W55591   7.761   6.583  21.594  0.1244 -0.0493 -0.0862
46792W        W55592   2.320   2.902  22.707  0.0426  0.1503 -0.0050
46793W        W55593  26.162   6.917   1.991 -0.1077  0.1767 -0.1255
46794W        W55594  15.260   0.029  20.764  0.0662 -0.1423 -0.1248
46795W        W55595   2.200   7.415  10.237 -0.2589  0.2333 -0.0387
46796W        W55596   7.689   2.363   2.711  0.1190 -0.1693 -0.0810
46797W        W55597  10.171   6.236  18.499  0.3699  0.2842  0.0840
46798W        W55598  11.669   0.792   5.013 -0.1278  0.1074 -0.1741
46799W        W55599  26.866   7.043  18.494 -0.1940 -0.3631 -0.1699
46800W        W55600  29.367   4.307   8.538 -0.0361  0.1448  0.0907
46801W        W55601  13.393   7.269   1.317  0.2737  0.0915 -0.2209
46802W        W55602  26.612   5.098  15.179 -0.0432 -0.0187  0.0859
46803W        W55603  17.632   5.004  19.905 -0.2585  0.1067 -0.1647
46804W        W55604  24.959   0.379  23.073 -0.0342  0.1155  0.0550
46805W        W55605  10.902   2.434   1.430  0.1890  0.0663  0.4042
46806W        W55606  13.904   1.895   3.633 -0.0428 -0.2835 -0.1786
46807W        W55607  16.752   4.239  25.842 -0.0203  0.1707  0.2317
46808W        W55608   8.082   7.347  16.457  0.2459  0.0258  0.0491
46809W        W55609  29.779   0.985   6.281  0.3107  0.3412 -0.0077
46810W        W55610  14.640   4.666   0.214 -0.0375  0.1194 -0.1957
46811W        W55611   4.932   2.354   6.680 -0.1380  0.1252 -0.0151
46812W        W55612  30.481   7.048  18.756  0.3190  0.4106 -0.0683
46813W        W55613  25.267   5.197  22.948 -0.1549  0.0028  0.4199
46814W        W55614   9.801   3.892  15.437 -0.3630  0.0366 -0.3337
46815W        W55615  11.908   3.948  18.890  0.0019  0.1698 -0.2089
46816W        W55616  10.559   7.352  21.484 -0.0292 -0.1089  0.0182
46817W        W55617  22.025   2.001   8.607 -0.1251  0.2842 -0.0024
46818W        W55618  29.626   0.814  17.763  0.1335 -0.1188 -0.1663
46819W        W55619  19.901   5.689   9.954 -0.3146  0.3318 -0.1577
46820W        W55620   4.970   1.340   6.069 -0.1444  0.1444  0.2243
46821W        W55621   7.734   3.878  22.475 -0.1890  0.0360 -0.0607
46822W        W55622  23.557   4.787   5.816 -0.1198 -0.0593 -0.1567
46823W        W55623  22.062   7.400  18.674 -0.1368  0.2104  0.4069
46824W        W55624   0.835   2.145  24.595  0.2748 -0.0038 -0.2840
46825W        W55625   2.765   6.465  18.089  0.0835  0.0164 -0.4626
46826W        W55626  29.377   7.713   5.628  0.1579  0.1376  0.2841
46827W        W55627   7.741   1.581   8.532  0.0700 -0.0895 -0.0921
46828W        W55628  21.611   1.367  10.775  0.0352  0.0037 -0.2592
46829W        W55629   0.212   4.196  23.485 -0.1295 -0.1213  0.0474
46830W        W55630   9.355   5.450  25.863  0.0582 -0.0290  0.1570
46831W        W55631   1.200   6.841  11.024  0.2239  0.2828 -0.1698
46832W        W55632  13.554   7.118   7.824  0.0337  0.1084 -0.1679
46833W        W55633  29.155   0.993  19.663  0.1218  0.1496  0.2996
46834W        W55634  24.368   4.965   4.630  0.0603 -0.1023 -0.0306
46835W        W55635  28.230   2.127  20.519 -0.3748  0.1317  0.1095
46836W        W55636  15.916   6.608  22.942  0.0829  0.0131 -0.0187
46837W        W55637   0.998   0.529  23.416 -0.0789  0.1416  0.1199
46838W        W55638   1.192   7.428  12.107  0.0536  0.0535 -0.1427
46839W        W55639  28.548   7.489   2.714  0.1906 -0.0297  0.0667
46840W        W55640  29.811   1.426  17.374  0.0926  0.2125 -0.2112
46841W        W55641  22.417   5.757  14.733 -0.1739  0.1785  0.1574
46842W        W55642  27.619   6.513   3.603  0.2589  0.0487 -0.1148
46843W        W55643   3.128   4.913   1.426 -0.1526  0.1888 -0.3651
46844W        W55644   1.185   1.828   0.853 -0.2176 -0.1848 -0.1068
46845W        W55645  20.550   4.917  16.859  0.1427  0.1944 -0.1519
46846W        W55646  25.026   5.205  24.842 -0.2030 -0.1170  0.0608
46847W        W55647  27.933   6.032   5.163 -0.1249 -0.0795 -0.2057
46848W        W55648   6.017   5.443   1.863  0.4128 -0.0517  0.1342
46849W        W55649  13.842   6.377  17.207 -0.1976 -0.2469 -0.0070
46850W        W55650   9.293   0.607  17.592  0.0104 -0.0505 -0.3097
46851W        W55651   4.167   0.262   3.239 -0.0292  0.2760 -0.2351
46852W        W55652  22.918   6.947   5.566 -0.1952 -0.0674 -0.4156
46853W        W55653  22.218   3.037  25.459  0.0650  0.1519  0.4309
46854W        W55654   2.627   1.375  11.058 -0.0381  0.1293  0.0709
46855W        W55655  12.284   0.429  23.290  0.0649 -0.1245  0.2145
46856W        W55656  15.883   4.134  20.194 -0.0881  0.1541  0.2966
46857W        W55657  25.825   0.354   9.248  0.1030 -0.1985  0.0299
46858W        W55658  23.436   6.146   3.055 -0.0187  0.0375  0.0280
46859W        W55659  20.126   5.314   4.589 -0.1655 -0.1953  0.0581
46860W        W55660  11.187   3.400  26.037 -0.2212  0.2723 -0.0714
46861W        W55661  23.032   5.171   1.512 -0.4424  0.0280  0.0174
46862W        W55662  22.240   6.065   9.816  0.0090 -0.3381 -0.0792
46863W        W55663  26.607   6.016  17.162 -0.0148 -0.1222 -0.3093
46864W        W55664   0.155   7.058   8.255  0.0022 -0.0830  0.0833
46865W        W55665   7.799   1.630  10.154 -0.0654 -0.1755  0.1925
46866W        W55666  28.196   6.034  20.847  0.1192 -0.0163  0.2684
46867W        W55667  28.668   2.010  18.629  0.0026  0.0087  0.0654
46868W        W55668  26.302   7.792  19.922  0.0365  0.4617 -0.3421
46869W        W55669   6.053   0.173   9.507  0.1644 -0.1595  0.0089
46870W        W55670  22.901   0.960   2.288 -0.1283 -0.0586  0.2958
46871W        W55671   1.417   7.664   5.708 -0.0805 -0.0961  0.1598
46872W        W55672  27.861   4.349  25.208 -0.2081 -0.0676  0.0294
46873W        W55673   0.246   2.482   5.139  0.0821  0.0981 -0.0671
46874W        W55674  16.697   5.289   2.126  0.1978 -0.4597  0.2848
46875W        W55675  23.224   7.304   6.491  0.0858 -0.0615  0.0249
46876W        W55676  25.297   3.853  21.117  0.1251  0.1003  0.1527
46877W        W55677  22.738   0.330  19.056 -0.1694 -0.2142 -0.0304
46878W        W55678   1.712   3.017   5.107 -0.1102  0.1045 -0.3119
46879W        W55679  10.842   3.632   6.732  0.1940  0.0178 -0.0372
46880W        W55680  25.776   1.611   0.735 -0.1392  0.1110 -0.4409
46881W        W55681  26.934   3.025  18.755 -0.1661  0.3140 -0.0083
46882W        W55682   9.458   0.234   1.220 -0.1812 -0.2531  0.4238
46883W        W55683  22.560   2.801  20.366 -0.0979  0.4492  0.0946
46884W        W55684   3.246   6.630   2.045  0.0694 -0.1509 -0.0202
46885W        W55685   5.341   2.266   5.717  0.3296  0.0148 -0.1202
46886W        W55686  29.502   0.516   4.233  0.3760  0.1441  0.0783
46887W        W55687   1.335   0.792  17.140 -0.0516  0.1060  0.0576
46888W        W55688   5.330   1.823   3.260  0.0696 -0.1097 -0.0823
46889W        W55689  23.556   5.876  24.608  0.0629  0.1780  0.1477
46890W        W55690  21.921   5.055   6.840  0.1061 -0.2862  0.0732
46891W        W55691   1.362   4.960   4.483  0.0472  0.1216 -0.1073
46892W        W55692  28.562   5.603   0.813  0.2355 -0.2359 -0.1428
46893W        W55693  18.317   5.577   7.545  0.1729  0.1723  0.1446
46894W        W55694  11.342   2.196  13.326 -0.2878  0.0599 -0.0224
46895W        W55695  23.816   6.099   3.839  0.1954 -0.4345 -0.1188
46896W        W55696  20.952   6.794  25.472  0.0487  0.0426 -0.4118
46897W        W55697  29.471   4.198  21.144  0.1741  0.0454 -0.1295
46898W        W55698   0.240   4.514  15.659  0.0594  0.1615  0.1022
46899W        W55699  21.646   5.618  10.557  0.0605 -0.0105 -0.0617
46900W        W55700  24.201   2.307   5.794  0.0809 -0.0691  0.0454
46901W        W55701  12.372   1.720  19.125 -0.1466 -0.3744  0.0079
46902W        W55702  22.333   4.064   5.669 -0.0297  0.0197 -0.3508
46903W        W55703  12.276   6.900  24.613  0.0118 -0.3563  0.0537
46904W        W55704  18.118   0.155   4.253  0.2053 -0.1908 -0.0284
46905W        W55705   5.195   5.351   4.902  0.2834 -0.0844  0.0597
46906W        W55706  13.298   5.575   2.748 -0.2740  0.1336  0.1492
46907W        W55707  12.975   7.512   1.475  0.2133 -0.1670  0.1016
46908W        W55708   6.527   5.951  24.600  0.0148  0.0862 -0.0948
46909W        W55709  19.159   4.570  20.300 -0.0493 -0.0787 -0.2981
46910W        W55710   8.523   0.783  20.739  0.1354  0.1838  0.2229
46911W        W55711   3.513   3.682   0.412 -0.0214 -0.0617 -0.3090
46912W        W55712  23.032   2.788  21.502  0.0581 -0.1480 -0.0187
46913W        W55713  12.749   2.070   0.541  0.0665  0.1974  0.0723
46914W        W55714  31.244   5.386   7.858  0.2872  0.1006 -0.3017
46915W        W55715  27.856   4.462   7.821 -0.0142  0.1194  0.4342
46916W        W55716  27.539   2.482   2.946  0.0338 -0.1076 -0.0379
46917W        W55717   7.454   0.929  21.597 -0.0888 -0.1825 -0.0706
46918W        W55718  19.610   2.486  18.300  0.0322 -0.0647  0.1231
46919W        W55719  14.104   5.082   2.969 -0.2063  0.2344 -0.1266
46920W        W55720  24.319   4.109  17.904  0.0295 -0.1949 -0.1775
46921W        W55721   0.535   6.860  15.658  0.1016  0.0316 -0.1211
46922W        W55722   3.872   4.749  24.713 -0.0037 -0.2959 -0.2040
46923W        W55723  15.827   5.113   7.445 -0.1651  0.3221 -0.0412
46924W        W55724  23.639   1.034  25.462 -0.3868 -0.0794  0.2817
46925W        W55725   3.518   0.703   5.835 -0.0012  0.0078  0.1009
46926W        W55726  17.841   6.205  17.824  0.1216 -0.1375  0.1986
46927W        W55727   1.970   6.918   5.757  0.0897 -0.0678 -0.2921
46928W        W55728   9.759   6.297  17.568 -0.0070 -0.1557  0.2001
46929W        W55729  25.571   2.210  10.480  0.1116 -0.2438  0.0154
46930W        W55730  28.108   3.294  22.317 -0.3190  0.0237 -0.2340
46931W        W55731   1.671   3.280  16.184  0.2224  0.1229 -0.2221
46932W        W55732  20.104   2.465   2.079 -0.0244  0.2586 -0.1092
46933W        W55733   3.592   7.783  19.138 -0.4025  0.0869  0.1171
46934W        W55734  26.856   2.222   0.170 -0.0150  0.0042 -0.0439
46935W        W55735  21.935   1.482   1.312 -0.1126  0.2643 -0.0979
46936W        W55736  13.955   1.844  20.867  0.2102 -0.0183  0.0204
46937W        W55737   4.866   6.635  21.601  0.0502  0.2027  0.2177
46938W        W55738  15.179   1.198   5.955  0.0271 -0.1122 -0.3056
46939W        W55739   1.037   3.670  18.579 -0.3411 -0.0879  0.0207
46940W        W55740  20.778   0.592   1.482 -0.0507 -0.0180 -0.2192
46941W        W55741  17.153   6.546  14.646  0.0007 -0.0085  0.2647
46942W        W55742   9.418   4.474   5.199  0.0958  0.0792 -0.2143
46943W        W55743   3.263   0.179  11.798  0.1065 -0.1110  0.0710
46944W        W55744  29.530   3.512  25.301 -0.0795  0.0268 -0.1610
46945W        W55745   0.041   5.420  25.594  0.0693 -0.3134  0.1463
46946W        W55746  18.010   0.204   6.016  0.1746  0.0217  0.0750
46947W        W55747  28.707   5.410  16.079  0.0271 -0.3308  0.0886
46948W        W55748   4.196   1.251  21.966  0.1348  0.3754 -0.0237
46949W        W55749  23.482   6.778   7.186  0.1070  0.0395  0.0472
46950W        W55750  17.387   6.108   9.992 -0.0089  0.0717  0.3068
46951W        W55751   7.855   5.181  24.299 -0.2712  0.0759  0.0286
46952W        W55752  23.979   5.976   1.117 -0.0707  0.1239 -0.1698
46953W        W55753  30.610   4.401  23.479  0.0222 -0.2382  0.1490
46954W        W55754  17.769   3.786   5.464 -0.0345 -0.1427  0.1333
46955W        W55755  29.712   0.242  24.328  0.0876  0.1471  0.5231
46956W        W55756  10.032   7.000  22.614  0.1603  0.1217  0.2247
46957W        W55757  22.492   4.157  16.997 -0.0782 -0.0377 -0.0079
46958W        W55758  20.593   0.968   3.455 -0.0978 -0.2016 -0.0227
46959W        W55759  18.914   4.691   6.387  0.1354  0.1295 -0.0153
46960W        W55760  25.974   4.620  20.346 -0.0351  0.0333 -0.1340
46961W        W55761   5.521   7.220   3.213 -0.0891  0.1225 -0.1645
46962W        W55762   9.661   0.856   9.670  0.2974  0.0953  0.1386
46963W        W55763   5.543   3.768  21.680 -0.1422 -0.0783  0.2211
46964W        W55764   0.986   6.767   6.731 -0.1553  0.3002  0.2679
46965W        W55765  14.085   5.587  21.470 -0.0195  0.1707 -0.0644
46966W        W55766  23.225   3.998   7.303  0.2683 -0.0312 -0.1719
46967W        W55767  25.888   3.143  20.340  0.2632  0.3951 -0.0459
46968W        W55768   6.013   5.389  23.593  0.1899  0.1334  0.5105
46969W        W55769  11.571   6.202  21.427  0.0244  0.0084 -0.0742
46970W        W55770  29.981   5.425  20.701 -0.0214  0.1226 -0.3348
46971W        W55771  13.892   2.573  23.418  0.1673  0.1575  0.1525
46972W        W55772  16.397   4.685  25.879 -0.4343 -0.0532  0.1009
46973W        W55773  19.020   1.046   7.108 -0.4071  0.0973 -0.1994
46974W        W55774  25.000   5.843   4.548  0.2385  0.7459 -0.0047
46975W        W55775   6.907   4.391   2.749 -0.0343  0.1772 -0.1168
46976W        W55776   6.368   7.180   2.711  0.1857  0.1024 -0.1117
46977W        W55777   3.180   1.461   8.068 -0.0032 -0.0046  0.2585
46978W        W55778  18.628   3.390  25.584  0.3516 -0.0863 -0.1303
46979W        W55779   0.735   6.888   3.627 -0.0181 -0.1420 -0.2028
46980W        W55780  12.806   2.774   5.315  0.1973 -0.0310  0.1067
46981W        W55781   0.351   1.190  11.167 -0.0827  0.0045 -0.6194
46982W        W55782  21.451   2.289  20.310 -0.0078 -0.2990  0.0896
46983W        W55783  16.440   1.698  19.724  0.0602 -0.3047 -0.2152
46984W        W55784  17.514   5.095  24.498  0.0329  0.1984 -0.0903
46985W        W55785  26.588   5.925   2.217 -0.1133  0.1339  0.2558
46986W        W55786  13.445   6.370  24.112 -0.1931  0.2282  0.3519
46987W        W55787  17.691   1.634   0.860 -0.1021  0.3300  0.0968
46988W        W55788   9.477   5.094  20.762  0.2121 -0.3070  0.0190
46989W        W55789   5.120   3.048  20.594  0.1777 -0.0897  0.2345
46990W        W55790  29.863   4.110  16.107  0.0576 -0.2169  0.0033
46991W        W55791  28.790   6.547  20.236 -0.1948 -0.1113  0.4580
46992W        W55792  20.868   5.596   5.150  0.2698  0.1190 -0.1653
46993W        W55793  21.580   2.826  19.556  0.1155 -0.2047  0.3472
46994W        W55794  24.207   5.566  21.831  0.0515  0.1694  0.1497
46995W        W55795   1.620   5.320  19.511  0.0502 -0.0962 -0.0952
46996W        W55796   3.515   4.091   9.505 -0.1383  0.1159  0.1727
46997W        W55797  24.769   1.022   9.775  0.1880  0.0069  0.1090
46998W        W55798  18.681   7.759  21.867  0.1350  0.2926 -0.0942
46999W        W55799  14.101   1.141  15.848 -0.0066  0.3217 -0.3339
47000W        W55800  13.177   0.978  22.865  0.0530  0.2817 -0.2135
47001W        W55801  20.851   2.400  11.207 -0.1752 -0.2517  0.0709
47002W        W55802  24.732   2.526   0.408  0.2307  0.1741 -0.2346
47003W        W55803  27.534   4.875   5.884 -0.0405 -0.0277  0.0995
47004W        W55804   6.271   3.804  11.372  0.0418 -0.1241 -0.1420
47005W        W55805  28.483   3.884  21.651 -0.1004 -0.1820  0.1407
47006W        W55806   1.259   7.667  10.524 -0.0285 -0.0945  0.3641
47007W        W55807  11.761   4.469  18.526 -0.0456  0.3026 -0.3317
47008W        W55808  18.052   4.865   3.910  0.0604  0.0844  0.1307
47009W        W55809  29.497   6.105  22.870 -0.1600 -0.1469  0.3270
47010W        W55810  24.098   3.641  23.893 -0.0450  0.2646 -0.0873
47011W        W55811   2.377   7.167  25.162  0.0588 -0.0906  0.0162
47012W        W55812  24.954   3.658  17.849  0.0838  0.3358 -0.0374
47013W        W55813   7.900   6.936   8.369  0.2416 -0.3283 -0.4363
47014W        W55814  14.321   3.336  22.116  0.0510 -0.0701 -0.0697
47015W        W55815   5.359   3.451   3.533  0.1326  0.0456  0.0410
47016W        W55816  15.277   7.478  19.392 -0.4996 -0.1181 -0.1125
47017W        W55817  21.533   2.057  24.540 -0.1051  0.0021  0.3130
47018W        W55818   9.619   3.643  19.945  0.2475 -0.0670  0.0059
47019W        W55819   9.696   0.605   8.628  0.0178 -0.3502  0.2032
47020W        W55820  10.933   4.188   6.583  0.1169  0.1260 -0.2404
47021W        W55821  30.598   3.924  23.563 -0.2102  0.0881  0.1190
47022W        W55822  16.900   5.377  22.982  0.0062 -0.0758 -0.4926
47023W        W55823  24.308   4.768   8.099 -0.0150 -0.4074 -0.0824
47024W        W55824   2.789   0.014  25.412 -0.0996  0.1866 -0.1511
47025W        W55825  27.454   5.054   9.472  0.3091  0.2419  0.0869
47026W        W55826  15.347   4.772   2.415  0.3117 -0.0607 -0.0082
47027W        W55827  17.761   7.687   1.830 -0.1398 -0.2410 -0.1439
47028W        W55828  13.070   1.470   2.253 -0.0195  0.0028 -0.2830
47029W        W55829  11.104   6.806  24.295 -0.0126  0.2148  0.1489
47030W        W55830   9.079   6.251  16.824 -0.4082  0.0986  0.2532
47031W        W55831  20.840   6.454  20.829  0.2609  0.0352 -0.1866
47032W        W55832  20.595   5.356   5.894  0.0720  0.1218 -0.0921
47033W        W55833   5.170   6.518  16.247  0.0100  0.0314  0.0180
47034W        W55834  22.225   2.130  10.795 -0.1930 -0.1439  0.0400
47035W        W55835  10.208   6.653  25.236  0.1223  0.0816  0.0452
47036W        W55836  20.248   0.004   1.168 -0.0109  0.1063  0.1274
47037W        W55837  22.044   1.327   8.677 -0.1591  0.3029 -0.0959
47038W        W55838  18.013   1.227  19.054 -0.1311 -0.1408  0.0626
47039W        W55839   8.775   6.180  19.476  0.0050 -0.0183 -0.2934
47040W        W55840  10.286   3.163  18.365  0.2543  0.1955  0.3275
47041W        W55841  18.999   2.226   4.888 -0.0049  0.0453 -0.0918
47042W        W55842  29.171   0.360   0.878  0.1502 -0.0158 -0.0087
47043W        W55843   6.488   5.021   6.805  0.1487  0.0973  0.1107
47044W        W55844   4.653   7.739  24.870  0.0510 -0.1296  0.0524
47045W        W55845  23.317   7.660   7.728 -0.3442 -0.1966  0.0992
47046W        W55846  14.338   0.128  18.402  0.1769  0.2193 -0.1277
47047W        W55847   4.848   2.174  24.700 -0.0272  0.0019 -0.2614
47048W        W55848  14.977   0.368   3.833  0.0355  0.2570  0.1390
47049W        W55849   1.652   7.343  10.713  0.0031  0.1217 -0.1076
47050W        W55850   6.459   1.812  21.777  0.3684 -0.1036  0.0444
47051W        W55851  26.644   1.754   2.490 -0.4455 -0.2206 -0.2186
47052W        W55852   2.817   7.529  21.707 -0.0850 -0.0113  0.1988
47053W        W55853  19.754   4.058  22.718 -0.2786  0.0935  0.0357
47054W        W55854  14.567   6.709   9.455 -0.3257  0.0179  0.0640
47055W        W55855   9.867   3.151  14.822 -0.3407  0.0196 -0.1974
47056W        W55856   1.334   5.565   0.642  0.0584  0.0269 -0.0592
47057W        W55857  15.664   3.362  16.247  0.1845 -0.1669  0.1360
47058W        W55858  30.611   0.183   5.717 -0.1386 -0.0611  0.0902
47059W        W55859  29.439   3.430  15.610 -0.1268 -0.0016 -0.1863
47060W        W55860  11.207   5.427   5.655  0.2915 -0.2087  0.0558
47061W        W55861   2.033   2.716   7.055  0.0585 -0.0765  0.3472
47062W        W55862  11.417   3.104  15.142  0.1242  0.1229  0.4229
47063W        W55863   4.394   5.729   9.823  0.2171 -0.1012  0.3432
47064W        W55864  29.186   6.551  23.697  0.3592 -0.0187  0.0021
47065W        W55865  30.540   1.460   2.025  0.3372  0.1625 -0.1541
47066W        W55866  13.556   3.925   8.879 -0.0436  0.3860  0.0042
47067W        W55867   7.277   2.868  16.392 -0.0788 -0.3337 -0.0710
47068W        W55868   9.722   4.812   1.659 -0.2103  0.2891 -0.4147
47069W        W55869   7.744   6.183  18.308  0.1325  0.0434 -0.1494
47070W        W55870  13.518   6.637  18.930  0.0078  0.1226 -0.1271
47071W        W55871  18.956   1.354   9.636 -0.0285 -0.1269  0.2830
47072W        W55872   7.936   1.424  25.256 -0.0047  0.1073  0.1253
47073W        W55873  17.569   2.860  24.527  0.2461 -0.1219  0.0635
47074W        W55874  17.239   3.864  16.416  0.0742 -0.0384  0.1802
47075W        W55875  24.048   7.741  19.139  0.0464  0.1610  0.0906
47076W        W55876   6.138   2.485  24.268 -0.0146 -0.0862  0.2011
47077W        W55877  14.100   2.184  16.970 -0.1153 -0.0516 -0.2328
47078W        W55878  14.469   0.206  10.980  0.0723  0.3091 -0.0280
47079W        W55879  23.226   5.231  23.516  0.0098  0.2451  0.2426
47080W        W55880  11.277   2.160   0.494 -0.0658  0.1181  0.1458
47081W        W55881  11.574   3.250  24.913  0.2090 -0.1889  0.1771
47082W        W55882  16.433   3.213   8.830 -0.2300  0.3640  0.2635
47083W        W55883   4.745   4.218   3.923  0.4825  0.2864 -0.1374
47084W        W55884  25.405   2.463   4.420  0.0457 -0.1930  0.2931
47085W        W55885  14.193   4.886   1.692  0.2343  0.1954  0.0180
47086W        W55886  18.485   2.242   8.358 -0.0617 -0.0822 -0.1001
47087W        W55887  20.197   5.707   7.981 -0.1729 -0.1299 -0.0490
47088W        W55888  16.240   6.536   1.859 -0.0473 -0.3507 -0.1589
47089W        W55889  12.607   0.129  23.084 -0.0177  0.1104 -0.1153
47090W        W55890   7.170   3.738   4.856 -0.0760 -0.1162  0.0759
47091W        W55891  29.414   6.821  25.963 -0.0289  0.0542  0.1315
47092W        W55892   2.883   0.579   1.862  0.1326 -0.0194 -0.1027
47093W        W55893  12.638   1.070   7.603  0.3766  0.1486  0.1603
47094W        W55894  10.949   6.829   2.913 -0.1491 -0.1186 -0.2436
47095W        W55895  29.671   2.827   4.407  0.1760  0.3236 -0.0829
47096W        W55896  30.336   6.453  23.239 -0.0040  0.0360  0.0531
47097W        W55897  23.400   4.789  19.088  0.1989 -0.2536 -0.0191
47098W        W55898  15.189   0.707  16.776  0.0098 -0.0047 -0.0164
47099W        W55899  14.104   0.410   9.877  0.1071 -0.4886  0.1236
47100W        W55900  24.053   2.171  17.878 -0.1589 -0.1807  0.0105
47101W        W55901  29.395   7.122   0.684 -0.3172  0.0659 -0.2800
47102W        W55902  16.441   2.085  15.317  0.0680 -0.1438  0.3082
47103W        W55903  19.885   6.810   2.730  0.4069  0.0950  0.1232
47104W        W55904   4.110   0.370   5.210 -0.2292  0.0859 -0.2359
47105W        W55905  29.970   3.643  10.502  0.2672  0.1369  0.0673
47106W        W55906  25.845   1.237   8.167 -0.0267 -0.2536  0.1594
47107W        W55907   8.295   5.851  25.606  0.1103 -0.1027  0.4548
47108W        W55908  25.537   6.036  10.103 -0.0419 -0.3490  0.1264
47109W        W55909  10.023   6.998   4.869 -0.0249 -0.2211  0.3758
47110W        W55910  24.473   5.121  11.298 -0.2113  0.0713  0.0570
47111W        W55911  17.013   7.125  25.432 -0.3725  0.1355 -0.0587
47112W        W55912   3.757   1.112  10.808 -0.4467  0.0154  0.2731
47113W        W55913   0.212   5.351  26.105 -0.0894  0.0394 -0.1749
47114W        W55914  22.416   0.920   8.214 -0.2581 -0.0817 -0.2137
47115W        W55915   9.330   5.008  15.866 -0.0907  0.1675 -0.0030
47116W        W55916  20.151   2.647  22.835  0.2723 -0.0491 -0.2225
47117W        W55917  10.810   1.450  16.753 -0.1088 -0.3591  0.2438
47118W        W55918   8.720   7.501  16.670  0.0799 -0.0191 -0.0283
47119W        W55919   2.768   6.907  26.131  0.0841  0.1040 -0.0638
47120W        W55920   8.755   2.466  16.415 -0.0169 -0.4758 -0.2334
47121W        W55921   2.349   4.527   3.632  0.0159  0.1508 -0.2732
47122W        W55922   2.409   6.232   5.316  0.0827 -0.2358  0.2555
47123W        W55923   8.584   0.116  22.457  0.1163 -0.1402 -0.2742
47124W        W55924   9.983   2.380   4.433 -0.2021 -0.0883 -0.1819
47125W        W55925  18.138   5.731   0.778  0.2986 -0.0528 -0.0555
47126W        W55926  20.266   2.848   4.582 -0.0727  0.0451  0.0510
47127W        W55927  26.278   0.117  20.597 -0.1467 -0.0362 -0.0839
47128W        W55928  17.399   5.965   3.568 -0.3353 -0.2048  0.1639
47129W        W55929  12.892   1.766  10.946  0.1085  0.0967  0.0645
47130W        W55930  17.709   7.289  25.631  0.0580 -0.0348  0.0982
47131W        W55931  26.364   6.155  23.759 -0.2262 -0.0886 -0.0902
47132W        W55932   7.675   6.213   5.120 -0.0224 -0.0858 -0.0674
47133W        W55933  23.004   1.784  15.199  0.1056  0.0974  0.2164
47134W        W55934  19.325   4.985   7.514  0.3044 -0.1119 -0.0766
47135W        W55935  10.966   5.930   9.726  0.2452 -0.0369  0.2461
47136W        W55936   9.520   7.559   1.004  0.0248  0.1980 -0.1499
47137W        W55937  16.252   7.271  19.926  0.1012  0.1479 -0.0941
47138W        W55938  24.708   7.216   6.522 -0.2549  0.2755 -0.2229
47139W        W55939  15.462   1.093   5.223  0.3739 -0.0852 -0.0090
47140W        W55940  23.184   1.423  20.459  0.0642 -0.1399 -0.1357
47141W        W55941  11.046   4.809   3.864 -0.1186 -0.0538  0.1116
47142W        W55942   2.474   4.170   5.586 -0.2617  0.3908  0.0483
47143W        W55943   1.506   0.323  18.311  0.0773 -0.1885  0.5165
47144W        W55944  20.681   6.086  23.384  0.1171  0.1687  0.4225
47145W        W55945   9.840   3.369   0.448 -0.0489  0.0269 -0.0846
47146W        W55946  18.882   2.732   6.096  0.2024 -0.1653  0.1308
47147W        W55947  16.943   0.595   3.033 -0.0382 -0.0479 -0.1175
47148W        W55948  24.267   0.913  25.202 -0.2314  0.1269 -0.0431
47149W        W55949  11.095   4.503   9.426  0.1169 -0.3258 -0.0049
47150W        W55950  26.819   2.038  25.664  0.0172 -0.0288 -0.0243
47151W        W55951  27.230   6.849  20.683  0.2987  0.1171 -0.3218
47152W        W55952  19.060   0.312   7.986 -0.4616  0.0492  0.0737
47153W        W55953  13.979   2.948  22.095  0.1209 -0.4430  0.0646
47154W        W55954  29.293   1.565   8.415 -0.1810 -0.2109 -0.3384
47155W        W55955  17.816   4.216  21.350 -0.0418  0.0304  0.0635
47156W        W55956   0.987   3.288   8.941  0.0160 -0.0686 -0.0369
47157W        W55957  14.709   3.644  19.557 -0.3723  0.0436 -0.0852
47158W        W55958  11.613   5.412  23.376 -0.0550 -0.1792 -0.3339
47159W        W55959  24.158   6.440   1.318  0.0050  0.0734 -0.2913
47160W        W55960  13.620   5.909  24.195 -0.0724  0.0479  0.2644
47161W        W55961   1.566   6.042   2.150 -0.0955 -0.0315 -0.2292
47162W        W55962  13.598   4.685  19.535 -0.2097 -0.2119 -0.0877
47163W        W55963  12.517   1.674   0.365  0.1547  0.0786  0.0331
47164W        W55964   8.238   3.428  21.336  0.0972  0.0926  0.1781
47165W        W55965  29.404   7.622  20.505 -0.2482 -0.1480  0.0230
47166W        W55966  30.336   3.036  19.849 -0.1930  0.2744  0.1916
47167W        W55967  27.684   3.722   1.052  0.0154 -0.1511 -0.0958
47168W        W55968   3.467   4.485  10.749 -0.1700  0.0282 -0.2381
47169W        W55969  19.226   6.399   8.935 -0.3444  0.3047  0.1989
47170W        W55970  31.012   0.815   9.859  0.0299  0.0334 -0.1240
47171W        W55971   0.199   6.066  24.428 -0.3733  0.0192  0.0951
47172W        W55972  26.164   6.918   2.997 -0.1592  0.0244  0.1779
47173W        W55973   6.255   6.956  15.119  0.0121  0.0591 -0.0951
47174W        W55974  30.855   3.957   7.152 -0.0512  0.0644  0.0284
47175W        W55975  23.196   3.394  21.418 -0.1119 -0.1775 -0.5489
47176W        W55976  27.036   5.738   1.193  0.2763 -0.1300  0.2008
47177W        W55977   9.746   1.396   4.248  0.0931  0.0607  0.2967
47178W        W55978  29.730   5.789  15.217  0.1111 -0.0162  0.2726
47179W        W55979  31.212   2.724  15.968 -0.0228  0.2349 -0.0013
47180W        W55980   4.199   6.007   1.049  0.3529 -0.1581  0.3438
47181W        W55981  23.286   2.684  20.526  0.1476  0.0319  0.2441
47182W        W55982  19.067   1.563  16.316  0.2108  0.1259  0.1362
47183W        W55983   2.546   5.054  20.679 -0.0649  0.2003  0.3535
47184W        W55984  23.843   5.718   9.897 -0.2168 -0.1847  0.3339
47185W        W55985  20.632   2.583   5.886 -0.1495  0.2766  0.0136
47186W        W55986   2.778   4.531   4.765 -0.2572 -0.1029 -0.0202
47187W        W55987   0.795   4.599   0.516 -0.3578 -0.0941  0.1722
47188W        W55988  27.051   6.504  23.318  0.0016  0.1279  0.1471
47189W        W55989  15.355   0.208   2.565  0.0180 -0.0189 -0.0194
47190W        W55990  13.607   4.320  19.924 -0.2352  0.1492  0.2812
47191W        W55991  22.938   6.161  20.219 -0.0079  0.2308  0.1921
47192W        W55992   3.624   0.296  18.615  0.2139  0.0176  0.0396
47193W        W55993   7.257   5.383  19.882  0.1646  0.0041 -0.2449
47194W        W55994  18.001   0.599  17.907 -0.0358  0.0204 -0.0129
47195W        W55995  22.158   5.409  22.800  0.0377 -0.0756  0.4220
47196W        W55996  31.138   5.979  18.412  0.1685 -0.3822 -0.3504
47197W        W55997  20.576   0.677   6.545  0.2133 -0.1465 -0.2708
47198W        W55998  23.305   1.125   3.385 -0.0417  0.0499 -0.0883
47199W        W55999  23.663   4.232   3.528 -0.1489  0.0955  0.1183
47200W        W56000   5.162   7.094   8.896 -0.0380 -0.2683 -0.0839
47201W        W56001  23.790   3.514  20.250  0.2242 -0.0936  0.0829
47202W        W56002  25.040   6.204  24.807  0.0844  0.0706 -0.0126
47203W        W56003  15.681   3.083  26.046  0.1201  0.0414  0.1355
47204W        W56004  23.815   1.822   0.677  0.2300  0.3773  0.1470
47205W        W56005  27.677   2.974   1.753  0.0902 -0.2193 -0.3271
47206W        W56006  28.199   0.261  25.244 -0.0326 -0.0836  0.2739
47207W        W56007   7.580   2.971   1.400  0.0569 -0.2168  0.1481
47208W        W56008  22.103   6.517  20.220  0.2598 -0.0826 -0.0906
47209W        W56009   2.761   0.726  23.657 -0.2431  0.0400 -0.1411
47210W        W56010   1.108   7.322   6.594 -0.1314  0.2421 -0.0558
47211W        W56011  29.873   1.848  24.742 -0.2958  0.1554  0.1976
47212W        W56012  26.968   4.399  24.772 -0.1437 -0.1408 -0.1137
47213W        W56013  30.021   5.726  19.193 -0.3439  0.2211  0.1080
47214W        W56014  22.440   4.622  21.050  0.1335 -0.1818 -0.1125
47215W        W56015   8.234   4.816  20.502 -0.2890  0.0320  0.1476
47216W        W56016   9.402   4.159  23.080 -0.0108  0.0700 -0.1204
47217W        W56017  29.797   7.290   0.393  0.1850 -0.2713  0.0369
47218W        W56018  10.971   1.070   0.351  0.0448 -0.0633 -0.1917
47219W        W56019  22.267   3.877  24.795  0.1704  0.1590  0.1483
47220W        W56020   5.023   1.131   3.609  0.2096  0.1202  0.1973
47221W        W56021  10.535   3.907  22.008  0.0216 -0.1356  0.2526
47222W        W56022   4.325   4.926  22.464 -0.4738 -0.0797  0.0934
47223W        W56023  10.295   6.666  18.300 -0.1152  0.1432 -0.1077
47224W        W56024  28.112   4.273  10.362 -0.2043  0.0321 -0.0284
47225W        W56025   0.649   4.251  15.877 -0.1555  0.0745 -0.2485
47226W        W56026  10.899   5.823   1.652  0.1172 -0.2367  0.0231
47227W        W56027  15.149   6.736  17.337  0.0147  0.2368 -0.0279
47228W        W56028  11.923   2.259   2.567  0.0430  0.1680 -0.0151
47229W        W56029  23.510   0.975  26.069  0.2302  0.0270  0.1374
47230W        W56030  28.602   6.477   1.575  0.2310 -0.0616 -0.2324
47231W        W56031   5.057   0.371   8.377 -0.1794  0.0502  0.3560
47232W        W56032  25.650   3.799  25.204 -0.1848  0.1854  0.0915
47233W        W56033   5.292   7.479   9.704  0.0053 -0.1299 -0.3045
47234W        W56034  21.036   2.579   5.538 -0.0350 -0.2360  0.0832
47235W        W56035  21.681   4.141  25.602 -0.0835 -0.0070  0.3635
47236W        W56036  17.965   6.579  23.187 -0.0698 -0.0799  0.1338
47237W        W56037   2.646   3.426   7.439 -0.3480 -0.0578  0.0527
47238W        W56038  20.180   1.995   7.717  0.0306  0.2034  0.0744
47239W        W56039  19.708   5.524  19.269 -0.4288  0.1131  0.1182
47240W        W56040  27.837   3.416   9.042 -0.1263 -0.0827  0.0835
47241W        W56041   0.487   5.123  17.001  0.3094  0.0380 -0.1716
47242W        W56042  10.594   4.258  21.565  0.0239  0.0832 -0.0018
47243W        W56043  15.090   1.082  18.955 -0.3236  0.1614 -0.0548
47244W        W56044  30.144   6.416   7.262 -0.2797 -0.3227  0.1500
47245W        W56045   8.286   4.498   0.961 -0.0087  0.0453  0.1930
47246W        W56046   9.644   2.624   1.780 -0.0662 -0.0582 -0.3802
47247W        W56047  20.406   2.629  26.134 -0.3366 -0.2135 -0.1289
47248W        W56048   7.060   7.176   4.040  0.0622 -0.1203 -0.0575
47249W        W56049  26.649   7.609   3.766  0.0270  0.0591  0.1311
47250W        W56050  17.639   6.539   0.444 -0.1614  0.1071 -0.1376
47251W        W56051   3.882   1.904   8.609  0.0184  0.0669  0.1980
47252W        W56052  10.184   4.480  19.325 -0.0034 -0.0064  0.0620
47253W        W56053  29.172   5.113   6.774 -0.1525 -0.0693  0.0824
47254W        W56054  13.688   4.537  25.301 -0.4701 -0.0212 -0.0234
47255W        W56055  29.058   4.173   1.597 -0.2021  0.0268  0.1508
47256W        W56056   1.465   3.428   5.893 -0.2266 -0.1013  0.0582
47257W        W56057  25.711   1.028  19.465  0.0274 -0.0203 -0.0689
47258W        W56058  18.355   2.120   9.287  0.2720  0.0651 -0.0973
47259W        W56059  15.779   0.066  25.798 -0.0054 -0.2385 -0.0416
47260W        W56060  13.501   2.133  17.745  0.0552  0.0773  0.1227
47261W        W56061  22.852   1.798   6.084  0.1030  0.1132  0.4384
47262W        W56062  11.483   5.466   9.354 -0.0450  0.0981  0.1645
47263W        W56063  16.374   5.872  21.607  0.0926  0.3371 -0.1014
47264W        W56064  21.576   1.320   9.001  0.1216 -0.0465  0.1981
47265W        W56065  29.816   2.720   1.449  0.2711 -0.2229  0.0965
47266W        W56066  22.897   2.509   8.332 -0.0362  0.1800  0.4125
47267W        W56067   0.271   7.733   6.503  0.1657 -0.3125  0.0782
47268W        W56068  30.656   7.553  23.133  0.0060 -0.1049  0.1091
47269W        W56069  30.739   6.517  10.949 -0.4052 -0.2729  0.0066
47270W        W56070  28.952   4.389  15.741 -0.1001 -0.0826  0.2995
47271W        W56071   8.330   4.350   9.836 -0.0058 -0.1563  0.0322
47272W        W56072  17.556   0.984   9.772 -0.1072 -0.0386  0.1347
47273W        W56073   9.268   0.134   7.226  0.1360  0.0125  0.0971
47274W        W56074   5.497   2.202   0.074 -0.1593  0.1928  0.1970
47275W        W56075  31.070   0.055  19.763  0.2066 -0.0979  0.1354
47276W        W56076  22.202   4.438  18.765  0.1895  0.0045 -0.2875
47277W        W56077  29.940   2.685   6.991 -0.2319  0.0500 -0.1495
47278W        W56078  22.511   5.004   0.681 -0.2305 -0.0580  0.1407
47279W        W56079  26.987   0.672  10.002  0.0010  0.0040 -0.1243
47280W        W56080  26.712   1.602   6.258  0.1657  0.3306  0.0687
47281W        W56081  21.993   1.809  24.134  0.0204 -0.2827 -0.0175
47282W        W56082   6.572   4.354   7.389  0.1404 -0.2433 -0.0530
47283W        W56083  14.651   0.081   1.136  0.0709 -0.1156 -0.0263
47284W        W56084  15.034   5.036   3.372 -0.1184 -0.2804 -0.3725
47285W        W56085   7.070   4.416  20.438 -0.0776  0.0045  0.2664
47286W        W56086  22.380   6.825   3.795  0.1501  0.4123 -0.4708
47287W        W56087  19.993   2.339  19.159  0.1169 -0.2007  0.3863
47288W        W56088  31.258   0.290   6.392  0.1365  0.1339  0.2142
47289W        W56089  27.648   4.381  21.432 -0.3509  0.1091 -0.0247
47290W        W56090   9.280   5.338   3.056 -0.1234  0.4886  0.0866
47291W        W56091  19.553   6.050   1.117 -0.3222 -0.1130 -0.1444
47292W        W56092  30.696   1.876   5.503  0.2283  0.0688  0.0031
47293W        W56093   2.337   5.423   5.741 -0.0578  0.0484  0.0355
47294W        W56094   7.698   7.242  19.329 -0.2314 -0.0405  0.1178
47295W        W56095  25.182   2.585   2.076 -0.0873 -0.0492  0.2835
47296W        W56096  21.329   5.809  22.168  0.1422 -0.3903 -0.0914
47297W        W56097  29.742   4.046  15.617  0.3057 -0.2983 -0.1057
47298W        W56098  10.271   5.602  10.001  0.0803 -0.0196 -0.0099
47299W        W56099  28.567   3.405  16.909 -0.2816  0.1165  0.1800
47300W        W56100   0.714   1.910  10.769  0.0833  0.0113 -0.2280
47301W        W56101   9.147   6.637  16.516  0.4382 -0.0443  0.0711
47302W        W56102  12.009   0.521  25.163 -0.2282 -0.0929 -0.2323
47303W        W56103  25.825   2.718   9.307  0.4182 -0.1512  0.3272
47304W        W56104   4.922   3.939  25.298 -0.1252  0.1070  0.1777
47305W        W56105   0.236   5.418  10.685 -0.2396  0.0870 -0.0726
47306W        W56106   1.619   0.231  23.669  0.3402  0.0350 -0.2226
47307W        W56107   7.884   5.533   3.711 -0.0259 -0.0411 -0.0814
47308W        W56108  19.431   6.569   7.467 -0.0747 -0.2132  0.1193
47309W        W56109   9.923   2.109   4.790 -0.1681 -0.3601 -0.2367
47310W        W56110  27.308   1.746  18.843 -0.1060 -0.2249 -0.1877
47311W        W56111   1.134   0.668  20.535 -0.0985  0.1682 -0.0543
47312W        W56112   6.096   1.081  25.803  0.0349  0.1903 -0.0479
47313W        W56113   6.231   4.131   8.194 -0.1354 -0.0097 -0.1092
47314W        W56114  24.065   0.858   2.636 -0.1261 -0.0131 -0.3124
47315W        W56115   8.349   7.698   7.197  0.1954  0.3789 -0.2985
47316W        W56116   1.228   4.556   9.182  0.0538  0.0090  0.0054
47317W        W56117   4.478   0.369   5.672 -0.0689 -0.1881  0.1265
47318W        W56118  29.022   3.787   4.888 -0.0791  0.1941 -0.1238
47319W        W56119  17.268   1.184  25.423 -0.1675  0.0028  0.2263
47320W        W56120  21.360   0.134   4.450 -0.1333 -0.5282 -0.2000
47321W        W56121  30.700   7.600  25.873 -0.1680 -0.1124  0.2428
47322W        W56122   6.400   6.642   1.941 -0.2016  0.0586  0.2034
47323W        W56123   9.064   1.410  16.588 -0.2827  0.0508  0.0583
47324W        W56124  29.808   0.109  20.405 -0.2507  0.2658 -0.1912
47325W        W56125  14.855   0.641  24.447 -0.2043 -0.1416 -0.2140
47326W        W56126  22.227   6.222  14.764  0.3387 -0.2835  0.0176
47327W        W56127  18.894   4.081  10.023 -0.0497 -0.0905 -0.2924
47328W        W56128   8.551   6.281   8.086 -0.0076 -0.1023  0.1770
47329W        W56129   3.414   7.688  17.891  0.2905  0.1089 -0.2319
47330W        W56130   1.696   4.479  18.975  0.2738  0.0563  0.3275
47331W        W56131  26.368   0.500  21.898  0.1943  0.1062  0.0013
47332W        W56132  12.801   2.494   3.832  0.1348 -0.2476 -0.1903
47333W        W56133  16.590   0.150  24.029  0.1438 -0.0029  0.3165
47334W        W56134   3.192   4.344  20.654 -0.2451  0.4776 -0.3049
47335W        W56135   4.436   0.584   4.843 -0.2146  0.1286 -0.1337
47336W        W56136  13.086   7.366   8.003 -0.1137  0.0068 -0.1552
47337W        W56137  22.940   3.986  18.435  0.1689  0.1063 -0.2374
47338W        W56138   5.280   0.026  18.115  0.2426  0.2169  0.0026
47339W        W56139   4.034   6.902  20.233  0.1522 -0.2281  0.2378
47340W        W56140  23.444   5.977   0.472  0.5014  0.0609  0.2522
47341W        W56141  20.037   7.528  16.533  0.0772 -0.4666 -0.2624
47342W        W56142   6.272   5.769  16.351 -0.3144 -0.2719 -0.2875
47343W        W56143   3.572   2.085  18.349 -0.0325  0.2629  0.2368
47344W        W56144  17.492   5.391   7.705  0.2036 -0.2994  0.0427
47345W        W56145   2.926   0.364  20.565 -0.1461  0.1710 -0.1790
47346W        W56146  10.505   4.988  15.954 -0.0636  0.1061 -0.0000
47347W        W56147  15.573   5.753  19.185  0.2825 -0.1635 -0.0186
47348W        W56148  17.752   5.999   8.189 -0.1824 -0.3226 -0.1700
47349W        W56149  19.437   3.585  10.611 -0.0940 -0.1166  0.2943
47350W        W56150  26.347   5.561   8.101 -0.1715  0.1334 -0.2893
47351W        W56151   0.357   1.642  20.906 -0.3161  0.5224  0.1456
47352W        W56152  24.560   1.912   1.125  0.1047  0.0674  0.2294
47353W        W56153  21.960   0.458   3.005  0.0003  0.1348 -0.2535
47354W        W56154   1.454   0.635   1.557  0.0053 -0.0097 -0.0917
47355W        W56155  21.643   1.471   4.555 -0.1990  0.1857  0.0885
47356W        W56156   8.570   5.477   5.458  0.0190  0.2026  0.0348
47357W        W56157  22.262   6.512   5.171 -0.0405 -0.2882  0.1713
47358W        W56158   4.140   1.930   6.431 -0.1481  0.1420 -0.2826
47359W        W56159   3.457   5.859   9.816 -0.0356  0.0173  0.1142
47360W        W56160  20.311   5.685  22.207 -0.0903  0.0891 -0.2290
47361W        W56161  29.301   1.698   0.732  0.0469  0.3410  0.0623
47362W        W56162  11.047   3.474   2.093 -0.0997  0.1406  0.2422
47363W        W56163   5.711   4.816   1.233 -0.2324 -0.0874 -0.0133
47364W        W56164  20.980   7.274   6.926  0.2148 -0.1246 -0.1819
47365W        W56165   4.490   4.382   2.370  0.1121 -0.0309 -0.2166
47366W        W56166  11.633   1.993   2.234 -0.3144  0.1049  0.0954
47367W        W56167  15.510   0.970   3.380 -0.2559 -0.2055  0.1906
47368W        W56168  18.478   7.171   2.191  0.1415 -0.0512  0.0679
47369W        W56169  17.651   5.436  15.390 -0.1126 -0.3097  0.0434
47370W        W56170   9.590   1.213  23.644 -0.3542 -0.0744 -0.0301
47371W        W56171  28.452   4.781  19.944  0.0637 -0.1908 -0.0402
47372W        W56172  16.232   5.797  18.091 -0.2502  0.1510 -0.3001
47373W        W56173  11.888   3.049   0.956 -0.0759  0.1603  0.0925
47374W        W56174  25.565   1.205   7.634  0.0866 -0.1259 -0.4364
47375W        W56175   7.684   4.822   1.479 -0.2363  0.0061  0.0245
47376W        W56176  30.888   6.152   8.440 -0.0030 -0.0891  0.1924
47377W        W56177  22.658   0.624  18.156  0.0282 -0.1769 -0.1016
47378W        W56178  23.313   3.188   2.631  0.1860  0.1135 -0.1252
47379W        W56179  27.154   3.513  21.301 -0.1047 -0.3451  0.1347
47380W        W56180   5.351   0.460  17.160 -0.0476  0.0631 -0.1018
47381W        W56181  18.400   2.907  10.063  0.0357  0.0128 -0.2211
47382W        W56182  21.533   3.041  20.860 -0.0394 -0.3757  0.1757
47383W        W56183  19.679   0.767   7.269 -0.0595 -0.1399  0.1189
47384W        W56184  12.779   0.637   2.362 -0.0759  0.0715  0.0175
47385W        W56185  16.656   3.784   0.410  0.2715 -0.0714 -0.2850
47386W        W56186  22.881   5.334   6.725 -0.1090  0.0995 -0.1184
47387W        W56187  30.771   4.934   0.526 -0.1789 -0.2380  0.0478
47388W        W56188   7.884   1.193  20.114 -0.2588 -0.0019  0.2625
47389W        W56189  13.107   0.632   8.774 -0.2482 -0.0101 -0.1233
47390W        W56190  19.326   3.961   9.668 -0.0740 -0.0220  0.0115
47391W        W56191  15.925   3.880  19.688  0.0490 -0.0287 -0.2192
47392W        W56192  20.655   1.253  23.137 -0.2153 -0.2931 -0.0674
47393W        W56193   3.361   2.677   1.565 -0.0993 -0.0494 -0.1243
47394W        W56194  11.893   4.632  17.117  0.2402 -0.0718 -0.1006
47395W        W56195  14.641   4.591   1.859  0.1690 -0.2145 -0.3050
47396W        W56196  10.078   4.170  24.614  0.2276 -0.2953  0.1691
47397W        W56197  14.629   6.264   8.191  0.1132  0.1015 -0.2412
47398W        W56198  17.332   2.484  24.843  0.3129  0.0479  0.0375
47399W        W56199  22.070   1.073  20.809  0.1257  0.0936 -0.0316
47400W        W56200  11.695   5.403  21.147  0.0908 -0.4166  0.0184
47401W        W56201   7.371   1.177  20.249 -0.1295  0.2038  0.0491
47402W        W56202  18.139   3.510   4.725 -0.0747  0.0131  0.0087
47403W        W56203  24.120   1.918   9.059  0.1422 -0.1811  0.1227
47404W        W56204   9.057   7.057   1.333 -0.0287  0.3701 -0.5088
47405W        W56205  10.009   5.303  20.911  0.0034 -0.0499 -0.0847
47406W        W56206   5.221   2.576  20.911  0.1497 -0.0612 -0.1961
47407W        W56207  12.575   3.918  25.729  0.0262 -0.0353  0.0458
47408W        W56208   7.330   4.780  25.656  0.1672 -0.1145 -0.3255
47409W        W56209  23.812   5.376  22.104 -0.1402 -0.0195  0.0491
47410W        W56210  23.501   2.286   6.536  0.0819 -0.3212 -0.1461
47411W        W56211  14.126   6.171   5.917 -0.0525 -0.0987 -0.2982
47412W        W56212   1.087   0.735  25.984 -0.0143  0.0280 -0.1358
47413W        W56213  16.065   5.473   7.179  0.0909 -0.2776  0.4385
47414W        W56214   1.804   1.018   7.255 -0.0452  0.2150  0.2598
47415W        W56215   2.930   2.092  18.962 -0.4108 -0.2881 -0.0935
47416W        W56216  23.187   6.032  22.773 -0.1415 -0.2554  0.0022
47417W        W56217  25.484   6.522   2.377  0.1979 -0.0423 -0.1520
47418W        W56218  15.507   0.827   4.378  0.2532  0.0969 -0.1436
47419W        W56219  27.227   3.083   1.449  0.3213 -0.0466  0.2878
47420W        W56220  21.825   5.360  17.371 -0.0882  0.0728  0.2543
47421W        W56221  12.555   4.175   5.622 -0.1247 -0.1696 -0.0564
47422W        W56222  29.163   2.429   2.472  0.2264  0.0531  0.0589
47423W        W56223  18.165   1.673  18.875  0.2964 -0.0211 -0.2391
47424W        W56224  10.703   2.210  21.705  0.1872  0.2933 -0.1055
47425W        W56225   7.091   4.302  19.400  0.1190 -0.1657 -0.1842
47426W        W56226  29.088   6.916   6.078  0.0384  0.0016  0.3889
47427W        W56227   6.741   0.305   8.762  0.2740  0.2596  0.0737
47428W        W56228   8.790   1.296  10.050  0.2424 -0.0462 -0.2175
47429W        W56229  21.872   2.654  21.099 -0.2580 -0.4796  0.0760
47430W        W56230  14.737   3.743   8.593  0.0887  0.0549  0.0141
47431W        W56231   9.604   0.472  24.716  0.1213 -0.0502 -0.0730
47432W        W56232  10.372   1.106   0.340 -0.2775  0.1280 -0.1115
47433W        W56233   1.312   2.011  16.665  0.2907 -0.2115  0.1064
47434W        W56234  23.133   4.007  25.511  0.1579 -0.1392  0.2277
47435W        W56235  24.773   5.010   0.649  0.1626 -0.0575  0.1304
47436W        W56236  18.780   5.832  18.721 -0.0545  0.3674  0.0806
47437W        W56237  13.539   4.139   1.886  0.0188  0.2468  0.0089
47438W        W56238  13.580   2.565  21.264  0.1342  0.1211 -0.0038
47439W        W56239   6.875   6.723   1.168 -0.0061  0.0031 -0.1508
47440W        W56240  14.393   0.790   5.920 -0.2504 -0.2937  0.1069
47441W        W56241  16.545   1.149   9.128  0.2596  0.0665  0.2198
47442W        W56242  23.755   7.449  23.283 -0.1552  0.0052  0.3440
47443W        W56243  20.662   4.853  21.042 -0.0334  0.0857  0.2203
47444W        W56244   8.280   7.548  16.938  0.2989 -0.0832 -0.0783
47445W        W56245  22.043   5.459  21.766 -0.0052  0.1466  0.0271
47446W        W56246  18.962   2.994   8.008  0.1512 -0.0537  0.1525
47447W        W56247  10.866   0.435  23.393  0.3526 -0.0712 -0.1110
47448W        W56248  13.272   7.149   9.821 -0.1062 -0.0447  0.0360
47449W        W56249  27.739   3.905   4.389 -0.2088  0.0721 -0.2006
47450W        W56250  22.495   3.655   5.873 -0.1946  0.1729 -0.0029
47451W        W56251  21.275   4.164   7.547 -0.0213  0.0109 -0.2389
47452W        W56252   4.028   4.751  20.463 -0.0715 -0.1080  0.3608
47453W        W56253  30.443   4.540   2.880 -0.1367 -0.0048  0.0532
47454W        W56254  23.144   3.104   3.142  0.1265  0.2370  0.0096
47455W        W56255  11.142   3.592  22.387  0.0551  0.0531  0.3427
47456W        W56256  15.461   2.111  26.111  0.0869  0.1380  0.0586
47457W        W56257  19.366   2.497  20.576  0.0674  0.1309  0.0830
47458W        W56258   6.142   1.651  17.738 -0.0051 -0.2838  0.0277
47459W        W56259   8.148   7.787   6.419  0.0355  0.0761  0.0564
47460W        W56260   3.516   0.992  22.465  0.1081  0.0328  0.4535
47461W        W56261  17.782   0.961  24.719  0.0134  0.0490  0.1121
47462W        W56262  16.497   2.566   0.230 -0.5361  0.0388 -0.1953
47463W        W56263  26.539   4.599   5.086  0.1782 -0.1137  0.2553
47464W        W56264  23.853   2.968  17.309  0.0568  0.0250 -0.0210
47465W        W56265   8.710   7.818   2.876 -0.3461  0.0484 -0.1265
47466W        W56266  27.959   0.880   0.458 -0.1329 -0.3203  0.1147
47467W        W56267  27.015   4.101   9.759 -0.4811  0.1363  0.0140
47468W        W56268  12.696   1.279   5.032  0.1218  0.0598  0.0330
47469W        W56269  16.371   6.941  23.303  0.2195  0.0499  0.0006
47470W        W56270  29.329   1.539   2.846  0.0485 -0.0716  0.1940
47471W        W56271  14.059   6.551  16.091  0.1152 -0.0360 -0.1524
47472W        W56272  21.698   1.902   3.522 -0.0588 -0.2241  0.2428
47473W        W56273   8.325   0.187  19.175 -0.0969 -0.1707  0.1643
47474W        W56274  10.974   1.427  23.934 -0.0607  0.2379  0.0199
47475W        W56275  26.476   3.391   5.883 -0.0869 -0.3513  0.0183
47476W        W56276  18.639   0.810   0.575  0.0542  0.1363  0.2180
47477W        W56277  18.727   1.597   4.886  0.0808  0.2057 -0.0852
47478W        W56278  29.389   1.753   3.672  0.0062  0.1339  0.2060
47479W        W56279  16.600   7.654   3.234  0.1226 -0.3351  0.3081
47480W        W56280   4.887   6.017  22.125 -0.1242  0.0554  0.0617
47481W        W56281  14.784   0.976  14.617 -0.1869  0.0402  0.1810
47482W        W56282  13.670   4.927  24.830 -0.0212  0.0189 -0.1576
47483W        W56283  27.647   5.480  19.090  0.1769 -0.1599 -0.2251
47484W        W56284  19.158   4.974  14.401 -0.0752 -0.0305 -0.0626
47485W        W56285  24.193   1.905  21.106 -0.0499  0.2196 -0.0355
47486W        W56286  26.020   2.257   3.895 -0.3732  0.0812  0.2364
47487W        W56287  10.731   3.986  18.037 -0.1844 -0.1604 -0.3043
47488W        W56288   8.899   3.151  24.018 -0.2197 -0.0209 -0.0619
47489W        W56289   1.099   0.589  18.428 -0.0420 -0.1280  0.1012
47490W        W56290  21.080   0.656   9.210  0.3940 -0.2201 -0.0153
47491W        W56291   7.147   1.430  24.431  0.1479 -0.3603  0.1143
47492W        W56292   5.307   5.460   8.938 -0.1515 -0.3129 -0.1361
47493W        W56293   0.014   3.577  21.457  0.2409  0.2426 -0.0594
47494W        W56294   7.786   5.138  18.908  0.1535 -0.3681  0.3197
47495W        W56295  17.017   0.175  25.974  0.0830 -0.2146 -0.1243
47496W        W56296   9.997   0.732   6.941  0.0998 -0.0033 -0.0972
47497W        W56297   7.731   7.169  18.378  0.2020 -0.1276 -0.2465
47498W        W56298  27.320   2.326  24.924  0.2509 -0.1335  0.2843
47499W        W56299  14.358   7.540  10.492  0.0377  0.0367  0.2807
47500W        W56300  26.137   4.964  22.987  0.0220 -0.0651  0.0893
47501W        W56301  13.703   6.939   3.751 -0.0156  0.1444 -0.2048
47502W        W56302   1.378   7.804   9.993  0.0491 -0.0746  0.0223
47503W        W56303   6.336   5.580   1.313  0.1148  0.2561 -0.1820
47504W        W56304  11.212   7.809   4.260  0.1455 -0.1154 -0.1843
47505W        W56305  10.216   0.462  25.444  0.2006 -0.1954  0.0927
47506W        W56306  24.688   0.808   0.682  0.3300  0.1125 -0.1209
47507W        W56307  28.250   2.776  24.935  0.0466 -0.2057  0.0553
47508W        W56308   5.636   5.065  18.035  0.1196  0.0977 -0.0666
47509W        W56309  20.853   4.246   3.575  0.1733 -0.0570 -0.0209
47510W        W56310  16.326   1.587  21.519 -0.0100 -0.0532 -0.1002
47511W        W56311  10.805   4.942  22.925  0.1743 -0.0232 -0.5453
47512W        W56312  17.368   1.989  23.989 -0.0819 -0.0473 -0.1882
47513W        W56313  29.098   5.246   7.650  0.0182  0.2172 -0.0938
47514W        W56314   4.661   5.122   4.247 -0.0341  0.0404  0.0525
47515W        W56315  10.555   2.959  17.131  0.0824  0.3232  0.0047
47516W        W56316  21.471   3.405  20.395 -0.2141 -0.0507 -0.2743
47517W        W56317  28.107   6.019   2.109  0.2816 -0.1877 -0.2088
47518W        W56318  13.524   1.615   8.777  0.2199 -0.2228 -0.0547
47519W        W56319  14.658   0.349   9.730  0.0936 -0.1372 -0.2648
47520W        W56320  29.230   4.844  23.125 -0.2235  0.0323  0.1421
47521W        W56321  23.249   4.047   5.345  0.2023  0.0497  0.0325
47522W        W56322  18.184   5.202  18.737 -0.0170  0.1599  0.0078
47523W        W56323  12.604   6.687   5.263  0.0014  0.0606  0.1099
47524W        W56324   4.456   0.628   3.456  0.0419  0.0096 -0.0542
47525W        W56325  30.248   1.173  10.135  0.1307 -0.1967  0.1129
47526W        W56326  15.714   6.216  24.155  0.2313 -0.0611 -0.1465
47527W        W56327  29.934   2.758  10.934  0.1410 -0.6218 -0.2738
47528W        W56328  17.491   2.904   2.338  0.1783  0.0887 -0.0406
47529W        W56329   8.472   0.959  25.417 -0.0437 -0.0987  0.2154
47530W        W56330  18.765   7.417  20.052  0.0115  0.2174 -0.0556
47531W        W56331  30.621   6.882   1.114  0.1332 -0.0593  0.0572
47532W        W56332  18.480   4.302  16.673 -0.2816  0.0437 -0.0320
47533W        W56333   3.151   0.823  16.691 -0.0161 -0.2724 -0.1054
47534W        W56334   2.576   7.674  17.353 -0.0401 -0.2109  0.1171
47535W        W56335   9.642   5.337  18.330 -0.0935  0.0469  0.3942
47536W        W56336   7.340   4.311   6.639  0.2116  0.1432 -0.2309
47537W        W56337   3.694   5.819   4.465  0.0266 -0.2380 -0.2826
47538W        W56338   5.230   6.295   6.941  0.4752  0.0516  0.1563
47539W        W56339  11.187   7.458  11.467  0.0140 -0.1016  0.0873
47540W        W56340   4.512   7.660  25.423  0.0638 -0.0091  0.1332
47541W        W56341  10.366   0.130  23.887 -0.1065  0.2737 -0.0061
47542W        W56342  21.923   5.786  14.909  0.0240 -0.1996 -0.1860
47543W        W56343   9.200   4.210  26.095  0.0386 -0.0712 -0.3123
47544W        W56344  20.573   2.133   9.037  0.0636 -0.1005  0.0631
47545W        W56345  13.633   3.674  21.507  0.0454 -0.0904  0.0315
47546W        W56346   7.969   6.027   2.951 -0.0160  0.2308 -0.0663
47547W        W56347  20.486   7.620  15.772  0.1981  0.1449  0.1268
47548W        W56348  25.061   0.003  24.546  0.1098  0.2856  0.0968
47549W        W56349  26.328   0.640  25.809  0.2193 -0.0292 -0.0197
47550W        W56350  22.325   3.117  23.954  0.0185  0.0731 -0.2791
47551W        W56351  30.580   3.772  24.827 -0.1638 -0.3855  0.2155
47552W        W56352  29.347   6.717  19.591 -0.0841 -0.2516  0.1437
47553W        W56353   0.112   1.367  20.080  0.1641 -0.0848 -0.0740
47554W        W56354  13.258   5.041   8.100  0.0741  0.2009  0.0789
47555W        W56355  14.970   4.774   4.613 -0.0218 -0.1663  0.3318
47556W        W56356  22.891   7.286  18.815  0.0027  0.1538 -0.1804
47557W        W56357  14.182   0.714  25.424 -0.1291  0.1050  0.1251
47558W        W56358  24.392   4.904  20.430 -0.3156 -0.1409  0.0725
47559W        W56359  24.366   3.024   6.719  0.0766  0.1747  0.2803
47560W        W56360   1.494   4.586  10.804 -0.0450  0.3161  0.1105
47561W        W56361  19.630   2.029  23.880 -0.2008 -0.0637  0.3640
47562W        W56362   1.248   6.346  10.999 -0.0462  0.1137 -0.2668
47563W        W56363  29.958   1.285  23.329 -0.3318 -0.1577  0.2912
47564W        W56364  16.757   3.532   5.178  0.4377  0.2806 -0.2363
47565W        W56365  16.614   0.560   9.834 -0.0918 -0.0292 -0.0079
47566W        W56366  25.054   3.184  16.201 -0.1271 -0.0131 -0.1891
47567W        W56367   0.489   5.182  25.749  0.1647 -0.2433 -0.0009
47568W        W56368  15.617   2.390   6.289  0.2979  0.1871 -0.1764
47569W        W56369  20.044   6.099   9.193 -0.1717  0.0179  0.3737
47570W        W56370  23.363   2.572  19.576  0.1128  0.0669 -0.0410
47571W        W56371  22.547   6.190  24.344 -0.0153  0.2123 -0.2375
47572W        W56372  24.707   5.987  18.681  0.0499  0.2677 -0.1208
47573W        W56373   7.048   0.990   2.951  0.3170  0.1798  0.1386
47574W        W56374  28.838   4.657   9.060  0.2119  0.0858  0.0439
47575W        W56375  27.557   7.194   7.899 -0.2483 -0.0197 -0.0150
47576W        W56376  29.763   3.115   2.982  0.0291  0.0536  0.1293
47577W        W56377  25.037   1.102  21.457  0.2322 -0.0799 -0.1556
47578W        W56378   0.920   1.845   6.471 -0.5066  0.1604  0.1986
47579W        W56379   4.249   2.729  17.293 -0.0691 -0.0776 -0.2980
47580W        W56380  10.115   4.214   0.955 -0.2370  0.2766 -0.0341
47581W        W56381   0.854   1.127   2.389  0.2846 -0.1107 -0.0274
47582W        W56382  16.733   4.242   2.846  0.3762  0.3149  0.1443
47583W        W56383   2.196   6.881  23.861 -0.0113  0.0133 -0.2026
47584W        W56384  28.170   4.325  21.891  0.2457 -0.1316  0.0687
47585W        W56385   1.714   1.960  23.511 -0.1819  0.2535 -0.2084
47586W        W56386  24.261   5.736   2.789 -0.1877  0.0467  0.3253
47587W        W56387  28.960   6.685   4.024 -0.1438  0.1999  0.0032
47588W        W56388  21.489   7.578  25.715  0.1450  0.3171 -0.0115
47589W        W56389  24.914   0.559   7.413 -0.2488 -0.1029  0.2262
47590W        W56390  26.929   6.277   4.186 -0.2408  0.1727  0.0126
47591W        W56391  16.622   1.705  22.795  0.0139  0.1149  0.0082
47592W        W56392  27.403   1.385  25.328 -0.1128  0.1286 -0.0115
47593W        W56393  10.206   1.884   6.726  0.0736 -0.0081 -0.0946
47594W        W56394  19.985   2.038   2.372  0.0402 -0.1341 -0.0962
47595W        W56395  15.866   0.986   7.746 -0.5483  0.0279  0.1737
47596W        W56396  22.364   3.721   2.695 -0.2124 -0.2876 -0.0926
47597W        W56397  22.160   2.656  24.036 -0.2152  0.1447 -0.2179
47598W        W56398  17.061   2.291  18.996  0.1299 -0.1558  0.2694
47599W        W56399  16.313   0.466   1.521  0.2834 -0.0483  0.1532
47600W        W56400  20.669   5.865  22.960 -0.1468 -0.0364 -0.0361
47601W        W56401  12.334   7.259  17.784  0.0507  0.2088 -0.0254
47602W        W56402  23.557   4.409   1.451  0.0439 -0.0700 -0.1138
47603W        W56403  23.256   2.064  20.757  0.5172  0.0632  0.0505
47604W        W56404  13.332   1.728  17.395  0.1463  0.1070 -0.0660
47605W        W56405  18.257   3.352   6.605  0.0160  0.1091  0.0976
47606W        W56406  14.561   3.670   9.693 -0.3182 -0.0603 -0.1586
47607W        W56407   5.211   4.501   2.071 -0.4901  0.0167  0.2576
47608W        W56408   2.281   4.667   5.793 -0.0147 -0.1175  0.1459
47609ION     NA56409  21.284   7.533  19.119 -0.0825 -0.4263  0.1011
47610ION     NA56410   4.080   0.027   3.562 -0.0818 -0.1921 -0.1485
47611ION     NA56411   8.834   6.615   0.245 -0.3107 -0.5202 -0.3854
47612ION     NA56412  17.058   6.198   6.391 -0.1590  0.3392  0.1191
47613ION     NA56413   6.722   3.388  17.461  0.5290  0.0273 -0.0444
47614ION     NA56414  11.506   6.362  21.815  0.3543 -0.1778 -0.4654
47615ION     NA56415  10.332   1.968   6.021  0.1498 -0.0118 -0.0673
47616ION     NA56416  10.904   6.891  22.754 -0.1336 -0.5716 -0.0114
47617ION     NA56417  14.463   1.295  16.551 -0.1224  0.4637 -0.4886
47618ION     NA56418  10.174   1.773   4.799 -0.2042  0.3002 -0.2420
47619ION     NA56419  27.255   2.156  10.464  0.5005  0.2856  0.0254
47620ION     NA56420   2.662   4.478   6.655 -0.4697  0.3419  0.1674
47621ION     NA56421   0.392   7.051  24.657 -0.3989  0.0563  0.1644
47622ION     NA56422  13.293   1.274   9.388  0.1911 -0.3689 -0.2898
47623ION     NA56423  13.898   6.930  16.038  0.1594  0.3618  0.2233
47624ION     NA56424  27.527   0.488  19.757  0.2658  0.1958 -0.3980
47625ION     NA56425  17.584   5.078   4.992  0.0555  0.2195  0.0689
47626ION     NA56426  30.519   4.708  20.469 -0.0556  0.2827 -0.2983
47627ION     NA56427   9.153   0.320   5.039  0.3473 -0.1302 -0.1877
47628ION     NA56428   0.680   4.022   5.565 -0.0099  0.2209 -0.3324
47629ION     NA56429   3.092   4.207  10.965 -0.3245  0.2642  0.1759
47630ION     NA56430  30.291   2.978   5.429 -0.2741 -0.1155  0.0550
47631ION     NA56431  23.831   6.586   6.322  0.3220 -0.0269 -0.4034
47632ION     NA56432  14.713   3.428  23.910  0.5145  0.2002 -0.0038
47633ION     NA56433   8.171   7.795  20.389 -0.2647  0.0339 -0.0223
47634ION     NA56434  22.191   3.131   1.050 -0.0001  0.7518  0.2526
47635ION     NA56435  19.056   3.732  25.045 -0.1182  0.0579 -0.3038
47636ION     NA56436  22.391   5.833  18.624  0.2297 -0.2269 -0.0934
47637ION     NA56437   5.033   2.744  21.282  0.1765 -0.2247  0.0965
47638ION     NA56438  22.188   5.048  15.219  0.1487  0.0247 -0.0840
47639ION     NA56439  28.692   6.845  19.168  0.2561  0.1832 -0.0648
47640ION     NA56440  27.776   6.578   8.352  0.4517 -0.1844  0.1207
47641ION     NA56441  30.570   1.773  17.892 -0.0306 -0.3634 -0.2796
47642ION     NA56442  19.656   3.100   1.689 -0.0320  0.1007  0.0051
47643ION     NA56443   9.646   3.043   1.491  0.3204 -0.2151 -0.2499
47644ION     NA56444   1.309   2.262  11.219  0.0219 -0.4799  0.0247
47645ION     NA56445  15.789   1.207  18.765  0.0243 -0.1629  0.4864
47646ION     NA56446  17.341   3.284   1.427 -0.4655  0.0658 -0.0599
47647ION     NA56447   0.773   2.197   2.479  0.2630 -0.0272  0.1438
47648ION     NA56448  27.409   6.424  17.307  0.0250 -0.0334 -0.2338
47649ION     NA56449  10.547   0.525   8.341 -0.4675 -0.2227  0.0983
47650ION     NA56450  16.713   1.739  22.137 -0.0856  0.0471  0.0643
47651ION     NA56451   1.026   6.036  18.515 -0.0090 -0.2561 -0.0952
47652ION     NA56452  17.995   4.729  20.855  0.2077  0.0050  0.1258
47653ION     NA56453  16.573   0.478  15.142 -0.2048  0.2017  0.1790
47654ION     NA56454  14.050   5.873   2.368 -0.2409  0.0135  0.5265
47655ION     NA56455   8.398   5.601  24.433  0.3324 -0.1160 -0.3860
47656ION     NA56456  16.226   5.745   1.424  0.1982 -0.4157  0.3184
47657ION     NA56457  11.263   3.605   4.862 -0.4470 -0.1337  0.0646
47658ION     NA56458  18.865   3.801   7.081 -0.4647  0.1059 -0.2493
47659ION     NA56459  20.446   7.067  24.443  0.1416  0.2390 -0.1966
47660ION     NA56460  11.517   1.894  16.368  0.1496  0.3618  0.0831
47661ION     NA56461  14.495   2.609   3.922 -0.1736 -0.1035  0.0992
47662ION     NA56462  10.722   3.944   8.715  0.3413 -0.0252  0.2240
47663ION     NA56463  26.006   4.206   6.568 -0.3541 -0.0895 -0.6006
47664ION     NA56464   6.177   4.953   6.559  0.0255 -0.2041  0.1069
47665ION     NA56465  26.122   1.636  10.739 -0.0955  0.2705  0.0195
47666ION     NA56466   4.689   7.417   9.498  0.3985  0.1819  0.0324
47667ION     NA56467  29.559   0.865  23.701 -0.1425 -0.4502 -0.2138
47668ION     NA56468  22.442   3.057  25.833  0.1289 -0.0165 -0.2943
47669ION     NA56469  12.413   4.905   6.459  0.1054  0.0959  0.3760
47670ION     NA56470  16.840   7.223  16.558 -0.0801  0.4020  0.3851
47671ION     NA56471   3.660   2.580   5.615  0.1051 -0.0953 -0.4270
47672ION     NA56472  30.907   1.257   5.084  0.3304  0.5890 -0.1517
47673ION     NA56473  18.484   2.127  17.293 -0.0409  0.3139 -0.0145
47674ION     NA56474  15.805   0.482  25.710 -0.3968 -0.1169  0.2139
47675ION     NA56475   8.777   5.704  21.057  0.1367  0.3758 -0.1569
47676ION     NA56476  14.438   4.989   3.800 -0.2653  0.1537 -0.0531
47677ION     NA56477   5.180   4.997   7.097  0.0735  0.0409 -0.0362
47678ION     NA56478  31.252   4.044  25.441 -0.0388  0.1539  0.2348
47679ION     NA56479   8.876   7.215  16.935 -0.2473  0.0970  0.1742
47680ION     NA56480  13.579   3.432  20.938  0.1137 -0.1212 -0.6157
47681ION     NA56481  23.627   2.010   1.710  0.3444  0.2520 -0.4260
47682ION     NA56482  18.065   7.342   9.429 -0.2968  0.2198 -0.1746
47683ION     NA56483   9.197   6.470  20.242 -0.1913 -0.0228  0.1197
47684ION     NA56484  11.849   6.158   3.062 -0.1792  0.0987  0.2625
47685ION     NA56485  14.110   1.162  21.284 -0.2313 -0.1761 -0.2283
47686ION     NA56486  27.980   1.685   5.973 -0.0254 -0.0514  0.0711
47687ION     NA56487   3.432   3.378  10.967 -0.2420 -0.0474  0.0931
47688ION     NA56488  11.680   2.837  15.377  0.2657  0.0223 -0.1187
47689ION     NA56489  14.346   3.697   8.756 -0.3403  0.2261 -0.0027
47690ION     NA56490   2.054   2.373  22.272  0.0485  0.3237  0.0390
47691ION     NA56491  29.859   1.002  16.125 -0.3243  0.3355 -0.2069
47692ION     NA56492  11.346   2.579   7.130  0.0367  0.3333  0.0193
47693ION     NA56493   8.499   7.551  23.758  0.2053  0.3872  0.0670
47694ION     NA56494  15.900   5.231  10.192 -0.1252 -0.1372 -0.1779
47695ION     NA56495  19.833   4.872   5.400  0.0120 -0.2905  0.0736
47696ION     NA56496  18.466   6.194  20.969  0.1105  0.2853  0.5830
47697ION     NA56497  23.136   6.757   9.965 -0.1188  0.0557  0.1942
47698ION     NA56498  27.340   2.741  18.780 -0.0136 -0.1059 -0.0201
47699ION     NA56499  19.871   2.535   0.410 -0.0430 -0.1067  0.1693
47700ION     NA56500  28.818   3.439  25.885 -0.1701  0.1111  0.0824
47701ION     NA56501   9.169   2.846  17.086  0.0980 -0.0193 -0.3483
47702ION     NA56502   5.964   3.280  17.627  0.2628 -0.0123  0.2707
47703ION     NA56503   9.539   6.341   2.218  0.0195  0.1952  0.2817
47704ION     NA56504  11.333   1.720   1.067 -0.2985  0.1713  0.0453
47705ION     NA56505  24.493   3.475  17.918  0.0834 -0.1880  0.3993
47706ION     NA56506   0.627   3.974  16.535 -0.2012  0.5075  0.2936
47707ION     NA56507   8.423   1.035  19.595 -0.1122 -0.1629 -0.2181
47708ION     NA56508  24.977   3.248  17.217 -0.1909 -0.0699 -0.4209
47709ION     NA56509  20.307   7.242   2.617 -0.1253  0.3564  0.3781
47710ION     NA56510  19.266   3.678   0.448 -0.2400 -0.3625  0.2706
47711ION     NA56511  20.428   0.198  22.065 -0.2385 -0.4360  0.0190
47712ION     NA56512   3.474   4.728   0.724  0.3745  0.0533 -0.0190
47713ION     NA56513  20.523   0.475   7.134  0.7573  0.1436 -0.2474
47714ION     NA56514  30.595   0.121  18.970  0.4884  0.0730 -0.4103
47715ION     NA56515  10.125   2.897  23.863 -0.0166  0.5046 -0.1533
47716ION     NA56516  17.089   4.359   0.834  0.1161  0.2472 -0.0482
47717ION     NA56517  12.703   3.662  10.935 -0.1856  0.4332 -0.1406
47718ION     NA56518  19.729   3.396  25.022 -0.1894  0.3745  0.0685
47719ION     NA56519  11.539   0.517   6.909 -0.2876 -0.0065  0.2573
47720ION     NA56520   4.832   3.982   5.907  0.0389  0.4141  0.2007
47721ION     NA56521  27.596   5.458  18.076 -0.4284 -0.5694 -0.2633
47722ION     NA56522  21.231   1.614  22.856 -0.1084  0.0290 -0.1093
47723ION     NA56523  16.522   5.523  23.044 -0.1160  0.4464  0.0653
47724ION     NA56524   0.249   5.949  17.086  0.3252  0.1939  0.2695
47725ION     NA56525   2.370   1.019  24.852  0.0481  0.4053 -0.4107
47726ION     NA56526  12.320   1.186  23.723  0.2458  0.2851  0.0054
47727ION     NA56527  12.111   2.989  20.509 -0.2515 -0.1931 -0.3439
47728ION     NA56528  23.021   0.562  10.345  0.4277  0.5944  0.5852
47729ION     NA56529  20.076   3.999  18.592  0.0543 -0.1149 -0.3046
47730ION     NA56530  19.782   3.288   4.307  0.0882 -0.2989 -0.1909
47731ION     NA56531  17.740   0.127   3.375 -0.1294  0.4743  0.1943
47732ION     NA56532  26.355   1.638  22.329 -0.0133  0.2010 -0.2174
47733ION     NA56533  17.367   6.401   9.644 -0.3949 -0.4146  0.1179
47734ION     NA56534  25.812   0.932   5.547 -0.3852  0.0143  0.1006
47735ION     NA56535  28.166   4.086   1.864 -0.0832 -0.1731 -0.0116
47736ION     NA56536   4.682   1.854  24.465  0.1779 -0.0819 -0.2418
47737ION     NA56537   6.597   4.228  18.185  0.4023 -0.1684 -0.0790
47738ION     NA56538   9.803   5.837  16.335 -0.0702 -0.3003 -0.1053
47739ION     NA56539  29.282   1.658  22.397 -0.0522  0.5271  0.1798
47740ION     NA56540  17.010   0.484   9.103 -0.1989  0.1494  0.1983
47741ION     NA56541  19.823   7.234   6.766 -0.1993  0.1018  0.1322
47742ION     NA56542  15.610   5.259   6.367  0.4087 -0.0322  0.3194
47743ION     NA56543   7.995   3.456  19.228 -0.4194  0.1057  0.1170
47744ION     NA56544  25.680   1.317   8.918 -0.1205 -0.1469 -0.2106
47745ION     NA56545  26.108   1.018  19.573 -0.1195 -0.0376  0.3762
47746ION     NA56546   3.063   5.360  10.900 -0.1711 -0.0854  0.2045
47747ION     NA56547   3.945   3.071  23.585  0.0987  0.3735 -0.2716
47748ION     NA56548  22.971   0.140   1.077 -0.1402 -0.0001  0.1372
47749ION     NA56549  18.480   0.255  22.516  0.4412  0.1297  0.3746
47750ION     NA56550  21.918   3.619   9.367 -0.3629  0.1712  0.2361
47751ION     NA56551  18.588   3.281  10.301  0.1341  0.1763  0.0227
47752ION     NA56552  12.692   3.528  23.452 -0.2899 -0.0304 -0.1074
47753ION     NA56553  26.013   2.166  21.762  0.0823 -0.2428 -0.2047
47754ION     NA56554  12.460   6.928  17.993 -0.0887 -0.7014 -0.2655
47755ION     NA56555   1.467   4.577  16.432  0.0587  0.3520  0.0862
47756ION     NA56556  11.590   4.773  22.306 -0.0950  0.3551 -0.0028
47757ION     NA56557  15.792   1.884   9.160  0.1043  0.2801  0.3539
47758ION     NA56558  24.552   1.818   9.078  0.2206 -0.2139 -0.2380
47759ION     NA56559  17.760   2.582   2.198 -0.0971 -0.2354  0.5739
47760ION     NA56560   9.399   0.220   0.418 -0.3323  0.0493  0.3567
47761ION     NA56561  14.123   4.198  26.008  0.2297 -0.0098 -0.0258
47762ION     NA56562  25.520   6.057  21.408 -0.0646  0.1470  0.0369
47763ION     NA56563  10.460   6.483   0.470  0.0191  0.1675  0.0502
47764ION     NA56564   7.449   3.029   6.840  0.0661  0.2725  0.1720
47765ION     NA56565  19.278   7.385  22.865 -0.0471 -0.2519 -0.2771
47766ION     NA56566   5.180   2.822  17.637  0.0293  0.2733 -0.3523
47767ION     NA56567   6.873   5.836   6.757  0.1755  0.1048 -0.0325
47768ION     NA56568   5.662   1.703   9.703 -0.1773  0.2938  0.1182
47769ION     NA56569  26.759   2.444  25.484  0.2969 -0.1212  0.4853
47770ION     NA56570   2.448   5.651   1.958  0.2177 -0.1144  0.0787
47771ION     NA56571  29.861   4.573  16.873  0.0741  0.2685  0.3378
47772ION     NA56572  30.202   1.642  19.721  0.3997 -0.0217  0.1656
47773ION     NA56573  30.624   3.411  17.678  0.0726  0.0502  0.0672
47774ION     NA56574  22.989   0.000   3.875  0.0637 -0.5577 -0.2286
47775ION     NA56575  28.551   7.488   3.575 -0.5942 -0.1015 -0.0566
47776ION     NA56576   5.908   6.062  24.796 -0.1627  0.1219 -0.4066
47777ION     NA56577   6.236   6.162  16.618  0.2289  0.2839  0.1200
47778ION     NA56578   7.998   5.515  25.494 -0.0378  0.0094  0.2441
47779ION     NA56579   6.476   2.974   2.269  0.2067 -0.3486 -0.2358
47780ION     NA56580  14.322   4.028   0.723 -0.0835 -0.5545  0.0574
47781ION     NA56581  20.877   1.962   0.244  0.3847  0.1373 -0.1472
47782ION     NA56582   9.216   7.508   1.311 -0.1779 -0.1373  0.2185
47783ION     NA56583  10.494   4.746  14.924  0.1347 -0.2140  0.1457
47784ION     NA56584   7.118   0.683  17.809 -0.2173  0.3888  0.0479
47785ION     NA56585  28.514   4.313   8.093  0.1570  0.1908 -0.0069
47786ION     NA56586  10.741   7.719  10.687  0.3144 -0.3074  0.4452
47787ION     NA56587   5.201   4.132   9.181 -0.2365 -0.3178  0.1132
47788ION     NA56588  13.404   6.708  25.092  0.1501 -0.0352 -0.1549
47789ION     NA56589   6.337   7.820  18.790  0.4727  0.2039  0.1627
47790ION     NA56590  20.627   1.453   4.373 -0.2668 -0.0000  0.7009
47791ION     NA56591  17.122   5.902   5.158  0.1499  0.1920 -0.2093
47792ION     NA56592  19.395   1.916   2.828 -0.2053 -0.3043  0.3521
47793ION     NA56593  11.736   6.188   4.288  0.0770  0.5841  0.1450
47794ION     NA56594  19.243   7.038  22.098 -0.2737 -0.2670 -0.1125
47795ION     NA56595  27.395   0.269   4.014 -0.0342  0.1083  0.1728
47796ION     NA56596   8.663   0.388   9.439 -0.0246 -0.3278  0.1245
47797ION     NA56597  25.347   0.867   3.893  0.2376 -0.1093 -0.4253
47798ION     NA56598  24.001   7.179   2.826  0.2039 -0.1697 -0.1511
47799ION     NA56599  21.037   0.212  20.185 -0.2136 -0.5105 -0.0092
47800ION     NA56600  22.988   2.553  22.159  0.3618 -0.3092  0.1805
47801ION     NA56601  23.942   6.186  16.818  0.2835 -0.0182  0.0471
47802ION     NA56602  14.349   4.573   9.760  0.0848 -0.1813  0.2037
47803ION     NA56603  15.097   1.171   9.450 -0.1084 -0.1277  0.1733
47804ION     CL56604  17.764   6.897  15.599 -0.3941 -0.0260  0.1904
47805ION     CL56605  17.942   5.796   4.951  0.2007  0.3656  0.1998
47806ION     CL56606  13.413   5.416  21.951  0.2880 -0.0328  0.2910
47807ION     CL56607   5.005   3.807  20.937  0.1027  0.1113  0.2904
47808ION     CL56608  27.444   5.013  19.098  0.3061  0.2857 -0.0625
47809ION     CL56609  18.399   7.421  23.082 -0.4054 -0.2628  0.1270
47810ION     CL56610   5.320   6.588   0.574  0.0667  0.1678  0.1483
47811ION     CL56611  29.978   5.306  24.814  0.4331 -0.3332  0.1231
47812ION     CL56612  21.593   5.155  23.211  0.1443  0.5244  0.2492
47813ION     CL56613   9.125   1.037   7.323 -0.2924  0.3579  0.3598
47814ION     CL56614   6.584   6.498  25.706  0.1663 -0.1685 -0.2373
47815ION     CL56615  10.128   2.721   5.227  0.1546  0.1989  0.3365
47816ION     CL56616  22.959   5.852   5.623 -0.0615  0.0178  0.2508
47817ION     CL56617  18.417   3.091  21.742 -0.2048 -0.2657 -0.2195
47818ION     CL56618  20.067   7.763  25.578  0.0486 -0.1567 -0.0827
47819ION     CL56619  19.183   7.511  16.797  0.0469  0.0923  0.2928
47820ION     CL56620  22.801   0.848  25.882 -0.1947 -0.0129 -0.2618
47821ION     CL56621   5.053   6.543  18.525  0.4198  0.0972  0.1845
47822ION     CL56622  17.354   5.363   5.648  0.0422 -0.4363 -0.3324
47823ION     CL56623  26.817   1.320   0.297  0.1217  0.0148 -0.2520
47824ION     CL56624  23.116   6.460   8.590  0.0681 -0.0408  0.2761
47825ION     CL56625   0.500   3.231   3.218  0.0155 -0.1401  0.2356
47826ION     CL56626  18.249   4.900  20.995 -0.5140 -0.2152 -0.1492
47827ION     CL56627  25.418   0.767   1.741  0.0172  0.4004  0.6946
47828ION     CL56628  28.441   4.410   0.234 -0.2414  0.0618  0.1253
47829ION     CL56629  22.149   4.063  23.695  0.2294 -0.1861  0.0319
47830ION     CL56630   3.124   6.358   8.269 -0.0158  0.0611 -0.1084
47831ION     CL56631   7.498   2.481  24.864 -0.2181  0.1760 -0.2334
47832ION     CL56632  11.063   4.330  23.616 -0.1418  0.2216 -0.0276
47833ION     CL56633  16.855   6.436   6.805 -0.0131 -0.2981  0.1894
47834ION     CL56634  24.969   4.257   9.015 -0.3105 -0.0595  0.5376
47835ION     CL56635  29.356   2.316   2.849  0.1250  0.0356  0.2703
47836ION     CL56636  14.090   4.995  20.753 -0.1355 -0.3424 -0.6254
47837ION     CL56637  19.246   4.633  23.193  0.1276  0.4685 -0.0162
47838ION     CL56638   9.908   5.356  15.770 -0.3707 -0.1851 -0.1659
47839ION     CL56639  26.997   2.152  19.776 -0.1424  0.2246 -0.2083
47840ION     CL56640   7.502   1.479  25.364  0.0469  0.4567 -0.2268
47841ION     CL56641  17.402   3.048  21.715 -0.0751 -0.0448 -0.3607
47842ION     CL56642   8.620   7.412  17.107 -0.1486 -0.2148 -0.3531
47843ION     CL56643   7.607   0.442  18.700  0.1611  0.1970 -0.1070
47844ION     CL56644  21.836   1.797   3.116 -0.0559  0.0842  0.0580
47845ION     CL56645  12.372   7.011   0.226 -0.0723 -0.1423 -0.2599
47846ION     CL56646   1.028   1.972   2.673  0.3560  0.1805 -0.0285
47847ION     CL56647   9.695   5.535   4.056  0.3697 -0.0555  0.2089
47848ION     CL56648  17.080   4.905   9.385  0.1356 -0.2147  0.1557
47849ION     CL56649   2.374   2.083  22.319 -0.0097  0.2156 -0.0406
47850ION     CL56650  15.939   6.146  24.486  0.0005 -0.1678  0.0178
47851ION     CL56651  24.449   1.550   3.233 -0.1413  0.0274  0.0512
47852ION     CL56652   0.933   4.123   0.542  0.0576 -0.1051  0.0396
47853ION     CL56653  13.308   4.542   9.285  0.1383 -0.2888  0.2602
47854ION     CL56654  23.431   5.248   4.800 -0.2958 -0.1394 -0.2599
47855ION     CL56655  22.594   3.977  21.464 -0.0841  0.1175 -0.1422
47856ION     CL56656   3.832   3.378  25.269  0.2435  0.1056  0.5274
47857ION     CL56657  11.586   4.981  23.661  0.1148  0.0839 -0.1584
47858ION     CL56658   2.112   7.443   5.545 -0.6915 -0.0132 -0.4748
47859ION     CL56659  25.004   2.579  18.990  0.2908  0.0063  0.0085
47860ION     CL56660   1.193   5.509   6.286 -0.2960 -0.0824 -0.4360
47861ION     CL56661  19.637   3.940   4.229  0.0487 -0.3175 -0.0480
47862ION     CL56662   8.247   4.535   9.478  0.2046  0.2901  0.2894
47863ION     CL56663   8.569   1.301  18.963  0.5978  0.2077  0.6174
47864ION     CL56664  14.685   5.081   3.601  0.3195 -0.4180 -0.2181
47865ION     CL56665  29.112   1.832  22.177 -0.0821 -0.6340  0.4887
47866ION     CL56666   9.889   1.174   9.419  0.1049 -0.0031  0.4190
47867ION     CL56667  15.864   4.460  10.120 -0.2151 -0.3354 -0.0736
47868ION     CL56668  11.145   1.454   5.078 -0.2207  0.1080 -0.0554
47869ION     CL56669   0.914   2.973  21.799  0.2187 -0.2240 -0.0690
47870ION     CL56670   8.050   0.179   7.329  0.0641 -0.4161 -0.0735
47871ION     CL56671  29.441   6.854  16.365 -0.3007 -0.4879 -0.0771
47872ION     CL56672  11.686   2.986  16.908 -0.2479  0.0612  0.0641
47873ION     CL56673  22.487   2.658  21.823 -0.0545 -0.1078  0.3496
47874ION     CL56674  20.130   0.002   6.779  0.2018 -0.1123  0.0867
47875ION     CL56675  25.196   6.767  21.753  0.1540 -0.3006 -0.1845
47876ION     CL56676   8.243   4.590  24.969  0.0333  0.0300  0.0682
47877ION     CL56677  22.767   0.374   9.749  0.3597 -0.1772  0.0050
47878ION     CL56678  24.982   3.356   5.490 -0.2874  0.0163 -0.0655
47879ION     CL56679  10.582   7.245  25.909 -0.3056  0.2134  0.0859
47880ION     CL56680   5.279   3.778   9.160  0.1094  0.0256 -0.0888
47881ION     CL56681   6.186   5.021   2.084  0.2279 -0.3784  0.4562
47882ION     CL56682  12.835   2.307  25.388  0.6854  0.0776  0.2648
47883ION     CL56683  22.593   5.670   3.679  0.0267 -0.2844 -0.2697
47884ION     CL56684   1.785   6.746  23.847 -0.4395  0.3614  0.3263
47885ION     CL56685  18.112   6.290  20.997  0.0699 -0.1230  0.2777
47886ION     CL56686   2.686   4.651  19.535 -0.0918 -0.1418  0.0919
47887ION     CL56687  11.510   4.545   7.076 -0.0380 -0.1422 -0.6799
47888ION     CL56688  15.790   1.811   3.192  0.3533 -0.0939  0.1874
47889ION     CL56689  24.843   7.770  24.871  0.2851  0.3254 -0.0198
47890ION     CL56690  21.688   4.093  16.837  0.1595 -0.0528  0.0661
47891ION     CL56691  27.220   6.515  17.004  0.0272  0.3274  0.2124
47892ION     CL56692  31.051   1.006  21.708  0.1359  0.2347 -0.2417
47893ION     CL56693  14.337   4.475  23.471  0.5204  0.2031 -0.3700
47894ION     CL56694  26.694   7.632   9.906  0.0974 -0.0391  0.0645
47895ION     CL56695   2.816   4.986  17.016  0.5416 -0.1033 -0.1658
47896ION     CL56696  13.071   0.327  24.132 -0.2477  0.2859  0.3594
47897ION     CL56697   9.619   3.413  24.863  0.4882  0.1037 -0.1966
47898ION     CL56698   5.820   1.015   8.607  0.1732  0.3340 -0.5104
47899ION     CL56699   8.215   4.220   4.486 -0.5635  0.0491 -0.1526
47900ION     CL56700  18.000   6.481  21.692 -0.7195 -0.2481  0.2573
47901ION     CL56701   3.560   7.729  21.501 -0.2556 -0.0597 -0.0243
47902ION     CL56702  27.572   4.162   2.517  0.2501 -0.0378  0.2701
47903ION     CL56703  28.623   2.458  18.688 -0.1250  0.0482  0.0532
47904ION     CL56704   6.533   0.861  10.401 -0.7417  0.0098  0.3815
47905ION     CL56705   2.093   2.719   4.535 -0.2005  0.1446 -0.1856
47906ION     CL56706   5.438   1.585   9.409  0.0750 -0.0890 -0.2375
47907ION     CL56707  18.202   7.399   0.290  0.0294 -0.1481 -0.3731
47908ION     CL56708  15.726   7.006  18.759  0.0653  0.6078 -0.0946
47909ION     CL56709  14.232   6.876   4.743 -0.0286  0.1337  0.4280
47910ION     CL56710  13.368   5.457   8.898  0.3497 -0.3479  0.2733
47911ION     CL56711  30.197   5.033  17.047 -0.0222  0.4070 -0.0285
47912ION     CL56712  22.051   3.001   4.069  0.0137 -0.1961 -0.0843
47913ION     CL56713  12.429   2.254   6.453 -0.1658  0.4693 -0.1760
47914ION     CL56714  10.834   4.978   6.383 -0.1041  0.2007 -0.1991
47915ION     CL56715  23.216   2.314  22.046 -0.0321 -0.0513  0.0326
47916ION     CL56716  24.588   5.397   0.262  0.1949  0.0102  0.4397
47917ION     CL56717   8.808   1.718   1.591  0.1406 -0.0530  0.0821
47918ION     CL56718  18.767   6.942  20.820  0.1153 -0.1105 -0.3063
47919ION     CL56719   5.924   1.069   6.376  0.0192  0.1845 -0.4784
47920ION     CL56720  15.406   4.195  18.282  0.0111 -0.1683  0.3659
47921ION     CL56721   2.209   0.808   1.590 -0.1085  0.2155  0.0833
47922ION     CL56722  21.016   0.100   6.407 -0.0225 -0.1741  0.0948
47923ION     CL56723  16.568   1.825  21.276 -0.0441  0.1140 -0.2146
47924ION     CL56724  12.721   6.706  20.777  0.0263 -0.1777  0.1964
47925ION     CL56725  13.545   3.966  18.474 -0.2544 -0.0494 -0.1807
47926ION     CL56726  16.436   7.405  25.885  0.0143  0.0293 -0.1677
47927ION     CL56727  22.177   3.140   1.396 -0.2767 -0.1460 -0.0023
47928ION     CL56728  15.560   3.864   3.461 -0.3167  0.2302 -0.0451
47929ION     CL56729  25.204   0.318   3.733  0.0643 -0.1243 -0.0295
47930ION     CL56730   6.986   3.992  24.035  0.0292  0.2315  0.3695
47931ION     CL56731  26.411   5.770   0.166 -0.2524 -0.0179 -0.1325
47932ION     CL56732  18.640   2.010   0.795  0.0266 -0.1396 -0.0445
47933ION     CL56733  30.379   3.516   2.248  0.2028  0.3133  0.2442
47934ION     CL56734  27.867   4.104  10.104  0.0191 -0.2003  0.2692
47935ION     CL56735  21.199   3.527  22.784 -0.2562 -0.0164  0.5651
47936ION     CL56736  29.718   2.306  25.520 -0.0199 -0.0496  0.1419
47937ION     CL56737  24.107   7.401  19.428  0.2210 -0.2591 -0.0262
47938ION     CL56738  29.183   2.654  23.151 -0.1257  0.0456  0.0365
47939ION     CL56739  12.863   5.242   2.392 -0.0339 -0.3686  0.2693
47940ION     CL56740  26.888   5.264  16.965  0.1773  0.2358  0.0769
47941ION     CL56741  25.278   7.290  22.774  0.0712  0.3935  0.2505
47942ION     CL56742  16.507   5.600   1.824 -0.4841 -0.0286 -0.0289
47943ION     CL56743   6.970   6.243  21.753  0.1853 -0.2388  0.2194
47944ION     CL56744  13.737   1.339  16.760 -0.3171  0.3234 -0.0070
47945ION     CL56745  20.936   2.845  22.456 -0.3448  0.3202  0.0769
47946ION     CL56746  31.165   4.318  20.151  0.2382  0.3961  0.1110
47947ION     CL56747  30.199   3.797   4.665  0.0150 -0.1409  0.3178
47948ION     CL56748  30.125   0.650  20.559  0.2297  0.5744  0.3328
  31.30746   7.82687  26.19077
