Written by MDAnalysis
 9400
    1DOPC   NC3    1  23.533   4.781   9.473
    1DOPC   PO4    2  23.363   4.791   9.083
    1DOPC   GL1    3  23.183   5.091   8.933
    1DOPC   GL2    4  23.323   5.221   8.733
    1DOPC   C1A    5  22.763   5.061   8.753
    1DOPC   D2A    6  22.373   4.841   8.563
    1DOPC   C3A    7  21.913   4.841   8.493
    1DOPC   C4A    8  21.473   4.741   8.333
    1DOPC   C1B    9  23.063   5.391   8.413
    1DOPC   D2B   10  22.613   5.521   8.273
    1DOPC   C3B   11  22.143   5.401   8.313
    1DOPC   C4B   12  21.743   5.681   8.143
    2DOPC   NC3   13  10.393   3.671  14.663
    2DOPC   PO4   14  10.323   4.081  14.673
    2DOPC   GL1   15  10.533   4.331  14.403
    2DOPC   GL2   16  10.703   4.071  14.323
    2DOPC   C1A   17  10.873   4.561  14.313
    2DOPC   D2A   18  11.413   4.731  14.233
    2DOPC   C3A   19  11.603   4.791  13.773
    2DOPC   C4A   20  11.833   5.081  13.413
    2DOPC   C1B   21  11.053   4.141  14.093
    2DOPC   D2B   22  11.543   4.221  13.903
    2DOPC   C3B   23  11.963   4.061  13.773
    2DOPC   C4B   24  12.343   4.221  13.493
    3DOPC   NC3   25  22.503   4.701  10.843
    3DOPC   PO4   26  22.293   4.891  11.133
    3DOPC   GL1   27  21.933   5.061  11.093
    3DOPC   GL2   28  21.813   5.281  11.253
    3DOPC   C1A   29  21.843   5.071  10.643
    3DOPC   D2A   30  21.773   5.061  10.183
    3DOPC   C3A   31  21.503   5.201   9.833
    3DOPC   C4A   32  21.303   5.401   9.463
    3DOPC   C1B   33  21.613   5.501  10.953
    3DOPC   D2B   34  21.243   5.581  10.803
    3DOPC   C3B   35  20.843   5.631  10.593
    3DOPC   C4B   36  20.383   5.561  10.463
    4DOPC   NC3   37   8.967   3.151  13.583
    4DOPC   PO4   38   9.187   2.811  13.623
    4DOPC   GL1   39   9.187   2.551  13.253
    4DOPC   GL2   40   8.977   2.721  13.113
    4DOPC   C1A   41   9.547   2.451  13.063
    4DOPC   D2A   42   9.967   2.291  12.883
    4DOPC   C3A   43  10.463   2.191  12.943
    4DOPC   C4A   44  10.623   1.781  13.123
    4DOPC   C1B   45   9.167   2.521  12.763
    4DOPC   D2B   46   9.507   2.351  12.393
    4DOPC   C3B   47   9.527   2.221  11.973
    4DOPC   C4B   48   9.657   1.871  11.623
    5DOPC   NC3   49  13.533   1.261  15.973
    5DOPC   PO4   50  13.363   0.951  15.813
    5DOPC   GL1   51  13.053   0.981  15.483
    5DOPC   GL2   52  13.293   0.891  15.383
    5DOPC   C1A   53  12.813   0.851  15.113
    5DOPC   D2A   54  12.693   1.001  14.643
    5DOPC   C3A   55  12.993   0.901  14.273
    5DOPC   C4A   56  13.403   0.691  14.133
    5DOPC   C1B   57  13.513   0.951  14.903
    5DOPC   D2B   58  13.723   0.811  14.493
    5DOPC   C3B   59  14.003   1.151  14.353
    5DOPC   C4B   60  14.203   1.571  14.293
    6DOPC   NC3   61  17.633   2.691  15.423
    6DOPC   PO4   62  17.753   2.321  15.273
    6DOPC   GL1   63  17.613   2.231  14.923
    6DOPC   GL2   64  17.383   2.171  14.883
    6DOPC   C1A   65  17.713   2.461  14.583
    6DOPC   D2A   66  17.533   2.301  14.093
    6DOPC   C3A   67  17.653   2.041  13.783
    6DOPC   C4A   68  17.753   1.661  13.463
    6DOPC   C1B   69  17.213   2.211  14.473
    6DOPC   D2B   70  17.043   2.261  13.983
    6DOPC   C3B   71  17.103   2.521  13.603
    6DOPC   C4B   72  16.913   2.601  13.153
    7DOPC   NC3   73  12.663   5.811  16.123
    7DOPC   PO4   74  12.553   6.051  15.793
    7DOPC   GL1   75  12.743   5.951  15.473
    7DOPC   GL2   76  12.623   6.191  15.293
    7DOPC   C1A   77  12.933   5.661  15.153
    7DOPC   D2A   78  13.113   5.461  14.773
    7DOPC   C3A   79  13.403   5.631  14.493
    7DOPC   C4A   80  13.343   6.051  14.263
    7DOPC   C1B   81  12.563   6.001  14.943
    7DOPC   D2B   82  12.533   5.641  14.663
    7DOPC   C3B   83  12.723   5.281  14.433
    7DOPC   C4B   84  13.093   5.191  14.123
    8DOPC   NC3   85  12.013   2.731  15.903
    8DOPC   PO4   86  12.313   2.781  15.683
    8DOPC   GL1   87  12.173   2.461  15.363
    8DOPC   GL2   88  11.983   2.661  15.273
    8DOPC   C1A   89  12.393   2.211  15.073
    8DOPC   D2A   90  12.733   2.071  14.773
    8DOPC   C3A   91  12.663   1.991  14.293
    8DOPC   C4A   92  12.573   1.731  13.853
    8DOPC   C1B   93  12.223   2.801  14.903
    8DOPC   D2B   94  12.503   2.931  14.503
    8DOPC   C3B   95  12.843   3.171  14.533
    8DOPC   C4B   96  12.963   3.521  14.873
    9DOPC   NC3   97   5.627   2.951   9.693
    9DOPC   PO4   98   5.667   2.591   9.863
    9DOPC   GL1   99   6.097   2.511   9.693
    9DOPC   GL2  100   5.997   2.731   9.423
    9DOPC   C1A  101   6.257   2.141   9.543
    9DOPC   D2A  102   6.777   2.101   9.513
    9DOPC   C3A  103   6.907   1.701   9.363
    9DOPC   C4A  104   7.057   1.271   9.573
    9DOPC   C1B  105   6.097   2.421   9.133
    9DOPC   D2B  106   6.447   2.111   9.053
    9DOPC   C3B  107   6.897   2.121   9.013
    9DOPC   C4B  108   7.337   1.931   8.933
   10DOPC   NC3  109  22.923   6.821  10.103
   10DOPC   PO4  110  22.863   7.031  10.403
   10DOPC   GL1  111  22.443   6.861  10.463
   10DOPC   GL2  112  22.443   6.911  10.213
   10DOPC   C1A  113  22.083   7.061  10.563
   10DOPC   D2A  114  21.763   6.731  10.753
   10DOPC   C3A  115  21.483   6.381  10.673
   10DOPC   C4A  116  21.173   6.021  10.453
   10DOPC   C1B  117  22.073   6.871   9.983
   10DOPC   D2B  118  21.623   7.051   9.873
   10DOPC   C3B  119  21.233   6.841   9.783
   10DOPC   C4B  120  20.833   6.671   9.593
   11DOPC   NC3  121   9.237   6.101  14.143
   11DOPC   PO4  122   9.537   6.321  14.043
   11DOPC   GL1  123   9.907   6.181  13.693
   11DOPC   GL2  124   9.847   5.951  13.823
   11DOPC   C1A  125   9.987   6.141  13.253
   11DOPC   D2A  126  10.187   6.431  12.833
   11DOPC   C3A  127  10.473   6.211  12.583
   11DOPC   C4A  128  10.883   5.941  12.403
   11DOPC   C1B  129  10.227   5.801  13.593
   11DOPC   D2B  130  10.683   5.671  13.393
   11DOPC   C3B  131  10.923   5.471  13.163
   11DOPC   C4B  132  11.173   5.121  12.883
   12DOPC   NC3  133  20.083   3.471  13.403
   12DOPC   PO4  134  20.153   3.881  13.363
   12DOPC   GL1  135  20.233   4.091  12.913
   12DOPC   GL2  136  20.013   4.211  13.063
   12DOPC   C1A  137  20.503   4.001  12.553
   12DOPC   D2A  138  20.773   3.711  12.253
   12DOPC   C3A  139  20.523   3.691  11.793
   12DOPC   C4A  140  20.183   3.851  11.493
   12DOPC   C1B  141  19.853   4.561  12.853
   12DOPC   D2B  142  19.543   4.921  12.783
   12DOPC   C3B  143  19.153   4.661  12.633
   12DOPC   C4B  144  18.683   4.451  12.713
   13DOPC   NC3  145  14.563   5.161  16.073
   13DOPC   PO4  146  14.193   5.181  15.853
   13DOPC   GL1  147  14.013   5.201  15.533
   13DOPC   GL2  148  14.203   5.501  15.533
   13DOPC   C1A  149  13.763   5.081  15.173
   13DOPC   D2A  150  13.513   4.871  14.773
   13DOPC   C3A  151  13.533   5.151  14.343
   13DOPC   C4A  152  13.523   5.521  14.023
   13DOPC   C1B  153  14.543   5.441  15.253
   13DOPC   D2B  154  14.943   5.481  15.063
   13DOPC   C3B  155  15.043   5.181  14.773
   13DOPC   C4B  156  15.233   5.141  14.333
   14DOPC   NC3  157  19.103   7.692  14.963
   14DOPC   PO4  158  19.373   0.131  14.823
   14DOPC   GL1  159  19.273   0.131  14.423
   14DOPC   GL2  160  19.493   0.041  14.323
   14DOPC   C1A  161  18.933   0.191  14.183
   14DOPC   D2A  162  18.543   0.081  13.923
   14DOPC   C3A  163  18.503   0.521  13.863
   14DOPC   C4A  164  18.323   1.011  13.713
   14DOPC   C1B  165  19.443   7.732  13.833
   14DOPC   D2B  166  19.283   7.432  13.383
   14DOPC   C3B  167  18.893   7.442  13.143
   14DOPC   C4B  168  18.523   7.192  12.933
   15DOPC   NC3  169   4.857   0.311   9.093
   15DOPC   PO4  170   4.687   0.511   8.773
   15DOPC   GL1  171   4.817   0.581   8.363
   15DOPC   GL2  172   4.547   0.511   8.243
   15DOPC   C1A  173   5.087   0.591   8.013
   15DOPC   D2A  174   5.337   0.581   7.623
   15DOPC   C3A  175   5.457   0.541   7.213
   15DOPC   C4A  176   5.447   0.311   6.793
   15DOPC   C1B  177   4.647   0.491   7.813
   15DOPC   D2B  178   4.907   0.511   7.403
   15DOPC   C3B  179   4.957   0.611   6.993
   15DOPC   C4B  180   5.137   0.891   6.663
   16DOPC   NC3  181   8.647   3.911  13.693
   16DOPC   PO4  182   8.657   3.571  13.543
   16DOPC   GL1  183   8.907   3.631  13.253
   16DOPC   GL2  184   8.737   3.591  13.063
   16DOPC   C1A  185   9.257   3.901  13.093
   16DOPC   D2A  186   9.587   4.281  12.873
   16DOPC   C3A  187   9.957   4.521  12.733
   16DOPC   C4A  188  10.167   4.881  12.683
   16DOPC   C1B  189   8.887   3.881  12.753
   16DOPC   D2B  190   9.077   4.231  12.513
   16DOPC   C3B  191   9.217   4.241  12.103
   16DOPC   C4B  192   9.497   4.411  11.763
   17DOPC   NC3  193   6.817   2.801  11.113
   17DOPC   PO4  194   6.967   2.611  11.393
   17DOPC   GL1  195   7.367   2.401  11.493
   17DOPC   GL2  196   7.537   2.691  11.563
   17DOPC   C1A  197   7.597   2.281  11.123
   17DOPC   D2A  198   8.037   2.291  10.873
   17DOPC   C3A  199   8.107   2.501  10.483
   17DOPC   C4A  200   8.087   2.451   9.953
   17DOPC   C1B  201   7.957   2.601  11.363
   17DOPC   D2B  202   8.457   2.671  11.383
   17DOPC   C3B  203   8.897   2.511  11.433
   17DOPC   C4B  204   9.287   2.251  11.423
   18DOPC   NC3  205   8.777   5.951  13.103
   18DOPC   PO4  206   8.397   5.941  13.023
   18DOPC   GL1  207   8.287   5.611  12.703
   18DOPC   GL2  208   8.557   5.481  12.803
   18DOPC   C1A  209   8.497   5.591  12.273
   18DOPC   D2A  210   8.347   5.531  11.823
   18DOPC   C3A  211   8.507   5.681  11.393
   18DOPC   C4A  212   8.867   5.991  11.183
   18DOPC   C1B  213   8.877   5.611  12.543
   18DOPC   D2B  214   9.017   5.781  12.093
   18DOPC   C3B  215   9.427   6.041  11.923
   18DOPC   C4B  216   9.927   5.891  11.993
   19DOPC   NC3  217  14.933   7.332  15.873
   19DOPC   PO4  218  15.043   6.951  15.783
   19DOPC   GL1  219  15.173   7.121  15.413
   19DOPC   GL2  220  15.353   6.871  15.413
   19DOPC   C1A  221  15.033   7.011  15.043
   19DOPC   D2A  222  14.753   6.911  14.693
   19DOPC   C3A  223  14.753   7.242  14.373
   19DOPC   C4A  224  14.793   7.382  13.873
   19DOPC   C1B  225  15.413   6.721  15.043
   19DOPC   D2B  226  15.163   6.551  14.673
   19DOPC   C3B  227  14.933   6.731  14.233
   19DOPC   C4B  228  14.943   6.891  13.713
   20DOPC   NC3  229  13.313   0.511  16.063
   20DOPC   PO4  230  13.333   0.151  15.833
   20DOPC   GL1  231  13.343   0.211  15.433
   20DOPC   GL2  232  13.523   0.121  15.333
   20DOPC   C1A  233  13.243   0.461  15.143
   20DOPC   D2A  234  12.893   0.481  14.723
   20DOPC   C3A  235  12.513   0.471  14.483
   20DOPC   C4A  236  12.383   0.821  14.193
   20DOPC   C1B  237  13.543   7.542  15.123
   20DOPC   D2B  238  13.723   7.232  14.723
   20DOPC   C3B  239  14.023   7.602  14.533
   20DOPC   C4B  240  14.433   7.592  14.233
   21DOPC   NC3  241   6.387   7.182  10.793
   21DOPC   PO4  242   6.687   7.212  11.013
   21DOPC   GL1  243   7.097   7.111  10.833
   21DOPC   GL2  244   7.177   7.272  11.053
   21DOPC   C1A  245   7.267   7.272  10.443
   21DOPC   D2A  246   7.107   7.422  10.013
   21DOPC   C3A  247   7.347   7.542   9.643
   21DOPC   C4A  248   7.667   7.412   9.333
   21DOPC   C1B  249   7.627   7.322  10.843
   21DOPC   D2B  250   8.117   7.282  10.743
   21DOPC   C3B  251   8.347   7.502  10.443
   21DOPC   C4B  252   8.577   0.001  10.133
   22DOPC   NC3  253  12.313   7.141  15.503
   22DOPC   PO4  254  11.953   7.101  15.313
   22DOPC   GL1  255  11.923   7.131  14.833
   22DOPC   GL2  256  12.003   7.422  14.933
   22DOPC   C1A  257  12.093   6.921  14.533
   22DOPC   D2A  258  12.463   6.681  14.253
   22DOPC   C3A  259  12.413   6.431  13.913
   22DOPC   C4A  260  12.373   6.141  13.513
   22DOPC   C1B  261  11.813   7.782  14.743
   22DOPC   D2B  262  11.863   0.491  14.803
   22DOPC   C3B  263  12.033   0.391  14.403
   22DOPC   C4B  264  12.283   0.411  13.933
   23DOPC   NC3  265  20.263   7.642  13.513
   23DOPC   PO4  266  20.483   7.302  13.483
   23DOPC   GL1  267  20.383   7.061  13.273
   23DOPC   GL2  268  20.193   7.232  13.143
   23DOPC   C1A  269  20.403   6.891  12.903
   23DOPC   D2A  270  20.273   6.681  12.433
   23DOPC   C3A  271  20.413   6.861  12.043
   23DOPC   C4A  272  20.643   7.111  11.773
   23DOPC   C1B  273  20.073   7.332  12.743
   23DOPC   D2B  274  19.803   7.392  12.323
   23DOPC   C3B  275  20.133   7.322  12.093
   23DOPC   C4B  276  20.323   7.562  11.713
   24DOPC   NC3  277  20.163   2.701  13.703
   24DOPC   PO4  278  19.813   2.551  13.803
   24DOPC   GL1  279  19.453   2.701  13.593
   24DOPC   GL2  280  19.293   2.571  13.813
   24DOPC   C1A  281  19.203   2.611  13.243
   24DOPC   D2A  282  18.823   2.501  12.873
   24DOPC   C3A  283  18.473   2.271  12.883
   24DOPC   C4A  284  18.033   2.201  12.733
   24DOPC   C1B  285  18.993   2.361  13.613
   24DOPC   D2B  286  18.783   2.041  13.243
   24DOPC   C3B  287  18.313   1.951  13.253
   24DOPC   C4B  288  17.903   2.151  13.273
   25DOPC   NC3  289  21.333   6.351  12.643
   25DOPC   PO4  290  21.023   6.171  12.513
   25DOPC   GL1  291  20.883   6.341  12.243
   25DOPC   GL2  292  21.073   6.431  11.953
   25DOPC   C1A  293  20.513   6.301  12.073
   25DOPC   D2A  294  20.053   6.521  11.913
   25DOPC   C3A  295  19.613   6.361  11.953
   25DOPC   C4A  296  19.453   5.961  11.723
   25DOPC   C1B  297  20.813   6.601  11.813
   25DOPC   D2B  298  20.443   6.651  11.623
   25DOPC   C3B  299  20.093   6.971  11.683
   25DOPC   C4B  300  19.923   7.402  11.473
   26DOPC   NC3  301   3.927   1.841   7.833
   26DOPC   PO4  302   4.237   1.971   8.033
   26DOPC   GL1  303   4.427   2.091   7.773
   26DOPC   GL2  304   4.497   1.841   7.583
   26DOPC   C1A  305   4.517   2.371   7.463
   26DOPC   D2A  306   4.807   2.721   7.333
   26DOPC   C3A  307   5.187   2.591   7.093
   26DOPC   C4A  308   5.497   2.491   6.753
   26DOPC   C1B  309   4.607   1.891   7.163
   26DOPC   D2B  310   4.677   1.951   6.653
   26DOPC   C3B  311   4.367   2.121   6.323
   26DOPC   C4B  312   4.087   2.031   5.953
   27DOPC   NC3  313  24.383   6.911   8.073
   27DOPC   PO4  314  24.323   7.252   8.233
   27DOPC   GL1  315  24.113   7.352   7.913
   27DOPC   GL2  316  23.893   7.432   8.043
   27DOPC   C1A  317  24.193   7.442   7.533
   27DOPC   D2A  318  24.153   7.662   7.093
   27DOPC   C3A  319  24.133   7.612   6.623
   27DOPC   C4A  320  24.043   7.672   6.133
   27DOPC   C1B  321  23.643   7.762   7.833
   27DOPC   D2B  322  23.263   0.091   7.623
   27DOPC   C3B  323  23.033   0.091   7.243
   27DOPC   C4B  324  22.773   0.251   6.863
   28DOPC   NC3  325   8.597   7.652  12.603
   28DOPC   PO4  326   8.697   0.081  12.913
   28DOPC   GL1  327   8.917   0.261  12.613
   28DOPC   GL2  328   8.957   0.071  12.463
   28DOPC   C1A  329   9.037   0.631  12.463
   28DOPC   D2A  330   9.237   0.791  11.993
   28DOPC   C3A  331   9.377   0.781  11.553
   28DOPC   C4A  332   9.587   0.991  11.153
   28DOPC   C1B  333   9.147   0.271  12.113
   28DOPC   D2B  334   9.537   0.361  11.843
   28DOPC   C3B  335   9.777   0.741  11.803
   28DOPC   C4B  336  10.127   1.151  11.793
   29DOPC   NC3  337   7.487   4.211  12.093
   29DOPC   PO4  338   7.757   4.481  11.973
   29DOPC   GL1  339   7.817   4.531  11.553
   29DOPC   GL2  340   7.797   4.791  11.643
   29DOPC   C1A  341   8.157   4.311  11.463
   29DOPC   D2A  342   8.497   4.111  11.163
   29DOPC   C3A  343   8.687   3.901  10.743
   29DOPC   C4A  344   8.467   3.931  10.323
   29DOPC   C1B  345   8.177   4.981  11.563
   29DOPC   D2B  346   8.527   5.161  11.253
   29DOPC   C3B  347   8.747   5.081  10.873
   29DOPC   C4B  348   8.817   4.851  10.413
   30DOPC   NC3  349   4.337   2.801   8.293
   30DOPC   PO4  350   4.477   2.411   8.283
   30DOPC   GL1  351   4.807   2.561   8.033
   30DOPC   GL2  352   4.777   2.371   7.833
   30DOPC   C1A  353   4.957   2.921   7.793
   30DOPC   D2A  354   5.257   3.111   7.443
   30DOPC   C3A  355   5.077   3.021   7.023
   30DOPC   C4A  356   5.277   2.921   6.603
   30DOPC   C1B  357   5.147   2.511   7.663
   30DOPC   D2B  358   5.597   2.781   7.443
   30DOPC   C3B  359   5.637   2.921   6.993
   30DOPC   C4B  360   5.767   2.961   6.463
   31DOPC   NC3  361  11.063   6.851  15.563
   31DOPC   PO4  362  11.033   7.071  15.223
   31DOPC   GL1  363  11.193   7.262  14.853
   31DOPC   GL2  364  11.063   7.101  14.763
   31DOPC   C1A  365  11.573   7.282  14.693
   31DOPC   D2A  366  11.903   7.472  14.353
   31DOPC   C3A  367  12.223   7.212  14.143
   31DOPC   C4A  368  12.473   7.001  13.783
   31DOPC   C1B  369  11.293   6.891  14.503
   31DOPC   D2B  370  11.643   7.031  14.173
   31DOPC   C3B  371  11.973   6.701  13.953
   31DOPC   C4B  372  12.193   6.661  13.513
   32DOPC   NC3  373  21.353   5.021  12.703
   32DOPC   PO4  374  21.493   5.141  12.363
   32DOPC   GL1  375  21.203   5.151  12.093
   32DOPC   GL2  376  21.053   5.191  12.343
   32DOPC   C1A  377  21.223   5.151  11.683
   32DOPC   D2A  378  20.883   5.021  11.313
   32DOPC   C3A  379  20.793   4.551  11.373
   32DOPC   C4A  380  20.783   4.211  11.083
   32DOPC   C1B  381  20.643   5.431  12.263
   32DOPC   D2B  382  20.163   5.581  12.293
   32DOPC   C3B  383  19.883   5.241  12.043
   32DOPC   C4B  384  19.623   4.951  11.793
   33DOPC   NC3  385  22.573   7.502  11.383
   33DOPC   PO4  386  22.303   7.762  11.323
   33DOPC   GL1  387  22.023   7.642  11.013
   33DOPC   GL2  388  21.993   7.392  11.073
   33DOPC   C1A  389  21.623   0.021  10.953
   33DOPC   D2A  390  21.153   0.061  10.933
   33DOPC   C3A  391  20.863   0.221  10.633
   33DOPC   C4A  392  20.783   0.311  10.193
   33DOPC   C1B  393  21.683   7.272  10.853
   33DOPC   D2B  394  21.223   7.412  10.663
   33DOPC   C3B  395  21.043   7.161  10.323
   33DOPC   C4B  396  20.803   7.071   9.973
   34DOPC   NC3  397  18.293   2.291  15.173
   34DOPC   PO4  398  18.363   1.921  15.153
   34DOPC   GL1  399  18.123   1.781  14.793
   34DOPC   GL2  400  17.943   2.021  14.813
   34DOPC   C1A  401  18.203   1.851  14.363
   34DOPC   D2A  402  18.163   1.831  13.923
   34DOPC   C3A  403  18.313   1.511  13.563
   34DOPC   C4A  404  18.493   1.091  13.253
   34DOPC   C1B  405  17.733   1.951  14.463
   34DOPC   D2B  406  17.683   1.651  14.073
   34DOPC   C3B  407  17.303   1.561  13.793
   34DOPC   C4B  408  16.863   1.431  13.583
   35DOPC   NC3  409  11.443   5.811  15.463
   35DOPC   PO4  410  11.673   5.961  15.223
   35DOPC   GL1  411  12.123   5.951  15.093
   35DOPC   GL2  412  11.893   5.921  14.903
   35DOPC   C1A  413  12.243   6.351  14.933
   35DOPC   D2A  414  12.693   6.411  14.653
   35DOPC   C3A  415  12.883   6.311  14.253
   35DOPC   C4A  416  13.243   6.451  13.913
   35DOPC   C1B  417  12.033   5.661  14.603
   35DOPC   D2B  418  12.203   5.421  14.233
   35DOPC   C3B  419  12.613   5.401  13.923
   35DOPC   C4B  420  12.933   5.451  13.573
   36DOPC   NC3  421  11.843   7.722  15.233
   36DOPC   PO4  422  12.203   7.592  15.363
   36DOPC   GL1  423  12.543   7.562  15.123
   36DOPC   GL2  424  12.373   7.252  15.043
   36DOPC   C1A  425  12.753   7.742  14.723
   36DOPC   D2A  426  13.033   7.692  14.403
   36DOPC   C3A  427  13.453   0.031  14.163
   36DOPC   C4A  428  13.893   0.021  14.043
   36DOPC   C1B  429  12.463   7.372  14.643
   36DOPC   D2B  430  12.723   7.352  14.173
   36DOPC   C3B  431  12.973   7.632  13.913
   36DOPC   C4B  432  13.293   7.692  13.503
   37DOPC   NC3  433   6.787   0.961  11.383
   37DOPC   PO4  434   6.997   0.751  11.123
   37DOPC   GL1  435   7.297   0.641  10.933
   37DOPC   GL2  436   7.487   0.751  11.093
   37DOPC   C1A  437   7.557   0.431  10.663
   37DOPC   D2A  438   7.727   0.581  10.223
   37DOPC   C3A  439   7.807   0.661   9.763
   37DOPC   C4A  440   8.097   0.901   9.403
   37DOPC   C1B  441   7.797   0.821  10.813
   37DOPC   D2B  442   8.077   0.471  10.623
   37DOPC   C3B  443   8.377   0.561  10.213
   37DOPC   C4B  444   8.597   0.541   9.773
   38DOPC   NC3  445  22.083   3.261  10.663
   38DOPC   PO4  446  22.303   3.641  10.623
   38DOPC   GL1  447  22.043   3.921  10.503
   38DOPC   GL2  448  21.863   3.661  10.443
   38DOPC   C1A  449  21.713   4.171  10.453
   38DOPC   D2A  450  21.213   4.281  10.363
   38DOPC   C3A  451  20.883   4.291  10.093
   38DOPC   C4A  452  20.513   4.371   9.843
   38DOPC   C1B  453  21.403   3.791  10.643
   38DOPC   D2B  454  21.153   3.731  11.103
   38DOPC   C3B  455  20.683   3.751  11.163
   38DOPC   C4B  456  20.293   3.981  11.023
   39DOPC   NC3  457   3.037   4.221   7.753
   39DOPC   PO4  458   2.697   4.001   7.773
   39DOPC   GL1  459   2.397   3.911   7.503
   39DOPC   GL2  460   2.297   3.661   7.433
   39DOPC   C1A  461   2.177   4.051   7.163
   39DOPC   D2A  462   2.147   3.941   6.693
   39DOPC   C3A  463   2.237   4.321   6.433
   39DOPC   C4A  464   2.217   4.321   5.963
   39DOPC   C1B  465   2.527   3.721   7.033
   39DOPC   D2B  466   2.457   3.581   6.543
   39DOPC   C3B  467   2.287   3.791   6.153
   39DOPC   C4B  468   2.147   3.861   5.763
   40DOPC   NC3  469  24.823   2.851   7.343
   40DOPC   PO4  470   0.087   3.181   7.343
   40DOPC   GL1  471  24.873   3.341   7.033
   40DOPC   GL2  472  24.953   3.661   7.083
   40DOPC   C1A  473  24.533   3.121   6.823
   40DOPC   D2A  474  24.223   2.741   6.673
   40DOPC   C3A  475  24.153   2.561   6.273
   40DOPC   C4A  476  24.343   2.441   5.823
   40DOPC   C1B  477   0.097   3.851   6.663
   40DOPC   D2B  478   0.327   3.921   6.223
   40DOPC   C3B  479   0.167   4.011   5.783
   40DOPC   C4B  480  24.743   4.161   5.603
   41DOPC   NC3  481   6.717   7.322  10.493
   41DOPC   PO4  482   6.467   7.081  10.293
   41DOPC   GL1  483   6.677   7.161   9.993
   41DOPC   GL2  484   6.667   7.482  10.003
   41DOPC   C1A  485   7.047   6.961   9.813
   41DOPC   D2A  486   7.407   6.641   9.793
   41DOPC   C3A  487   7.497   7.091   9.983
   41DOPC   C4A  488   7.837   7.262  10.343
   41DOPC   C1B  489   6.857   7.702   9.683
   41DOPC   D2B  490   7.207   0.171   9.433
   41DOPC   C3B  491   7.577   0.081   9.133
   41DOPC   C4B  492   7.977   0.011   8.903
   42DOPC   NC3  493   4.367   6.221   8.473
   42DOPC   PO4  494   4.447   5.981   8.203
   42DOPC   GL1  495   4.757   6.061   7.943
   42DOPC   GL2  496   4.597   5.991   7.653
   42DOPC   C1A  497   5.097   6.341   7.833
   42DOPC   D2A  498   5.327   6.481   7.393
   42DOPC   C3A  499   5.487   6.441   6.973
   42DOPC   C4A  500   5.557   6.531   6.503
   42DOPC   C1B  501   4.677   5.731   7.283
   42DOPC   D2B  502   4.787   5.591   6.803
   42DOPC   C3B  503   5.127   5.631   6.513
   42DOPC   C4B  504   5.357   5.631   6.103
   43DOPC   NC3  505   9.217   0.581  13.803
   43DOPC   PO4  506   9.357   0.191  13.883
   43DOPC   GL1  507   9.657   0.081  13.513
   43DOPC   GL2  508   9.477   0.291  13.353
   43DOPC   C1A  509  10.037   0.261  13.373
   43DOPC   D2A  510  10.563   0.401  13.333
   43DOPC   C3A  511  10.873   0.381  13.003
   43DOPC   C4A  512  11.363   0.481  12.813
   43DOPC   C1B  513   9.697   0.201  13.003
   43DOPC   D2B  514   9.957   0.201  12.553
   43DOPC   C3B  515  10.047   0.201  12.123
   43DOPC   C4B  516  10.087   0.081  11.633
   44DOPC   NC3  517  20.813   7.612  13.253
   44DOPC   PO4  518  20.573   0.121  13.343
   44DOPC   GL1  519  20.353   0.291  13.003
   44DOPC   GL2  520  20.323   0.561  13.123
   44DOPC   C1A  521  20.333   0.421  12.573
   44DOPC   D2A  522  20.103   0.471  12.133
   44DOPC   C3A  523  19.633   0.311  12.023
   44DOPC   C4A  524  19.153   0.051  12.183
   44DOPC   C1B  525  20.553   0.771  12.813
   44DOPC   D2B  526  20.523   0.801  12.323
   44DOPC   C3B  527  20.353   0.941  11.883
   44DOPC   C4B  528  20.273   1.311  11.583
   45DOPC   NC3  529   7.167   1.551  10.703
   45DOPC   PO4  530   6.847   1.341  10.783
   45DOPC   GL1  531   7.007   1.171  10.523
   45DOPC   GL2  532   7.207   1.001  10.713
   45DOPC   C1A  533   7.197   1.231  10.123
   45DOPC   D2A  534   7.437   1.491   9.733
   45DOPC   C3A  535   7.437   1.791  10.013
   45DOPC   C4A  536   7.347   1.961  10.443
   45DOPC   C1B  537   7.587   1.061  10.473
   45DOPC   D2B  538   7.687   1.171  10.043
   45DOPC   C3B  539   7.987   1.331   9.703
   45DOPC   C4B  540   8.477   1.251   9.493
   46DOPC   NC3  541   4.687   4.111   8.733
   46DOPC   PO4  542   4.477   4.341   8.533
   46DOPC   GL1  543   4.627   4.651   8.263
   46DOPC   GL2  544   4.437   4.591   8.073
   46DOPC   C1A  545   5.017   4.571   8.143
   46DOPC   D2A  546   5.357   4.261   7.903
   46DOPC   C3A  547   5.407   4.001   7.553
   46DOPC   C4A  548   5.637   3.921   7.083
   46DOPC   C1B  549   4.597   4.791   7.703
   46DOPC   D2B  550   4.777   5.121   7.363
   46DOPC   C3B  551   5.077   5.391   7.183
   46DOPC   C4B  552   5.477   5.671   7.303
   47DOPC   NC3  553   5.897   3.331   9.663
   47DOPC   PO4  554   5.607   3.581   9.513
   47DOPC   GL1  555   5.667   3.711   9.083
   47DOPC   GL2  556   5.837   3.891   9.143
   47DOPC   C1A  557   5.777   3.301   8.843
   47DOPC   D2A  558   6.107   3.361   8.463
   47DOPC   C3A  559   6.587   3.351   8.493
   47DOPC   C4A  560   6.997   3.481   8.753
   47DOPC   C1B  561   6.187   3.621   8.923
   47DOPC   D2B  562   6.517   3.301   8.953
   47DOPC   C3B  563   6.797   3.041   9.183
   47DOPC   C4B  564   6.967   2.601   9.303
   48DOPC   NC3  565  12.113   0.831  15.323
   48DOPC   PO4  566  12.073   0.421  15.383
   48DOPC   GL1  567  12.343   0.191  15.153
   48DOPC   GL2  568  12.503   0.471  15.163
   48DOPC   C1A  569  12.253   0.111  14.733
   48DOPC   D2A  570  12.533   0.001  14.263
   48DOPC   C3A  571  12.463   7.622  13.833
   48DOPC   C4A  572  12.463   7.352  13.433
   48DOPC   C1B  573  12.353   0.721  14.883
   48DOPC   D2B  574  12.043   0.881  14.513
   48DOPC   C3B  575  11.763   1.221  14.293
   48DOPC   C4B  576  11.643   1.531  13.893
   49DOPC   NC3  577  10.763   6.991  14.333
   49DOPC   PO4  578  10.723   7.362  14.493
   49DOPC   GL1  579  10.883   7.652  14.223
   49DOPC   GL2  580  10.803   7.442  13.993
   49DOPC   C1A  581  11.163   0.051  14.103
   49DOPC   D2A  582  11.473   0.071  13.703
   49DOPC   C3A  583  11.633   7.562  13.373
   49DOPC   C4A  584  11.713   7.282  13.013
   49DOPC   C1B  585  10.963   7.582  13.643
   49DOPC   D2B  586  11.133   7.572  13.203
   49DOPC   C3B  587  11.393   7.762  12.923
   49DOPC   C4B  588  11.413   0.101  12.493
   50DOPC   NC3  589   1.307   6.051   7.263
   50DOPC   PO4  590   1.427   6.451   7.193
   50DOPC   GL1  591   1.337   6.831   6.953
   50DOPC   GL2  592   0.997   6.741   6.923
   50DOPC   C1A  593   1.577   6.701   6.613
   50DOPC   D2A  594   1.517   6.851   6.173
   50DOPC   C3A  595   1.557   6.691   5.733
   50DOPC   C4A  596   1.617   6.631   5.293
   50DOPC   C1B  597   1.027   6.971   6.503
   50DOPC   D2B  598   0.717   7.161   6.123
   50DOPC   C3B  599   0.367   7.442   6.043
   50DOPC   C4B  600   0.067   7.752   5.893
   51DOPC   NC3  601  21.733   4.781  12.103
   51DOPC   PO4  602  21.863   4.481  11.863
   51DOPC   GL1  603  21.623   4.461  11.533
   51DOPC   GL2  604  21.523   4.191  11.613
   51DOPC   C1A  605  21.303   4.621  11.203
   51DOPC   D2A  606  20.893   4.681  10.863
   51DOPC   C3A  607  20.523   4.421  10.703
   51DOPC   C4A  608  20.213   4.161  10.423
   51DOPC   C1B  609  21.143   4.131  11.483
   51DOPC   D2B  610  20.583   4.181  11.573
   51DOPC   C3B  611  20.343   4.421  11.253
   51DOPC   C4B  612  20.473   4.891  10.993
   52DOPC   NC3  613   5.007   2.571   9.003
   52DOPC   PO4  614   5.047   2.921   9.053
   52DOPC   GL1  615   5.187   3.161   8.663
   52DOPC   GL2  616   5.437   3.051   8.733
   52DOPC   C1A  617   5.247   3.311   8.263
   52DOPC   D2A  618   5.327   3.581   7.873
   52DOPC   C3A  619   5.477   3.561   7.433
   52DOPC   C4A  620   5.487   3.381   6.963
   52DOPC   C1B  621   5.667   3.051   8.413
   52DOPC   D2B  622   5.987   3.161   8.073
   52DOPC   C3B  623   6.357   3.441   8.023
   52DOPC   C4B  624   6.797   3.671   7.863
   53DOPC   NC3  625   5.577   1.331   9.043
   53DOPC   PO4  626   5.837   1.131   9.283
   53DOPC   GL1  627   6.127   0.991   9.083
   53DOPC   GL2  628   6.307   0.831   9.253
   53DOPC   C1A  629   6.387   1.191   8.743
   53DOPC   D2A  630   6.517   1.461   8.413
   53DOPC   C3A  631   6.767   1.781   8.243
   53DOPC   C4A  632   7.077   1.971   7.873
   53DOPC   C1B  633   6.677   0.871   9.023
   53DOPC   D2B  634   7.127   0.831   8.843
   53DOPC   C3B  635   7.577   0.781   8.683
   53DOPC   C4B  636   8.027   0.611   8.673
   54DOPC   NC3  637   9.757   1.221  13.983
   54DOPC   PO4  638   9.547   0.931  13.823
   54DOPC   GL1  639   9.607   0.731  13.493
   54DOPC   GL2  640   9.687   1.111  13.483
   54DOPC   C1A  641   9.787   0.691  13.153
   54DOPC   D2A  642  10.077   0.621  12.803
   54DOPC   C3A  643  10.483   0.821  12.673
   54DOPC   C4A  644  10.953   0.821  12.613
   54DOPC   C1B  645   9.827   1.301  13.133
   54DOPC   D2B  646  10.057   1.141  12.693
   54DOPC   C3B  647  10.147   1.351  12.333
   54DOPC   C4B  648  10.483   1.681  12.193
   55DOPC   NC3  649  24.143   7.702   8.873
   55DOPC   PO4  650  23.753   7.612   9.043
   55DOPC   GL1  651  23.373   7.352   8.933
   55DOPC   GL2  652  23.493   7.432   8.683
   55DOPC   C1A  653  22.943   7.482   9.073
   55DOPC   D2A  654  22.633   0.081   8.993
   55DOPC   C3A  655  22.153   7.782   8.773
   55DOPC   C4A  656  21.733   7.742   8.503
   55DOPC   C1B  657  23.163   7.342   8.453
   55DOPC   D2B  658  22.763   7.252   8.183
   55DOPC   C3B  659  22.423   7.192   7.883
   55DOPC   C4B  660  22.423   6.921   7.493
   56DOPC   NC3  661  21.503   7.472  12.163
   56DOPC   PO4  662  21.463   7.081  12.103
   56DOPC   GL1  663  21.133   6.981  11.903
   56DOPC   GL2  664  21.023   7.182  12.093
   56DOPC   C1A  665  21.013   6.941  11.493
   56DOPC   D2A  666  20.963   7.011  10.983
   56DOPC   C3A  667  20.643   7.021  10.693
   56DOPC   C4A  668  20.533   6.721  10.313
   56DOPC   C1B  669  20.633   7.452  12.163
   56DOPC   D2B  670  20.473   0.131  12.143
   56DOPC   C3B  671  20.303   0.241  11.693
   56DOPC   C4B  672  20.253   0.411  11.223
   57DOPC   NC3  673   0.867   1.851   7.493
   57DOPC   PO4  674   0.977   2.191   7.603
   57DOPC   GL1  675   1.267   2.151   7.273
   57DOPC   GL2  676   1.157   2.281   7.113
   57DOPC   C1A  677   1.637   2.011   7.113
   57DOPC   D2A  678   1.997   1.671   7.173
   57DOPC   C3A  679   2.387   1.621   6.903
   57DOPC   C4A  680   2.767   1.711   6.603
   57DOPC   C1B  681   1.207   2.121   6.723
   57DOPC   D2B  682   1.217   2.121   6.273
   57DOPC   C3B  683   1.537   2.041   5.893
   57DOPC   C4B  684   2.067   1.871   5.863
   58DOPC   NC3  685   4.737   2.951   8.623
   58DOPC   PO4  686   5.017   2.701   8.533
   58DOPC   GL1  687   5.237   2.551   8.133
   58DOPC   GL2  688   5.327   2.871   8.213
   58DOPC   C1A  689   5.497   2.271   7.893
   58DOPC   D2A  690   5.797   2.031   7.593
   58DOPC   C3A  691   5.977   1.621   7.563
   58DOPC   C4A  692   6.387   1.361   7.383
   58DOPC   C1B  693   5.487   3.061   7.873
   58DOPC   D2B  694   5.827   3.201   7.553
   58DOPC   C3B  695   5.937   3.451   7.173
   58DOPC   C4B  696   5.997   3.391   6.703
   59DOPC   NC3  697   5.727   2.161   9.323
   59DOPC   PO4  698   5.307   2.141   9.263
   59DOPC   GL1  699   5.377   2.171   8.923
   59DOPC   GL2  700   5.257   2.341   8.723
   59DOPC   C1A  701   5.777   2.191   8.773
   59DOPC   D2A  702   6.227   2.391   8.613
   59DOPC   C3A  703   6.657   2.281   8.483
   59DOPC   C4A  704   7.167   2.141   8.513
   59DOPC   C1B  705   5.597   2.571   8.483
   59DOPC   D2B  706   5.787   2.671   8.053
   59DOPC   C3B  707   5.957   2.511   7.703
   59DOPC   C4B  708   6.037   2.391   7.263
   60DOPC   NC3  709  10.443   6.281  14.763
   60DOPC   PO4  710  10.343   6.461  14.393
   60DOPC   GL1  711  10.573   6.491  14.103
   60DOPC   GL2  712  10.503   6.691  13.963
   60DOPC   C1A  713  11.003   6.491  14.023
   60DOPC   D2A  714  11.433   6.621  13.833
   60DOPC   C3A  715  11.773   6.431  13.573
   60DOPC   C4A  716  11.953   6.201  13.183
   60DOPC   C1B  717  10.753   6.591  13.573
   60DOPC   D2B  718  11.193   6.561  13.333
   60DOPC   C3B  719  11.453   6.711  12.983
   60DOPC   C4B  720  11.323   6.591  12.493
   61DOPC   NC3  721   3.037   2.821   7.993
   61DOPC   PO4  722   2.847   2.741   7.643
   61DOPC   GL1  723   3.047   2.731   7.253
   61DOPC   GL2  724   2.837   2.561   7.163
   61DOPC   C1A  725   2.937   2.841   6.863
   61DOPC   D2A  726   2.727   3.171   6.543
   61DOPC   C3A  727   2.587   3.351   6.043
   61DOPC   C4A  728   2.537   3.341   5.523
   61DOPC   C1B  729   2.477   2.631   6.883
   61DOPC   D2B  730   2.117   2.581   6.493
   61DOPC   C3B  731   2.327   2.411   6.123
   61DOPC   C4B  732   2.477   2.471   5.643
   62DOPC   NC3  733  12.483   3.901  16.523
   62DOPC   PO4  734  12.723   3.961  16.183
   62DOPC   GL1  735  12.613   4.111  15.733
   62DOPC   GL2  736  12.753   4.321  15.933
   62DOPC   C1A  737  12.863   3.981  15.333
   62DOPC   D2A  738  13.123   4.031  14.883
   62DOPC   C3A  739  13.203   4.021  14.413
   62DOPC   C4A  740  13.523   4.211  14.073
   62DOPC   C1B  741  12.983   4.461  15.583
   62DOPC   D2B  742  13.243   4.541  15.193
   62DOPC   C3B  743  13.153   4.501  14.713
   62DOPC   C4B  744  13.263   4.661  14.223
   63DOPC   NC3  745   4.177   0.391   7.983
   63DOPC   PO4  746   3.787   0.331   7.973
   63DOPC   GL1  747   3.747   7.732   7.793
   63DOPC   GL2  748   4.067   0.021   7.673
   63DOPC   C1A  749   3.587   7.712   7.383
   63DOPC   D2A  750   3.487   7.742   6.923
   63DOPC   C3A  751   3.117   7.512   6.773
   63DOPC   C4A  752   2.727   7.222   6.763
   63DOPC   C1B  753   4.307   7.792   7.273
   63DOPC   D2B  754   4.587   0.111   6.793
   63DOPC   C3B  755   4.987   0.201   6.613
   63DOPC   C4B  756   5.277   0.481   6.353
   64DOPC   NC3  757   7.877   7.672  12.073
   64DOPC   PO4  758   8.137   7.362  12.193
   64DOPC   GL1  759   8.547   7.182  12.343
   64DOPC   GL2  760   8.467   7.011  12.073
   64DOPC   C1A  761   8.887   7.422  12.213
   64DOPC   D2A  762   9.177   7.522  11.823
   64DOPC   C3A  763   9.597   7.662  11.583
   64DOPC   C4A  764   9.837   7.762  11.163
   64DOPC   C1B  765   8.777   7.101  11.723
   64DOPC   D2B  766   8.777   7.432  11.423
   64DOPC   C3B  767   9.267   7.252  11.433
   64DOPC   C4B  768   9.717   7.021  11.513
   65DOPC   NC3  769   6.957   4.651  11.063
   65DOPC   PO4  770   6.987   4.671  11.463
   65DOPC   GL1  771   7.317   4.841  11.433
   65DOPC   GL2  772   7.217   5.031  11.203
   65DOPC   C1A  773   7.657   4.631  11.193
   65DOPC   D2A  774   7.907   4.261  10.993
   65DOPC   C3A  775   8.297   4.241  10.663
   65DOPC   C4A  776   8.617   4.361  10.333
   65DOPC   C1B  777   7.427   4.901  10.873
   65DOPC   D2B  778   7.787   4.721  10.673
   65DOPC   C3B  779   7.797   4.281  10.503
   65DOPC   C4B  780   7.697   3.881  10.133
   66DOPC   NC3  781  17.473   6.011  15.593
   66DOPC   PO4  782  17.773   5.881  15.373
   66DOPC   GL1  783  17.833   5.721  14.943
   66DOPC   GL2  784  17.763   5.491  15.003
   66DOPC   C1A  785  17.973   5.941  14.553
   66DOPC   D2A  786  18.123   5.801  14.133
   66DOPC   C3A  787  17.953   5.441  13.923
   66DOPC   C4A  788  17.693   5.151  13.543
   66DOPC   C1B  789  17.353   5.371  14.803
   66DOPC   D2B  790  16.943   5.091  14.963
   66DOPC   C3B  791  16.603   5.231  14.633
   66DOPC   C4B  792  16.483   5.141  14.193
   67DOPC   NC3  793   8.147   6.351  12.203
   67DOPC   PO4  794   7.867   6.151  12.223
   67DOPC   GL1  795   8.157   5.841  12.103
   67DOPC   GL2  796   8.307   5.951  12.423
   67DOPC   C1A  797   8.507   6.001  11.923
   67DOPC   D2A  798   8.917   6.101  11.723
   67DOPC   C3A  799   9.307   5.941  11.443
   67DOPC   C4A  800   9.597   5.771  11.113
   67DOPC   C1B  801   8.717   6.141  12.373
   67DOPC   D2B  802   9.047   6.481  12.153
   67DOPC   C3B  803   9.477   6.701  12.193
   67DOPC   C4B  804   9.897   6.811  12.033
   68DOPC   NC3  805   1.967   5.711   7.533
   68DOPC   PO4  806   1.707   5.681   7.243
   68DOPC   GL1  807   1.847   5.611   6.873
   68DOPC   GL2  808   2.037   5.431   7.013
   68DOPC   C1A  809   1.907   5.711   6.443
   68DOPC   D2A  810   1.877   5.551   5.983
   68DOPC   C3A  811   1.577   5.801   5.693
   68DOPC   C4A  812   1.407   6.231   5.623
   68DOPC   C1B  813   2.207   5.261   6.613
   68DOPC   D2B  814   2.197   5.211   6.183
   68DOPC   C3B  815   2.467   5.301   5.883
   68DOPC   C4B  816   2.777   5.661   5.843
   69DOPC   NC3  817  22.313   2.601  10.743
   69DOPC   PO4  818  22.183   2.841  10.423
   69DOPC   GL1  819  21.793   2.851  10.303
   69DOPC   GL2  820  21.793   3.131  10.183
   69DOPC   C1A  821  21.423   2.591  10.363
   69DOPC   D2A  822  21.003   2.481  10.563
   69DOPC   C3A  823  20.633   2.561  10.863
   69DOPC   C4A  824  20.113   2.591  10.893
   69DOPC   C1B  825  21.783   3.311   9.723
   69DOPC   D2B  826  21.393   3.171   9.413
   69DOPC   C3B  827  21.273   2.751   9.283
   69DOPC   C4B  828  20.953   2.371   9.203
   70DOPC   NC3  829  14.573   1.491  16.353
   70DOPC   PO4  830  14.563   1.421  15.963
   70DOPC   GL1  831  14.643   1.471  15.583
   70DOPC   GL2  832  14.853   1.311  15.503
   70DOPC   C1A  833  14.773   1.901  15.443
   70DOPC   D2A  834  14.953   2.161  15.003
   70DOPC   C3A  835  15.093   2.501  14.823
   70DOPC   C4A  836  15.233   2.991  14.883
   70DOPC   C1B  837  14.653   1.281  15.073
   70DOPC   D2B  838  14.553   1.631  14.673
   70DOPC   C3B  839  14.553   2.091  14.773
   70DOPC   C4B  840  14.603   2.511  15.033
   71DOPC   NC3  841   8.687   2.361  13.053
   71DOPC   PO4  842   8.767   2.001  13.163
   71DOPC   GL1  843   9.137   1.901  13.073
   71DOPC   GL2  844   9.287   2.101  13.023
   71DOPC   C1A  845   9.307   1.561  12.933
   71DOPC   D2A  846   9.647   1.441  12.583
   71DOPC   C3A  847   9.567   1.011  12.703
   71DOPC   C4A  848   9.597   0.641  12.343
   71DOPC   C1B  849   9.337   1.991  12.673
   71DOPC   D2B  850   9.227   1.931  12.183
   71DOPC   C3B  851   8.997   2.111  11.803
   71DOPC   C4B  852   8.837   1.971  11.353
   72DOPC   NC3  853   1.347   3.021   7.553
   72DOPC   PO4  854   1.357   3.411   7.463
   72DOPC   GL1  855   1.427   3.561   7.033
   72DOPC   GL2  856   1.357   3.251   7.043
   72DOPC   C1A  857   1.427   3.551   6.683
   72DOPC   D2A  858   1.477   3.291   6.233
   72DOPC   C3A  859   1.657   3.111   5.793
   72DOPC   C4A  860   1.817   2.841   5.453
   72DOPC   C1B  861   1.627   3.061   6.803
   72DOPC   D2B  862   1.647   2.861   6.383
   72DOPC   C3B  863   1.987   2.871   6.043
   72DOPC   C4B  864   2.367   2.901   5.783
   73DOPC   NC3  865   6.497   5.511  11.003
   73DOPC   PO4  866   6.837   5.701  11.043
   73DOPC   GL1  867   7.177   5.411  10.863
   73DOPC   GL2  868   7.167   5.731  10.683
   73DOPC   C1A  869   7.617   5.351  10.733
   73DOPC   D2A  870   7.977   5.101  10.443
   73DOPC   C3A  871   8.207   4.651  10.353
   73DOPC   C4A  872   8.207   4.281   9.953
   73DOPC   C1B  873   7.587   5.791  10.523
   73DOPC   D2B  874   8.027   5.631  10.413
   73DOPC   C3B  875   8.077   5.381  10.033
   73DOPC   C4B  876   7.747   5.151   9.693
   74DOPC   NC3  877   6.047   5.201  10.183
   74DOPC   PO4  878   5.917   5.451   9.953
   74DOPC   GL1  879   6.297   5.551   9.753
   74DOPC   GL2  880   6.327   5.191   9.753
   74DOPC   C1A  881   6.667   5.741   9.623
   74DOPC   D2A  882   7.057   5.951   9.353
   74DOPC   C3A  883   7.337   5.861   8.963
   74DOPC   C4A  884   7.667   5.971   8.613
   74DOPC   C1B  885   6.497   5.321   9.363
   74DOPC   D2B  886   6.307   5.491   8.943
   74DOPC   C3B  887   6.507   5.271   8.643
   74DOPC   C4B  888   6.837   4.971   8.473
   75DOPC   NC3  889   8.067   1.901  12.383
   75DOPC   PO4  890   7.867   2.261  12.373
   75DOPC   GL1  891   8.147   2.371  12.143
   75DOPC   GL2  892   8.017   2.161  11.953
   75DOPC   C1A  893   8.217   2.661  11.853
   75DOPC   D2A  894   8.327   3.101  11.663
   75DOPC   C3A  895   8.677   3.221  11.473
   75DOPC   C4A  896   9.127   3.441  11.353
   75DOPC   C1B  897   8.207   2.161  11.553
   75DOPC   D2B  898   8.527   2.241  11.133
   75DOPC   C3B  899   8.547   2.121  10.663
   75DOPC   C4B  900   8.367   2.101  10.223
   76DOPA   PO4  901   4.787   1.571   8.693
   76DOPA   GL1  902   4.847   1.371   8.353
   76DOPA   GL2  903   4.907   1.671   8.243
   76DOPA   C1A  904   5.117   1.031   8.173
   76DOPA   D2A  905   5.317   1.121   7.743
   76DOPA   C3A  906   5.627   0.991   7.473
   76DOPA   C4A  907   5.627   0.991   6.983
   76DOPA   C1B  908   4.997   1.571   7.823
   76DOPA   D2B  909   4.787   1.501   7.383
   76DOPA   C3B  910   4.387   1.491   7.183
   76DOPA   C4B  911   3.967   1.641   6.943
   77DOPA   PO4  912  24.313   2.311   8.133
   77DOPA   GL1  913  23.943   2.231   7.893
   77DOPA   GL2  914  23.753   2.341   7.953
   77DOPA   C1A  915  23.903   2.151   7.513
   77DOPA   D2A  916  23.943   2.381   7.083
   77DOPA   C3A  917  23.803   2.471   6.623
   77DOPA   C4A  918  23.813   2.931   6.393
   77DOPA   C1B  919  23.403   2.091   7.833
   77DOPA   D2B  920  23.073   2.121   7.463
   77DOPA   C3B  921  23.153   1.941   7.023
   77DOPA   C4B  922  23.233   2.131   6.573
   78DOPA   PO4  923   0.697   2.181   7.193
   78DOPA   GL1  924   0.697   2.031   6.743
   78DOPA   GL2  925   0.377   2.121   6.703
   78DOPA   C1A  926   0.777   2.281   6.403
   78DOPA   D2A  927   0.897   2.511   6.013
   78DOPA   C3A  928   0.837   2.591   5.543
   78DOPA   C4A  929   1.017   2.611   5.113
   78DOPA   C1B  930   0.007   2.111   6.423
   78DOPA   D2B  931  24.623   2.001   6.123
   78DOPA   C3B  932  24.303   1.621   6.163
   78DOPA   C4B  933  24.153   1.251   5.823
   79DOPA   PO4  934   6.187   1.441  10.073
   79DOPA   GL1  935   6.387   1.731   9.853
   79DOPA   GL2  936   6.617   1.861  10.033
   79DOPA   C1A  937   6.407   1.711   9.433
   79DOPA   D2A  938   6.567   1.631   8.923
   79DOPA   C3A  939   6.977   1.711   8.693
   79DOPA   C4A  940   7.347   1.741   8.343
   79DOPA   C1B  941   6.997   1.761   9.833
   79DOPA   D2B  942   7.337   1.951   9.543
   79DOPA   C3B  943   7.767   1.921   9.483
   79DOPA   C4B  944   8.277   1.791   9.373
   80DOPA   PO4  945  14.293   3.781  15.993
   80DOPA   GL1  946  14.383   3.891  15.553
   80DOPA   GL2  947  14.103   3.951  15.583
   80DOPA   C1A  948  14.673   4.061  15.293
   80DOPA   D2A  949  14.843   4.151  14.873
   80DOPA   C3A  950  14.953   4.231  14.383
   80DOPA   C4A  951  14.993   4.201  13.913
   80DOPA   C1B  952  13.813   3.951  15.263
   80DOPA   D2B  953  13.613   4.101  14.833
   80DOPA   C3B  954  13.663   4.471  14.543
   80DOPA   C4B  955  13.973   4.501  14.133
   81DOPA   PO4  956   6.727   6.841  10.663
   81DOPA   GL1  957   7.117   6.821  10.493
   81DOPA   GL2  958   6.947   6.911  10.263
   81DOPA   C1A  959   7.537   6.791  10.373
   81DOPA   D2A  960   7.927   6.701  10.123
   81DOPA   C3A  961   7.857   6.381   9.833
   81DOPA   C4A  962   7.577   5.991   9.543
   81DOPA   C1B  963   7.067   6.521  10.143
   81DOPA   D2B  964   7.107   6.061  10.013
   81DOPA   C3B  965   7.577   6.061  10.123
   81DOPA   C4B  966   8.037   5.941  10.033
   82DOPA   PO4  967  22.603   4.171  10.803
   82DOPA   GL1  968  22.273   4.251  10.623
   82DOPA   GL2  969  22.083   4.361  10.833
   82DOPA   C1A  970  22.173   4.231  10.183
   82DOPA   D2A  971  22.053   4.131   9.673
   82DOPA   C3A  972  21.603   4.371   9.693
   82DOPA   C4A  973  21.083   4.381   9.653
   82DOPA   C1B  974  21.693   4.611  10.803
   82DOPA   D2B  975  21.373   4.831  10.523
   82DOPA   C3B  976  21.213   5.081  10.223
   82DOPA   C4B  977  20.973   5.351   9.903
   83DOPA   PO4  978  21.213   4.731  12.393
   83DOPA   GL1  979  20.833   4.801  12.403
   83DOPA   GL2  980  20.913   4.861  12.133
   83DOPA   C1A  981  20.433   4.771  12.233
   83DOPA   D2A  982  20.113   4.761  11.923
   83DOPA   C3A  983  20.153   4.361  11.773
   83DOPA   C4A  984  19.813   3.941  11.803
   83DOPA   C1B  985  20.813   5.121  11.863
   83DOPA   D2B  986  20.803   5.611  11.783
   83DOPA   C3B  987  20.433   5.861  11.813
   83DOPA   C4B  988  20.063   6.171  11.563
   84DOPA   PO4  989   2.147   6.911   7.563
   84DOPA   GL1  990   2.207   7.021   7.233
   84DOPA   GL2  991   2.257   7.372   7.163
   84DOPA   C1A  992   2.197   6.801   6.793
   84DOPA   D2A  993   2.107   6.621   6.353
   84DOPA   C3A  994   2.027   6.731   5.973
   84DOPA   C4A  995   2.467   6.771   5.793
   84DOPA   C1B  996   2.207   7.342   6.693
   84DOPA   D2B  997   2.417   7.202   6.263
   84DOPA   C3B  998   2.287   7.342   5.873
   84DOPA   C4B  999   2.147   7.362   5.383
   85DOPA   PO4 1000  17.123   5.661  15.813
   85DOPA   GL1 1001  17.083   5.831  15.463
   85DOPA   GL2 1002  16.983   6.091  15.483
   85DOPA   C1A 1003  16.963   5.671  15.003
   85DOPA   D2A 1004  16.783   5.711  14.533
   85DOPA   C3A 1005  16.573   5.621  14.133
   85DOPA   C4A 1006  16.333   5.371  13.773
   85DOPA   C1B 1007  16.873   6.221  15.043
   85DOPA   D2B 1008  16.753   6.331  14.523
   85DOPA   C3B 1009  16.593   6.221  14.103
   85DOPA   C4B 1010  16.463   5.971  13.743
   86DOPA   PO4 1011   4.027   3.091   8.033
   86DOPA   GL1 1012   4.167   3.231   7.633
   86DOPA   GL2 1013   4.027   3.041   7.453
   86DOPA   C1A 1014   4.287   3.541   7.293
   86DOPA   D2A 1015   4.537   3.861   7.013
   86DOPA   C3A 1016   4.647   3.731   6.563
   86DOPA   C4A 1017   4.747   3.881   6.123
   86DOPA   C1B 1018   3.957   3.181   7.093
   86DOPA   D2B 1019   4.187   3.501   6.763
   86DOPA   C3B 1020   4.157   3.941   6.543
   86DOPA   C4B 1021   3.927   4.361   6.543
   87DOPA   PO4 1022  10.057   0.541  14.583
   87DOPA   GL1 1023  10.313   0.801  14.363
   87DOPA   GL2 1024  10.543   0.671  14.303
   87DOPA   C1A 1025  10.383   0.931  13.973
   87DOPA   D2A 1026  10.863   0.981  13.873
   87DOPA   C3A 1027  11.133   0.791  13.543
   87DOPA   C4A 1028  11.533   0.761  13.233
   87DOPA   C1B 1029  10.733   0.541  13.923
   87DOPA   D2B 1030  11.013   0.281  13.613
   87DOPA   C3B 1031  11.283   0.311  13.263
   87DOPA   C4B 1032  11.763   0.221  13.223
   88DOPA   PO4 1033  23.023   7.762  10.573
   88DOPA   GL1 1034  22.653   7.452  10.383
   88DOPA   GL2 1035  22.803   7.632  10.223
   88DOPA   C1A 1036  22.243   7.552  10.453
   88DOPA   D2A 1037  21.983   0.091  10.113
   88DOPA   C3A 1038  21.543   0.281  10.083
   88DOPA   C4A 1039  21.233   0.581  10.193
   88DOPA   C1B 1040  22.433   7.662   9.983
   88DOPA   D2B 1041  22.033   7.662   9.643
   88DOPA   C3B 1042  21.533   7.782   9.673
   88DOPA   C4B 1043  21.143   0.201   9.833
   89DOPA   PO4 1044  21.143   2.991  13.383
   89DOPA   GL1 1045  20.803   3.041  13.323
   89DOPA   GL2 1046  20.573   2.901  13.263
   89DOPA   C1A 1047  20.513   3.351  13.103
   89DOPA   D2A 1048  20.203   3.631  12.763
   89DOPA   C3A 1049  19.873   3.931  12.633
   89DOPA   C4A 1050  19.493   4.311  12.583
   89DOPA   C1B 1051  20.523   2.881  12.793
   89DOPA   D2B 1052  20.413   2.761  12.343
   89DOPA   C3B 1053  20.093   2.621  12.053
   89DOPA   C4B 1054  19.933   2.761  11.603
   90DOPA   PO4 1055   4.917   6.291   8.903
   90DOPA   GL1 1056   5.197   6.381   8.593
   90DOPA   GL2 1057   5.217   6.201   8.493
   90DOPA   C1A 1058   5.277   6.681   8.233
   90DOPA   D2A 1059   5.317   6.841   7.753
   90DOPA   C3A 1060   5.717   6.791   7.463
   90DOPA   C4A 1061   5.947   6.491   7.143
   90DOPA   C1B 1062   5.557   6.311   8.143
   90DOPA   D2B 1063   5.837   6.351   7.733
   90DOPA   C3B 1064   6.267   6.401   7.993
   90DOPA   C4B 1065   6.497   6.701   8.283
   91DOPA   PO4 1066   7.457   7.552  11.763
   91DOPA   GL1 1067   7.767   7.282  11.483
   91DOPA   GL2 1068   7.587   7.522  11.303
   91DOPA   C1A 1069   8.197   7.362  11.363
   91DOPA   D2A 1070   8.537   7.392  10.983
   91DOPA   C3A 1071   8.847   7.572  10.663
   91DOPA   C4A 1072   9.067   0.001  10.313
   91DOPA   C1B 1073   7.917   7.672  11.073
   91DOPA   D2B 1074   8.307   0.071  10.823
   91DOPA   C3B 1075   8.677   0.261  10.593
   91DOPA   C4B 1076   8.937   0.531  10.243
   92DOPA   PO4 1077   3.487   4.451   7.703
   92DOPA   GL1 1078   3.497   4.631   7.253
   92DOPA   GL2 1079   3.217   4.591   7.253
   92DOPA   C1A 1080   3.547   5.001   7.013
   92DOPA   D2A 1081   3.697   5.231   6.553
   92DOPA   C3A 1082   3.957   4.951   6.243
   92DOPA   C4A 1083   4.287   4.661   6.043
   92DOPA   C1B 1084   3.087   4.701   6.833
   92DOPA   D2B 1085   2.857   4.481   6.413
   92DOPA   C3B 1086   2.707   4.171   6.143
   92DOPA   C4B 1087   2.687   3.771   5.813
   93DOPA   PO4 1088   5.177   7.021   9.413
   93DOPA   GL1 1089   5.407   7.061   9.023
   93DOPA   GL2 1090   5.217   6.851   8.913
   93DOPA   C1A 1091   5.827   7.041   8.863
   93DOPA   D2A 1092   6.167   7.151   8.583
   93DOPA   C3A 1093   6.637   7.081   8.503
   93DOPA   C4A 1094   6.887   7.171   8.993
   93DOPA   C1B 1095   5.507   6.671   8.663
   93DOPA   D2B 1096   5.947   6.681   8.473
   93DOPA   C3B 1097   6.277   6.331   8.603
   93DOPA   C4B 1098   6.537   5.931   8.613
   94DOPA   PO4 1099   0.887   7.071   7.263
   94DOPA   GL1 1100   0.767   7.141   6.853
   94DOPA   GL2 1101   0.897   7.332   6.783
   94DOPA   C1A 1102   0.397   7.041   6.563
   94DOPA   D2A 1103   0.177   7.001   6.133
   94DOPA   C3A 1104   0.137   7.192   5.713
   94DOPA   C4A 1105  24.843   7.292   5.323
   94DOPA   C1B 1106   0.827   7.582   6.393
   94DOPA   D2B 1107   0.787   7.742   5.913
   94DOPA   C3B 1108   0.947   7.492   5.543
   94DOPA   C4B 1109   1.047   7.111   5.293
   95DOPA   PO4 1110   3.237   1.021   7.843
   95DOPA   GL1 1111   3.277   0.721   7.503
   95DOPA   GL2 1112   3.507   0.591   7.633
   95DOPA   C1A 1113   3.177   0.841   7.103
   95DOPA   D2A 1114   3.327   0.781   6.623
   95DOPA   C3A 1115   3.127   0.621   6.263
   95DOPA   C4A 1116   2.737   0.471   6.063
   95DOPA   C1B 1117   3.847   0.341   7.373
   95DOPA   D2B 1118   4.077   0.211   6.903
   95DOPA   C3B 1119   4.227   0.291   6.433
   95DOPA   C4B 1120   4.517   0.391   5.933
   96DOPA   PO4 1121  16.893   3.341  15.403
   96DOPA   GL1 1122  16.763   3.401  14.993
   96DOPA   GL2 1123  16.733   3.691  15.043
   96DOPA   C1A 1124  17.083   3.591  14.683
   96DOPA   D2A 1125  17.573   3.611  14.553
   96DOPA   C3A 1126  17.613   3.581  14.093
   96DOPA   C4A 1127  17.433   3.711  13.633
   96DOPA   C1B 1128  16.743   3.971  14.733
   96DOPA   D2B 1129  16.573   4.191  14.273
   96DOPA   C3B 1130  16.423   3.971  13.853
   96DOPA   C4B 1131  16.363   4.121  13.413
   97DOPA   PO4 1132  23.723   3.971   8.763
   97DOPA   GL1 1133  23.403   3.881   8.573
   97DOPA   GL2 1134  23.343   3.621   8.553
   97DOPA   C1A 1135  22.983   4.131   8.503
   97DOPA   D2A 1136  22.463   4.201   8.433
   97DOPA   C3A 1137  21.993   4.141   8.313
   97DOPA   C4A 1138  21.533   4.231   8.373
   97DOPA   C1B 1139  23.303   3.621   8.073
   97DOPA   D2B 1140  23.583   3.711   7.643
   97DOPA   C3B 1141  23.513   3.871   7.263
   97DOPA   C4B 1142  23.533   3.851   6.803
   98DOPA   PO4 1143  24.283   6.471   8.233
   98DOPA   GL1 1144  24.123   6.351   7.913
   98DOPA   GL2 1145  24.323   6.401   7.703
   98DOPA   C1A 1146  23.733   6.221   7.653
   98DOPA   D2A 1147  23.233   6.141   7.533
   98DOPA   C3A 1148  22.903   6.471   7.573
   98DOPA   C4A 1149  22.713   6.781   7.893
   98DOPA   C1B 1150  24.143   6.561   7.313
   98DOPA   D2B 1151  23.883   6.821   6.953
   98DOPA   C3B 1152  23.813   7.282   6.823
   98DOPA   C4B 1153  23.643   7.672   6.533
   99DOPA   PO4 1154   5.567   1.721   9.413
   99DOPA   GL1 1155   5.807   1.721   9.163
   99DOPA   GL2 1156   6.017   1.941   9.073
   99DOPA   C1A 1157   5.747   1.701   8.713
   99DOPA   D2A 1158   5.857   1.661   8.193
   99DOPA   C3A 1159   6.287   1.571   7.973
   99DOPA   C4A 1160   6.687   1.721   7.763
   99DOPA   C1B 1161   6.237   1.831   8.693
   99DOPA   D2B 1162   6.327   1.941   8.243
   99DOPA   C3B 1163   6.247   2.031   7.783
   99DOPA   C4B 1164   6.527   2.371   7.563
  100DOPA   PO4 1165   5.817   4.641   9.253
  100DOPA   GL1 1166   5.817   4.591   8.933
  100DOPA   GL2 1167   5.737   4.291   9.003
  100DOPA   C1A 1168   5.897   4.581   8.513
  100DOPA   D2A 1169   5.817   4.591   8.023
  100DOPA   C3A 1170   5.967   4.871   7.733
  100DOPA   C4A 1171   6.297   4.841   7.363
  100DOPA   C1B 1172   5.837   4.051   8.663
  100DOPA   D2B 1173   6.147   3.831   8.333
  100DOPA   C3B 1174   6.307   3.931   7.853
  100DOPA   C4B 1175   6.617   3.881   7.483
  101DOPC   NC3 1176  20.793   2.101   6.263
  101DOPC   PO4 1177  20.923   2.251   5.903
  101DOPC   GL1 1178  21.273   2.001   5.913
  101DOPC   GL2 1179  21.193   1.821   6.143
  101DOPC   C1A 1180  21.663   2.221   6.073
  101DOPC   D2A 1181  22.063   2.341   6.363
  101DOPC   C3A 1182  22.373   2.051   6.583
  101DOPC   C4A 1183  22.783   1.841   6.753
  101DOPC   C1B 1184  21.463   1.951   6.483
  101DOPC   D2B 1185  21.883   2.041   6.673
  101DOPC   C3B 1186  22.133   1.991   7.043
  101DOPC   C4B 1187  22.173   1.811   7.483
  102DOPC   NC3 1188   1.017   1.871   3.943
  102DOPC   PO4 1189   1.367   1.751   3.783
  102DOPC   GL1 1190   1.597   1.971   4.003
  102DOPC   GL2 1191   1.377   2.231   4.003
  102DOPC   C1A 1192   1.877   1.991   4.343
  102DOPC   D2A 1193   2.267   1.971   4.653
  102DOPC   C3A 1194   2.437   2.261   4.983
  102DOPC   C4A 1195   2.807   2.451   5.283
  102DOPC   C1B 1196   1.347   2.371   4.383
  102DOPC   D2B 1197   1.467   2.581   4.843
  102DOPC   C3B 1198   1.737   2.431   5.183
  102DOPC   C4B 1199   2.197   2.601   5.213
  103DOPC   NC3 1200   7.147   1.811   5.403
  103DOPC   PO4 1201   7.577   1.761   5.443
  103DOPC   GL1 1202   7.437   1.601   5.763
  103DOPC   GL2 1203   7.607   1.821   5.963
  103DOPC   C1A 1204   7.337   1.491   6.153
  103DOPC   D2A 1205   7.097   1.661   6.543
  103DOPC   C3A 1206   7.337   1.611   6.943
  103DOPC   C4A 1207   7.237   1.561   7.433
  103DOPC   C1B 1208   7.447   1.961   6.363
  103DOPC   D2B 1209   7.317   2.101   6.793
  103DOPC   C3B 1210   6.977   1.971   6.893
  103DOPC   C4B 1211   6.777   1.591   7.083
  104DOPC   NC3 1212  15.313   1.921  12.453
  104DOPC   PO4 1213  15.143   1.561  12.383
  104DOPC   GL1 1214  15.223   1.301  12.683
  104DOPC   GL2 1215  15.313   1.571  12.913
  104DOPC   C1A 1216  15.063   1.171  13.093
  104DOPC   D2A 1217  15.003   0.981  13.533
  104DOPC   C3A 1218  14.693   1.091  13.913
  104DOPC   C4A 1219  14.483   1.221  14.353
  104DOPC   C1B 1220  15.053   1.681  13.273
  104DOPC   D2B 1221  14.723   1.921  13.603
  104DOPC   C3B 1222  14.763   2.281  13.963
  104DOPC   C4B 1223  14.943   2.331  14.373
  105DOPC   NC3 1224  17.533   6.411  10.393
  105DOPC   PO4 1225  17.263   6.611  10.603
  105DOPC   GL1 1226  17.573   6.661  10.853
  105DOPC   GL2 1227  17.743   6.401  10.873
  105DOPC   C1A 1228  17.623   6.791  11.283
  105DOPC   D2A 1229  18.063   6.761  11.523
  105DOPC   C3A 1230  18.283   6.811  11.883
  105DOPC   C4A 1231  18.133   6.701  12.323
  105DOPC   C1B 1232  18.003   6.401  11.253
  105DOPC   D2B 1233  18.393   6.351  11.613
  105DOPC   C3B 1234  18.353   6.261  12.053
  105DOPC   C4B 1235  18.183   5.881  12.353
  106DOPC   NC3 1236   0.317   3.671   3.503
  106DOPC   PO4 1237   0.507   3.971   3.343
  106DOPC   GL1 1238   0.617   4.291   3.523
  106DOPC   GL2 1239   0.427   4.091   3.733
  106DOPC   C1A 1240   0.917   4.301   3.883
  106DOPC   D2A 1241   1.027   4.371   4.323
  106DOPC   C3A 1242   1.327   4.541   4.693
  106DOPC   C4A 1243   1.647   4.611   5.043
  106DOPC   C1B 1244   0.487   4.171   4.123
  106DOPC   D2B 1245   0.627   4.061   4.603
  106DOPC   C3B 1246   0.787   3.961   5.073
  106DOPC   C4B 1247   0.637   3.951   5.573
  107DOPC   NC3 1248   6.177   4.551   4.433
  107DOPC   PO4 1249   6.197   4.151   4.433
  107DOPC   GL1 1250   5.897   4.101   4.763
  107DOPC   GL2 1251   5.847   4.411   4.813
  107DOPC   C1A 1252   5.677   4.021   5.153
  107DOPC   D2A 1253   5.407   3.771   5.513
  107DOPC   C3A 1254   5.027   3.821   5.733
  107DOPC   C4A 1255   4.687   3.491   5.803
  107DOPC   C1B 1256   5.877   4.511   5.243
  107DOPC   D2B 1257   5.837   4.681   5.723
  107DOPC   C3B 1258   5.637   4.581   6.113
  107DOPC   C4B 1259   5.387   4.631   6.543
  108DOPC   NC3 1260   8.517   2.631   5.743
  108DOPC   PO4 1261   8.137   2.491   5.853
  108DOPC   GL1 1262   7.837   2.371   6.163
  108DOPC   GL2 1263   7.557   2.371   6.083
  108DOPC   C1A 1264   7.957   2.101   6.543
  108DOPC   D2A 1265   7.767   2.051   7.003
  108DOPC   C3A 1266   7.357   2.041   7.233
  108DOPC   C4A 1267   6.887   2.001   7.393
  108DOPC   C1B 1268   7.157   2.421   6.353
  108DOPC   D2B 1269   6.807   2.451   6.663
  108DOPC   C3B 1270   6.527   2.111   6.953
  108DOPC   C4B 1271   6.367   1.921   7.323
  109DOPC   NC3 1272  20.553   0.001   6.693
  109DOPC   PO4 1273  20.603   0.211   6.323
  109DOPC   GL1 1274  20.983   7.762   6.343
  109DOPC   GL2 1275  20.963   0.221   6.603
  109DOPC   C1A 1276  21.403   7.702   6.423
  109DOPC   D2A 1277  21.793   7.432   6.593
  109DOPC   C3A 1278  22.223   7.262   6.653
  109DOPC   C4A 1279  22.603   7.071   6.883
  109DOPC   C1B 1280  21.343   0.151   6.853
  109DOPC   D2B 1281  21.693   0.391   7.163
  109DOPC   C3B 1282  21.883   0.091   7.473
  109DOPC   C4B 1283  22.213   7.552   7.583
  110DOPC   NC3 1284   0.367   2.101   3.533
  110DOPC   PO4 1285   0.727   2.321   3.633
  110DOPC   GL1 1286   0.757   2.361   3.993
  110DOPC   GL2 1287   0.567   2.131   4.043
  110DOPC   C1A 1288   0.937   2.641   4.283
  110DOPC   D2A 1289   1.047   2.941   4.683
  110DOPC   C3A 1290   0.757   2.991   5.023
  110DOPC   C4A 1291   0.317   2.961   5.103
  110DOPC   C1B 1292   0.887   2.081   4.393
  110DOPC   D2B 1293   0.837   2.321   4.763
  110DOPC   C3B 1294   0.567   2.511   5.053
  110DOPC   C4B 1295   0.297   2.621   5.503
  111DOPC   NC3 1296  21.073   5.841   5.813
  111DOPC   PO4 1297  20.743   5.951   6.043
  111DOPC   GL1 1298  20.793   5.971   6.463
  111DOPC   GL2 1299  20.753   5.681   6.523
  111DOPC   C1A 1300  20.943   6.021   6.883
  111DOPC   D2A 1301  21.233   6.361   7.113
  111DOPC   C3A 1302  21.483   6.361   7.583
  111DOPC   C4A 1303  21.653   6.561   8.033
  111DOPC   C1B 1304  20.743   5.531   6.983
  111DOPC   D2B 1305  20.993   5.511   7.393
  111DOPC   C3B 1306  21.103   5.441   7.803
  111DOPC   C4B 1307  21.213   5.561   8.283
  112DOPC   NC3 1308  21.363   2.381   5.623
  112DOPC   PO4 1309  21.633   2.291   5.363
  112DOPC   GL1 1310  21.683   2.761   5.433
  112DOPC   GL2 1311  21.613   2.741   5.713
  112DOPC   C1A 1312  21.963   3.051   5.523
  112DOPC   D2A 1313  22.293   3.331   5.743
  112DOPC   C3A 1314  22.673   3.281   6.043
  112DOPC   C4A 1315  22.873   3.231   6.473
  112DOPC   C1B 1316  21.973   2.711   5.953
  112DOPC   D2B 1317  22.373   2.801   6.123
  112DOPC   C3B 1318  22.523   2.421   6.263
  112DOPC   C4B 1319  22.793   2.011   6.193
  113DOPC   NC3 1320   8.807   7.792   6.683
  113DOPC   PO4 1321   8.597   7.582   6.923
  113DOPC   GL1 1322   8.547   7.732   7.303
  113DOPC   GL2 1323   8.847   0.011   7.243
  113DOPC   C1A 1324   8.557   0.021   7.753
  113DOPC   D2A 1325   8.547   0.491   7.913
  113DOPC   C3A 1326   8.147   0.371   8.163
  113DOPC   C4A 1327   7.697   0.601   8.263
  113DOPC   C1B 1328   8.867   0.371   7.573
  113DOPC   D2B 1329   9.297   0.511   7.823
  113DOPC   C3B 1330   9.357   0.461   8.243
  113DOPC   C4B 1331   9.507   0.411   8.713
  114DOPC   NC3 1332  24.673   1.551   3.113
  114DOPC   PO4 1333  24.963   1.771   3.293
  114DOPC   GL1 1334  24.903   1.931   3.663
  114DOPC   GL2 1335  24.813   2.231   3.653
  114DOPC   C1A 1336   0.017   1.881   4.053
  114DOPC   D2A 1337   0.207   2.001   4.493
  114DOPC   C3A 1338   0.387   2.471   4.513
  114DOPC   C4A 1339   0.517   2.931   4.603
  114DOPC   C1B 1340  24.813   2.371   4.083
  114DOPC   D2B 1341  24.793   2.521   4.553
  114DOPC   C3B 1342   0.027   2.491   5.033
  114DOPC   C4B 1343  24.783   2.541   5.503
  115DOPC   NC3 1344  17.783   0.511   9.943
  115DOPC   PO4 1345  18.003   0.811  10.083
  115DOPC   GL1 1346  18.253   0.541  10.233
  115DOPC   GL2 1347  18.433   0.521  10.043
  115DOPC   C1A 1348  18.323   0.441  10.633
  115DOPC   D2A 1349  18.093   0.331  11.103
  115DOPC   C3A 1350  18.193   0.311  11.573
  115DOPC   C4A 1351  18.163   0.451  12.033
  115DOPC   C1B 1352  18.873   0.721   9.953
  115DOPC   D2B 1353  19.113   1.051   9.653
  115DOPC   C3B 1354  19.283   1.521   9.613
  115DOPC   C4B 1355  19.383   1.991   9.593
  116DOPC   NC3 1356   5.587   2.331   4.503
  116DOPC   PO4 1357   5.777   2.651   4.613
  116DOPC   GL1 1358   5.577   2.711   4.893
  116DOPC   GL2 1359   5.607   2.431   4.973
  116DOPC   C1A 1360   5.377   3.011   5.153
  116DOPC   D2A 1361   5.127   3.321   5.363
  116DOPC   C3A 1362   5.167   3.291   5.783
  116DOPC   C4A 1363   4.917   3.231   6.193
  116DOPC   C1B 1364   5.647   2.151   5.333
  116DOPC   D2B 1365   5.547   2.271   5.843
  116DOPC   C3B 1366   5.507   2.611   6.163
  116DOPC   C4B 1367   5.437   3.091   6.153
  117DOPC   NC3 1368   5.527   5.271   4.393
  117DOPC   PO4 1369   5.847   5.061   4.463
  117DOPC   GL1 1370   5.617   4.791   4.713
  117DOPC   GL2 1371   5.477   5.031   4.783
  117DOPC   C1A 1372   5.417   4.481   4.993
  117DOPC   D2A 1373   5.187   4.141   5.283
  117DOPC   C3A 1374   4.817   4.361   5.433
  117DOPC   C4A 1375   4.317   4.451   5.613
  117DOPC   C1B 1376   5.217   4.931   5.083
  117DOPC   D2B 1377   4.957   4.871   5.503
  117DOPC   C3B 1378   4.647   4.991   5.823
  117DOPC   C4B 1379   4.297   5.281   6.143
  118DOPC   NC3 1380  20.003   6.431   7.853
  118DOPC   PO4 1381  19.913   6.091   7.983
  118DOPC   GL1 1382  20.173   5.781   8.153
  118DOPC   GL2 1383  20.053   5.831   8.433
  118DOPC   C1A 1384  20.553   5.991   8.213
  118DOPC   D2A 1385  20.983   5.951   8.053
  118DOPC   C3A 1386  21.393   6.071   8.013
  118DOPC   C4A 1387  21.873   6.121   7.803
  118DOPC   C1B 1388  19.983   5.741   8.863
  118DOPC   D2B 1389  20.033   5.611   9.323
  118DOPC   C3B 1390  20.313   5.501   9.633
  118DOPC   C4B 1391  20.453   5.751  10.033
  119DOPC   NC3 1392   7.397   2.441   4.823
  119DOPC   PO4 1393   7.277   2.141   5.063
  119DOPC   GL1 1394   6.847   2.111   5.143
  119DOPC   GL2 1395   6.787   2.221   5.413
  119DOPC   C1A 1396   6.517   1.811   5.223
  119DOPC   D2A 1397   6.097   1.881   5.423
  119DOPC   C3A 1398   6.087   1.861   5.913
  119DOPC   C4A 1399   6.047   1.751   6.433
  119DOPC   C1B 1400   6.577   2.051   5.723
  119DOPC   D2B 1401   6.557   1.511   5.723
  119DOPC   C3B 1402   6.447   1.101   5.813
  119DOPC   C4B 1403   6.437   0.641   6.023
  120DOPC   NC3 1404  18.203   2.671  10.413
  120DOPC   PO4 1405  18.373   2.491  10.123
  120DOPC   GL1 1406  18.623   2.391  10.433
  120DOPC   GL2 1407  18.453   2.351  10.663
  120DOPC   C1A 1408  18.993   2.251  10.563
  120DOPC   D2A 1409  19.163   2.031  10.993
  120DOPC   C3A 1410  19.513   1.921  11.183
  120DOPC   C4A 1411  19.883   1.981  11.443
  120DOPC   C1B 1412  18.643   2.011  10.823
  120DOPC   D2B 1413  18.793   1.691  11.133
  120DOPC   C3B 1414  18.893   1.481  11.523
  120DOPC   C4B 1415  19.293   1.351  11.783
  121DOPC   NC3 1416   9.197   5.221   6.713
  121DOPC   PO4 1417   8.797   5.211   6.713
  121DOPC   GL1 1418   8.577   5.101   6.993
  121DOPC   GL2 1419   8.347   5.061   6.893
  121DOPC   C1A 1420   8.407   5.261   7.413
  121DOPC   D2A 1421   7.987   5.311   7.713
  121DOPC   C3A 1422   7.537   5.351   7.853
  121DOPC   C4A 1423   7.047   5.271   8.053
  121DOPC   C1B 1424   8.007   4.931   7.173
  121DOPC   D2B 1425   7.617   5.001   7.473
  121DOPC   C3B 1426   7.227   4.881   7.663
  121DOPC   C4B 1427   6.937   4.761   8.073
  122DOPC   NC3 1428  19.563   5.711   6.713
  122DOPC   PO4 1429  19.943   5.571   6.843
  122DOPC   GL1 1430  20.273   5.741   7.153
  122DOPC   GL2 1431  20.253   5.401   7.223
  122DOPC   C1A 1432  20.643   6.031   7.263
  122DOPC   D2A 1433  20.803   6.471   7.383
  122DOPC   C3A 1434  21.143   6.751   7.513
  122DOPC   C4A 1435  21.513   6.951   7.733
  122DOPC   C1B 1436  20.593   5.121   7.233
  122DOPC   D2B 1437  20.853   4.731   7.263
  122DOPC   C3B 1438  21.263   4.761   7.283
  122DOPC   C4B 1439  21.733   4.801   7.423
  123DOPC   NC3 1440  15.063   5.491  11.623
  123DOPC   PO4 1441  14.843   5.311  11.923
  123DOPC   GL1 1442  15.033   5.211  12.333
  123DOPC   GL2 1443  14.733   5.201  12.343
  123DOPC   C1A 1444  15.143   5.001  12.743
  123DOPC   D2A 1445  14.993   4.701  13.103
  123DOPC   C3A 1446  15.153   4.641  13.533
  123DOPC   C4A 1447  15.543   4.881  13.753
  123DOPC   C1B 1448  14.603   5.441  12.673
  123DOPC   D2B 1449  14.683   5.731  13.063
  123DOPC   C3B 1450  14.713   5.601  13.483
  123DOPC   C4B 1451  14.873   5.531  14.013
  124DOPC   NC3 1452  20.753   0.331   5.813
  124DOPC   PO4 1453  20.533   0.631   5.953
  124DOPC   GL1 1454  20.853   0.781   6.203
  124DOPC   GL2 1455  20.913   0.541   6.233
  124DOPC   C1A 1456  21.123   0.951   6.503
  124DOPC   D2A 1457  21.503   1.021   6.853
  124DOPC   C3A 1458  21.693   0.931   7.333
  124DOPC   C4A 1459  21.833   0.561   7.593
  124DOPC   C1B 1460  21.363   0.451   6.403
  124DOPC   D2B 1461  21.763   0.171   6.543
  124DOPC   C3B 1462  22.163   0.031   6.673
  124DOPC   C4B 1463  22.543   7.622   6.813
  125DOPC   NC3 1464  17.693   5.351   9.773
  125DOPC   PO4 1465  18.073   5.431   9.813
  125DOPC   GL1 1466  18.433   5.331  10.083
  125DOPC   GL2 1467  18.333   5.021  10.153
  125DOPC   C1A 1468  18.403   5.571  10.483
  125DOPC   D2A 1469  18.513   5.881  10.843
  125DOPC   C3A 1470  18.553   6.231  11.103
  125DOPC   C4A 1471  18.493   6.671  11.273
  125DOPC   C1B 1472  18.193   5.101  10.603
  125DOPC   D2B 1473  17.883   5.071  11.043
  125DOPC   C3B 1474  18.053   4.831  11.423
  125DOPC   C4B 1475  18.093   4.691  11.833
  126DOPC   NC3 1476  19.013   3.621   8.273
  126DOPC   PO4 1477  19.343   3.751   8.133
  126DOPC   GL1 1478  19.843   3.651   8.233
  126DOPC   GL2 1479  19.803   3.941   8.173
  126DOPC   C1A 1480  20.143   3.371   8.243
  126DOPC   D2A 1481  20.563   3.191   8.043
  126DOPC   C3A 1482  21.013   3.051   8.003
  126DOPC   C4A 1483  21.353   2.691   7.883
  126DOPC   C1B 1484  20.033   4.271   8.313
  126DOPC   D2B 1485  20.283   4.611   8.543
  126DOPC   C3B 1486  20.713   4.771   8.793
  126DOPC   C4B 1487  21.113   5.021   9.073
  127DOPC   NC3 1488  16.753   5.241  11.613
  127DOPC   PO4 1489  16.363   5.261  11.723
  127DOPC   GL1 1490  16.553   5.511  12.143
  127DOPC   GL2 1491  16.773   5.301  12.083
  127DOPC   C1A 1492  16.573   5.451  12.523
  127DOPC   D2A 1493  16.253   5.541  12.893
  127DOPC   C3A 1494  16.163   5.641  13.293
  127DOPC   C4A 1495  15.713   5.811  13.583
  127DOPC   C1B 1496  16.483   4.991  12.263
  127DOPC   D2B 1497  16.083   4.721  12.383
  127DOPC   C3B 1498  15.893   4.411  12.723
  127DOPC   C4B 1499  15.803   4.151  13.183
  128DOPC   NC3 1500  10.157   1.431   7.883
  128DOPC   PO4 1501   9.787   1.471   8.053
  128DOPC   GL1 1502   9.337   1.481   8.103
  128DOPC   GL2 1503   9.467   1.471   8.353
  128DOPC   C1A 1504   9.057   1.741   8.243
  128DOPC   D2A 1505   8.787   1.971   8.633
  128DOPC   C3A 1506   8.417   1.911   8.893
  128DOPC   C4A 1507   7.947   1.921   8.963
  128DOPC   C1B 1508   9.097   1.441   8.623
  128DOPC   D2B 1509   8.787   1.401   8.983
  128DOPC   C3B 1510   8.977   1.141   9.313
  128DOPC   C4B 1511   9.347   0.941   9.423
  129DOPC   NC3 1512  14.573   2.081  11.923
  129DOPC   PO4 1513  14.693   2.401  11.743
  129DOPC   GL1 1514  14.723   2.501  12.093
  129DOPC   GL2 1515  14.873   2.691  12.193
  129DOPC   C1A 1516  14.453   2.491  12.383
  129DOPC   D2A 1517  14.213   2.641  12.753
  129DOPC   C3A 1518  14.173   2.641  13.163
  129DOPC   C4A 1519  14.013   2.941  13.513
  129DOPC   C1B 1520  14.653   2.931  12.523
  129DOPC   D2B 1521  14.503   3.121  12.873
  129DOPC   C3B 1522  14.453   3.081  13.343
  129DOPC   C4B 1523  14.443   3.211  13.803
  130DOPC   NC3 1524  17.403   2.591  10.793
  130DOPC   PO4 1525  17.413   2.991  10.783
  130DOPC   GL1 1526  17.693   3.121  11.023
  130DOPC   GL2 1527  17.453   3.331  11.163
  130DOPC   C1A 1528  18.143   3.101  10.963
  130DOPC   D2A 1529  18.603   3.121  11.013
  130DOPC   C3A 1530  19.033   2.891  11.093
  130DOPC   C4A 1531  19.293   2.521  10.833
  130DOPC   C1B 1532  17.463   3.321  11.613
  130DOPC   D2B 1533  17.423   3.501  12.093
  130DOPC   C3B 1534  17.553   3.771  12.493
  130DOPC   C4B 1535  17.913   3.701  12.723
  131DOPC   NC3 1536  18.983   2.421   7.573
  131DOPC   PO4 1537  19.213   2.701   7.703
  131DOPC   GL1 1538  19.593   2.611   7.853
  131DOPC   GL2 1539  19.483   2.591   8.123
  131DOPC   C1A 1540  19.963   2.421   7.783
  131DOPC   D2A 1541  20.303   2.141   7.943
  131DOPC   C3A 1542  20.623   2.261   8.343
  131DOPC   C4A 1543  21.013   2.341   8.673
  131DOPC   C1B 1544  19.773   2.531   8.473
  131DOPC   D2B 1545  19.873   2.361   8.853
  131DOPC   C3B 1546  19.913   2.741   9.043
  131DOPC   C4B 1547  20.283   3.011   9.323
  132DOPC   NC3 1548  17.913   4.741  10.403
  132DOPC   PO4 1549  18.133   4.581  10.103
  132DOPC   GL1 1550  18.523   4.611  10.223
  132DOPC   GL2 1551  18.373   4.751  10.483
  132DOPC   C1A 1552  18.853   4.281  10.213
  132DOPC   D2A 1553  19.393   4.381  10.353
  132DOPC   C3A 1554  19.563   4.801  10.413
  132DOPC   C4A 1555  20.033   5.051  10.443
  132DOPC   C1B 1556  18.723   4.721  10.813
  132DOPC   D2B 1557  18.943   4.611  11.233
  132DOPC   C3B 1558  19.143   4.251  11.373
  132DOPC   C4B 1559  19.343   3.831  11.333
  133DOPC   NC3 1560   2.577   4.711   3.233
  133DOPC   PO4 1561   2.597   4.371   3.363
  133DOPC   GL1 1562   2.367   4.521   3.613
  133DOPC   GL2 1563   2.337   4.671   3.753
  133DOPC   C1A 1564   2.087   4.291   3.853
  133DOPC   D2A 1565   1.707   4.441   4.143
  133DOPC   C3A 1566   1.597   4.181   4.503
  133DOPC   C4A 1567   1.607   3.961   4.953
  133DOPC   C1B 1568   2.227   4.531   4.233
  133DOPC   D2B 1569   2.287   4.351   4.663
  133DOPC   C3B 1570   2.167   4.321   5.073
  133DOPC   C4B 1571   1.977   4.301   5.493
  134DOPC   NC3 1572  16.413   2.101  11.683
  134DOPC   PO4 1573  16.773   2.031  11.533
  134DOPC   GL1 1574  17.133   2.081  11.613
  134DOPC   GL2 1575  17.053   2.351  11.693
  134DOPC   C1A 1576  17.403   1.851  11.843
  134DOPC   D2A 1577  17.693   1.741  12.233
  134DOPC   C3A 1578  18.003   1.431  12.143
  134DOPC   C4A 1579  18.453   1.401  12.443
  134DOPC   C1B 1580  16.803   2.401  12.103
  134DOPC   D2B 1581  16.703   2.861  12.343
  134DOPC   C3B 1582  16.473   3.241  12.503
  134DOPC   C4B 1583  16.403   3.221  13.003
  135DOPC   NC3 1584   0.387   1.521   3.453
  135DOPC   PO4 1585   0.617   1.641   3.753
  135DOPC   GL1 1586   0.637   1.381   4.153
  135DOPC   GL2 1587   0.617   1.621   4.313
  135DOPC   C1A 1588   0.607   1.121   4.463
  135DOPC   D2A 1589   0.657   1.151   4.943
  135DOPC   C3A 1590   0.807   1.221   5.343
  135DOPC   C4A 1591   0.817   1.521   5.723
  135DOPC   C1B 1592   0.617   1.701   4.733
  135DOPC   D2B 1593   0.337   2.081   4.953
  135DOPC   C3B 1594   0.117   2.131   5.343
  135DOPC   C4B 1595  24.833   2.111   5.753
  136DOPC   NC3 1596  19.223   6.261   8.413
  136DOPC   PO4 1597  19.553   6.401   8.273
  136DOPC   GL1 1598  19.903   6.271   8.423
  136DOPC   GL2 1599  20.073   6.481   8.343
  136DOPC   C1A 1600  20.313   6.171   8.633
  136DOPC   D2A 1601  20.633   6.341   8.923
  136DOPC   C3A 1602  20.743   6.711   9.083
  136DOPC   C4A 1603  20.973   7.151   9.333
  136DOPC   C1B 1604  20.343   6.731   8.603
  136DOPC   D2B 1605  20.603   7.091   8.863
  136DOPC   C3B 1606  20.943   7.442   8.793
  136DOPC   C4B 1607  21.173   0.061   8.793
  137DOPC   NC3 1608  23.373   2.321   3.523
  137DOPC   PO4 1609  23.143   2.481   3.783
  137DOPC   GL1 1610  23.373   2.321   4.143
  137DOPC   GL2 1611  23.613   2.381   3.993
  137DOPC   C1A 1612  23.543   1.991   4.403
  137DOPC   D2A 1613  23.703   1.891   4.883
  137DOPC   C3A 1614  24.003   1.921   5.233
  137DOPC   C4A 1615  24.343   1.951   5.663
  137DOPC   C1B 1616  23.813   2.741   4.103
  137DOPC   D2B 1617  23.923   2.921   4.563
  137DOPC   C3B 1618  23.953   2.961   5.043
  137DOPC   C4B 1619  23.883   3.031   5.503
  138DOPC   NC3 1620  11.263   3.541   9.763
  138DOPC   PO4 1621  11.293   3.881  10.023
  138DOPC   GL1 1622  10.993   3.971  10.303
  138DOPC   GL2 1623  10.913   4.241  10.243
  138DOPC   C1A 1624  10.823   4.081  10.663
  138DOPC   D2A 1625  10.503   4.261  11.013
  138DOPC   C3A 1626  10.403   4.291  11.453
  138DOPC   C4A 1627  10.353   4.261  11.943
  138DOPC   C1B 1628  10.543   4.431  10.493
  138DOPC   D2B 1629  10.273   4.701  10.883
  138DOPC   C3B 1630   9.977   4.961  11.123
  138DOPC   C4B 1631   9.557   5.081  11.003
  139DOPC   NC3 1632  18.313   1.691   9.743
  139DOPC   PO4 1633  18.143   1.341   9.823
  139DOPC   GL1 1634  18.313   1.171  10.183
  139DOPC   GL2 1635  18.443   1.421  10.203
  139DOPC   C1A 1636  18.623   0.871  10.433
  139DOPC   D2A 1637  19.103   0.671  10.553
  139DOPC   C3A 1638  19.543   0.851  10.663
  139DOPC   C4A 1639  19.993   0.921  10.433
  139DOPC   C1B 1640  18.843   1.261  10.093
  139DOPC   D2B 1641  19.243   0.941  10.163
  139DOPC   C3B 1642  19.623   0.731  10.083
  139DOPC   C4B 1643  20.013   0.481  10.113
  140DOPC   NC3 1644  19.843   1.441   7.683
  140DOPC   PO4 1645  19.793   1.101   7.493
  140DOPC   GL1 1646  20.113   0.841   7.673
  140DOPC   GL2 1647  19.873   0.811   7.863
  140DOPC   C1A 1648  20.493   1.061   7.753
  140DOPC   D2A 1649  20.973   1.131   7.903
  140DOPC   C3A 1650  21.323   1.491   8.113
  140DOPC   C4A 1651  21.403   1.941   8.353
  140DOPC   C1B 1652  20.153   1.001   8.183
  140DOPC   D2B 1653  20.593   1.221   8.223
  140DOPC   C3B 1654  21.103   1.121   8.373
  140DOPC   C4B 1655  21.663   1.181   8.223
  141DOPC   NC3 1656   1.277   0.941   3.623
  141DOPC   PO4 1657   1.507   1.211   3.773
  141DOPC   GL1 1658   1.397   1.221   4.123
  141DOPC   GL2 1659   1.497   1.491   4.193
  141DOPC   C1A 1660   1.517   1.091   4.573
  141DOPC   D2A 1661   1.717   1.101   5.083
  141DOPC   C3A 1662   2.077   0.951   5.333
  141DOPC   C4A 1663   2.447   0.981   5.653
  141DOPC   C1B 1664   1.387   1.831   4.543
  141DOPC   D2B 1665   1.297   2.151   5.003
  141DOPC   C3B 1666   0.877   2.121   5.233
  141DOPC   C4B 1667   0.547   2.221   5.623
  142DOPC   NC3 1668   8.447   1.771   6.433
  142DOPC   PO4 1669   8.687   1.631   6.693
  142DOPC   GL1 1670   8.357   1.611   6.943
  142DOPC   GL2 1671   8.517   1.361   7.063
  142DOPC   C1A 1672   8.157   1.891   7.273
  142DOPC   D2A 1673   7.837   2.131   7.613
  142DOPC   C3A 1674   7.677   2.171   8.063
  142DOPC   C4A 1675   7.817   2.051   8.523
  142DOPC   C1B 1676   8.217   0.971   7.043
  142DOPC   D2B 1677   7.907   0.791   7.323
  142DOPC   C3B 1678   7.727   0.381   7.403
  142DOPC   C4B 1679   7.637   7.712   7.573
  143DOPC   NC3 1680  18.813   0.731   9.393
  143DOPC   PO4 1681  18.533   0.471   9.523
  143DOPC   GL1 1682  18.763   0.261   9.813
  143DOPC   GL2 1683  18.943   0.281   9.503
  143DOPC   C1A 1684  19.123   0.271  10.123
  143DOPC   D2A 1685  19.463   0.381  10.443
  143DOPC   C3A 1686  19.913   0.371  10.593
  143DOPC   C4A 1687  20.283   0.201  10.773
  143DOPC   C1B 1688  19.273   0.061   9.633
  143DOPC   D2B 1689  19.703   7.572   9.743
  143DOPC   C3B 1690  20.083   7.432   9.963
  143DOPC   C4B 1691  20.423   7.322  10.263
  144DOPC   NC3 1692  24.733   3.351   2.753
  144DOPC   PO4 1693  24.743   3.111   3.073
  144DOPC   GL1 1694  24.683   3.291   3.423
  144DOPC   GL2 1695  24.513   3.071   3.573
  144DOPC   C1A 1696  24.853   3.521   3.663
  144DOPC   D2A 1697   0.097   3.821   3.953
  144DOPC   C3A 1698   0.017   4.321   3.863
  144DOPC   C4A 1699   0.107   4.751   4.013
  144DOPC   C1B 1700  24.703   3.051   3.943
  144DOPC   D2B 1701   0.027   2.891   4.303
  144DOPC   C3B 1702  24.933   2.921   4.743
  144DOPC   C4B 1703  24.793   2.931   5.213
  145DOPC   NC3 1704  18.303   3.301   9.903
  145DOPC   PO4 1705  18.273   3.121  10.243
  145DOPC   GL1 1706  18.593   2.871  10.323
  145DOPC   GL2 1707  18.743   3.001  10.113
  145DOPC   C1A 1708  18.723   2.741  10.713
  145DOPC   D2A 1709  18.753   2.411  11.093
  145DOPC   C3A 1710  19.193   2.461  11.363
  145DOPC   C4A 1711  19.533   2.391  11.653
  145DOPC   C1B 1712  19.203   3.001   9.943
  145DOPC   D2B 1713  19.713   2.871  10.013
  145DOPC   C3B 1714  19.913   2.961  10.433
  145DOPC   C4B 1715  20.063   3.241  10.913
  146DOPC   NC3 1716   8.297   3.951   6.253
  146DOPC   PO4 1717   8.267   3.631   6.473
  146DOPC   GL1 1718   8.357   3.801   6.823
  146DOPC   GL2 1719   8.507   3.641   6.993
  146DOPC   C1A 1720   7.977   4.021   6.983
  146DOPC   D2A 1721   7.487   4.081   7.103
  146DOPC   C3A 1722   7.347   3.961   7.553
  146DOPC   C4A 1723   7.207   3.941   8.083
  146DOPC   C1B 1724   8.257   3.531   7.373
  146DOPC   D2B 1725   7.937   3.471   7.743
  146DOPC   C3B 1726   7.777   3.491   8.093
  146DOPC   C4B 1727   7.507   3.481   8.493
  147DOPC   NC3 1728  21.283   5.891   4.753
  147DOPC   PO4 1729  21.483   5.571   4.983
  147DOPC   GL1 1730  21.623   5.541   5.403
  147DOPC   GL2 1731  21.873   5.691   5.373
  147DOPC   C1A 1732  21.723   5.441   5.843
  147DOPC   D2A 1733  22.183   5.311   6.123
  147DOPC   C3A 1734  22.613   5.471   6.253
  147DOPC   C4A 1735  22.983   5.631   6.603
  147DOPC   C1B 1736  22.073   5.751   5.763
  147DOPC   D2B 1737  22.193   5.801   6.243
  147DOPC   C3B 1738  22.533   5.911   6.543
  147DOPC   C4B 1739  22.803   6.111   6.813
  148DOPC   NC3 1740   2.427   5.551   3.593
  148DOPC   PO4 1741   2.177   5.791   3.413
  148DOPC   GL1 1742   1.997   5.971   3.733
  148DOPC   GL2 1743   2.257   5.891   3.913
  148DOPC   C1A 1744   1.847   6.291   3.963
  148DOPC   D2A 1745   1.537   6.541   4.283
  148DOPC   C3A 1746   1.537   6.911   4.533
  148DOPC   C4A 1747   1.477   7.332   4.373
  148DOPC   C1B 1748   2.067   5.491   4.063
  148DOPC   D2B 1749   2.127   5.261   4.463
  148DOPC   C3B 1750   2.107   5.361   4.913
  148DOPC   C4B 1751   2.027   5.511   5.463
  149DOPC   NC3 1752  10.803   3.921   9.243
  149DOPC   PO4 1753  10.953   3.861   9.583
  149DOPC   GL1 1754  10.813   3.811   9.943
  149DOPC   GL2 1755  10.853   3.551   9.983
  149DOPC   C1A 1756  10.483   3.961  10.233
  149DOPC   D2A 1757  10.167   4.141  10.563
  149DOPC   C3A 1758   9.977   4.011  10.973
  149DOPC   C4A 1759   9.987   4.021  11.473
  149DOPC   C1B 1760  10.693   3.571  10.413
  149DOPC   D2B 1761  10.403   3.241  10.703
  149DOPC   C3B 1762  10.247   3.041  11.063
  149DOPC   C4B 1763   9.947   2.791  11.333
  150DOPC   NC3 1764  24.423   6.351   3.263
  150DOPC   PO4 1765  24.603   5.991   3.323
  150DOPC   GL1 1766  24.463   5.871   3.723
  150DOPC   GL2 1767  24.383   5.651   3.713
  150DOPC   C1A 1768  24.723   5.751   4.113
  150DOPC   D2A 1769   0.177   5.871   4.323
  150DOPC   C3A 1770   0.277   5.821   4.803
  150DOPC   C4A 1771   0.167   5.811   5.253
  150DOPC   C1B 1772  24.173   5.691   4.123
  150DOPC   D2B 1773  24.113   5.801   4.603
  150DOPC   C3B 1774  23.903   5.671   5.053
  150DOPC   C4B 1775  23.653   5.601   5.493
  151DOPC   NC3 1776  23.033   7.622   3.903
  151DOPC   PO4 1777  23.083   7.322   4.173
  151DOPC   GL1 1778  23.263   7.292   4.573
  151DOPC   GL2 1779  23.003   7.252   4.733
  151DOPC   C1A 1780  23.353   7.512   4.983
  151DOPC   D2A 1781  23.433   0.041   5.323
  151DOPC   C3A 1782  23.473   0.501   5.213
  151DOPC   C4A 1783  23.323   1.011   5.283
  151DOPC   C1B 1784  23.033   7.212   5.143
  151DOPC   D2B 1785  23.273   7.051   5.513
  151DOPC   C3B 1786  23.263   7.151   5.993
  151DOPC   C4B 1787  23.473   7.182   6.443
  152DOPC   NC3 1788   4.537   4.591   3.703
  152DOPC   PO4 1789   4.197   4.771   3.583
  152DOPC   GL1 1790   3.947   4.931   3.913
  152DOPC   GL2 1791   3.697   4.731   3.873
  152DOPC   C1A 1792   4.107   4.971   4.253
  152DOPC   D2A 1793   4.167   4.951   4.703
  152DOPC   C3A 1794   4.157   5.141   5.103
  152DOPC   C4A 1795   4.197   5.111   5.603
  152DOPC   C1B 1796   3.467   4.871   4.163
  152DOPC   D2B 1797   3.257   4.941   4.643
  152DOPC   C3B 1798   3.067   4.741   4.933
  152DOPC   C4B 1799   3.107   4.421   5.313
  153DOPC   NC3 1800  13.883   6.851  11.203
  153DOPC   PO4 1801  13.703   6.741  11.563
  153DOPC   GL1 1802  13.573   6.591  12.083
  153DOPC   GL2 1803  13.413   6.571  11.903
  153DOPC   C1A 1804  13.453   6.771  12.483
  153DOPC   D2A 1805  13.403   6.861  12.993
  153DOPC   C3A 1806  13.133   6.811  13.403
  153DOPC   C4A 1807  12.903   7.161  13.663
  153DOPC   C1B 1808  13.033   6.551  12.063
  153DOPC   D2B 1809  12.593   6.711  12.243
  153DOPC   C3B 1810  12.473   7.161  12.343
  153DOPC   C4B 1811  12.183   7.552  12.393
  154DOPC   NC3 1812  17.703   0.421  10.843
  154DOPC   PO4 1813  17.713   0.811  10.973
  154DOPC   GL1 1814  18.133   0.851  11.073
  154DOPC   GL2 1815  18.033   1.021  11.343
  154DOPC   C1A 1816  18.583   0.661  11.023
  154DOPC   D2A 1817  19.053   0.531  11.113
  154DOPC   C3A 1818  19.413   0.521  11.403
  154DOPC   C4A 1819  19.883   0.601  11.663
  154DOPC   C1B 1820  18.363   0.821  11.523
  154DOPC   D2B 1821  18.803   0.831  11.683
  154DOPC   C3B 1822  19.143   1.031  11.473
  154DOPC   C4B 1823  19.303   1.481  11.253
  155DOPC   NC3 1824   9.247   0.051   7.453
  155DOPC   PO4 1825   9.087   7.512   7.533
  155DOPC   GL1 1826   8.817   7.422   7.813
  155DOPC   GL2 1827   8.977   7.462   8.093
  155DOPC   C1A 1828   8.387   7.332   7.783
  155DOPC   D2A 1829   8.017   7.242   8.133
  155DOPC   C3A 1830   7.527   7.081   8.243
  155DOPC   C4A 1831   7.127   6.921   8.523
  155DOPC   C1B 1832   8.597   7.522   8.243
  155DOPC   D2B 1833   8.147   7.682   8.413
  155DOPC   C3B 1834   7.787   7.462   8.543
  155DOPC   C4B 1835   7.507   7.121   8.753
  156DOPC   NC3 1836  15.443   7.442  11.663
  156DOPC   PO4 1837  15.113   7.372  11.923
  156DOPC   GL1 1838  15.093   7.502  12.273
  156DOPC   GL2 1839  14.903   7.312  12.453
  156DOPC   C1A 1840  15.133   7.672  12.763
  156DOPC   D2A 1841  15.103   7.692  13.203
  156DOPC   C3A 1842  14.913   7.782  13.613
  156DOPC   C4A 1843  14.803   0.041  14.113
  156DOPC   C1B 1844  14.773   7.362  12.873
  156DOPC   D2B 1845  14.683   7.442  13.343
  156DOPC   C3B 1846  14.953   7.081  13.253
  156DOPC   C4B 1847  14.993   6.901  12.803
  157DOPC   NC3 1848  13.143   5.411  10.803
  157DOPC   PO4 1849  13.143   5.591  11.153
  157DOPC   GL1 1850  13.043   5.821  11.453
  157DOPC   GL2 1851  13.033   5.511  11.633
  157DOPC   C1A 1852  12.653   5.981  11.563
  157DOPC   D2A 1853  12.163   6.171  11.623
  157DOPC   C3A 1854  11.773   6.111  11.903
  157DOPC   C4A 1855  11.313   6.131  12.173
  157DOPC   C1B 1856  12.653   5.451  11.773
  157DOPC   D2B 1857  12.293   5.421  12.103
  157DOPC   C3B 1858  11.953   5.611  12.423
  157DOPC   C4B 1859  11.573   5.331  12.533
  158DOPC   NC3 1860  10.493   3.451   8.793
  158DOPC   PO4 1861  10.187   3.321   8.623
  158DOPC   GL1 1862   9.837   3.131   8.763
  158DOPC   GL2 1863  10.097   2.951   8.843
  158DOPC   C1A 1864   9.387   3.101   8.853
  158DOPC   D2A 1865   8.907   3.011   8.973
  158DOPC   C3A 1866   8.527   3.091   9.233
  158DOPC   C4A 1867   8.257   3.231   9.573
  158DOPC   C1B 1868   9.837   2.701   9.073
  158DOPC   D2B 1869   9.447   2.581   9.303
  158DOPC   C3B 1870   8.997   2.591   9.273
  158DOPC   C4B 1871   8.507   2.511   9.073
  159DOPC   NC3 1872  15.343   4.021  11.823
  159DOPC   PO4 1873  14.953   4.031  11.803
  159DOPC   GL1 1874  14.903   3.741  12.143
  159DOPC   GL2 1875  15.183   3.641  12.093
  159DOPC   C1A 1876  14.923   4.001  12.523
  159DOPC   D2A 1877  14.993   4.201  12.933
  159DOPC   C3A 1878  15.193   4.161  13.383
  159DOPC   C4A 1879  15.503   4.391  13.683
  159DOPC   C1B 1880  15.463   3.421  12.413
  159DOPC   D2B 1881  15.893   3.391  12.683
  159DOPC   C3B 1882  15.883   3.141  13.053
  159DOPC   C4B 1883  15.793   2.671  13.023
  160DOPC   NC3 1884  10.713   2.591   9.403
  160DOPC   PO4 1885  10.973   2.661   9.693
  160DOPC   GL1 1886  10.813   2.461   9.963
  160DOPC   GL2 1887  10.903   2.271  10.103
  160DOPC   C1A 1888  10.603   2.561  10.323
  160DOPC   D2A 1889  10.283   2.781  10.613
  160DOPC   C3A 1890   9.887   3.071  10.623
  160DOPC   C4A 1891   9.567   3.141  11.023
  160DOPC   C1B 1892  10.713   2.111  10.533
  160DOPC   D2B 1893  10.247   2.141  10.463
  160DOPC   C3B 1894   9.827   2.271  10.613
  160DOPC   C4B 1895   9.307   2.371  10.543
  161DOPC   NC3 1896  12.863   2.401  11.453
  161DOPC   PO4 1897  12.953   2.011  11.503
  161DOPC   GL1 1898  12.783   1.791  11.823
  161DOPC   GL2 1899  12.813   1.481  11.733
  161DOPC   C1A 1900  12.403   1.851  12.063
  161DOPC   D2A 1901  12.033   1.901  12.403
  161DOPC   C3A 1902  12.103   1.591  12.773
  161DOPC   C4A 1903  12.423   1.391  13.023
  161DOPC   C1B 1904  12.773   1.171  12.103
  161DOPC   D2B 1905  12.523   1.161  12.553
  161DOPC   C3B 1906  12.103   1.121  12.713
  161DOPC   C4B 1907  11.753   1.221  13.033
  162DOPC   NC3 1908  19.763   6.501   7.413
  162DOPC   PO4 1909  19.923   6.451   7.033
  162DOPC   GL1 1910  20.243   6.541   7.163
  162DOPC   GL2 1911  20.273   6.251   7.303
  162DOPC   C1A 1912  20.413   6.871   7.443
  162DOPC   D2A 1913  20.743   6.981   7.803
  162DOPC   C3A 1914  21.093   7.202   7.903
  162DOPC   C4A 1915  21.523   7.362   8.123
  162DOPC   C1B 1916  20.483   6.181   7.723
  162DOPC   D2B 1917  20.963   6.441   7.883
  162DOPC   C3B 1918  21.183   6.741   8.103
  162DOPC   C4B 1919  21.463   6.931   8.443
  163DOPC   NC3 1920   6.517   3.451   4.563
  163DOPC   PO4 1921   6.737   3.581   4.863
  163DOPC   GL1 1922   6.567   3.501   5.263
  163DOPC   GL2 1923   6.797   3.651   5.373
  163DOPC   C1A 1924   6.187   3.381   5.433
  163DOPC   D2A 1925   6.087   3.541   5.943
  163DOPC   C3A 1926   5.737   3.511   6.213
  163DOPC   C4A 1927   5.277   3.731   6.203
  163DOPC   C1B 1928   6.897   3.451   5.763
  163DOPC   D2B 1929   7.067   3.511   6.193
  163DOPC   C3B 1930   6.847   3.771   6.563
  163DOPC   C4B 1931   6.937   3.891   6.963
  164DOPC   NC3 1932  18.753   5.541   8.903
  164DOPC   PO4 1933  18.843   5.261   9.153
  164DOPC   GL1 1934  19.113   5.401   9.463
  164DOPC   GL2 1935  18.843   5.411   9.633
  164DOPC   C1A 1936  19.333   5.331   9.873
  164DOPC   D2A 1937  19.283   5.281  10.343
  164DOPC   C3A 1938  19.573   5.241  10.613
  164DOPC   C4A 1939  19.933   5.161  11.003
  164DOPC   C1B 1940  18.873   5.161  10.073
  164DOPC   D2B 1941  18.823   5.221  10.553
  164DOPC   C3B 1942  19.063   5.401  10.933
  164DOPC   C4B 1943  19.173   5.581  11.403
  165DOPC   NC3 1944   2.817   6.831   3.373
  165DOPC   PO4 1945   3.177   6.951   3.313
  165DOPC   GL1 1946   3.357   6.941   3.773
  165DOPC   GL2 1947   3.187   6.701   3.703
  165DOPC   C1A 1948   3.157   6.971   4.143
  165DOPC   D2A 1949   2.897   7.011   4.563
  165DOPC   C3A 1950   2.847   7.061   4.993
  165DOPC   C4A 1951   2.727   7.101   5.453
  165DOPC   C1B 1952   2.827   6.511   3.873
  165DOPC   D2B 1953   2.647   6.471   4.413
  165DOPC   C3B 1954   2.487   6.751   4.703
  165DOPC   C4B 1955   2.317   7.001   5.043
  166DOPC   NC3 1956  18.613   7.292   9.553
  166DOPC   PO4 1957  18.563   7.692   9.543
  166DOPC   GL1 1958  18.583   7.572   9.983
  166DOPC   GL2 1959  18.423   7.792  10.053
  166DOPC   C1A 1960  18.903   7.542  10.263
  166DOPC   D2A 1961  19.353   7.632  10.343
  166DOPC   C3A 1962  19.613   7.732  10.713
  166DOPC   C4A 1963  19.953   7.762  11.063
  166DOPC   C1B 1964  18.693   0.141  10.373
  166DOPC   D2B 1965  19.083   0.091  10.663
  166DOPC   C3B 1966  19.403   0.301  10.933
  166DOPC   C4B 1967  19.823   0.561  11.043
  167DOPC   NC3 1968  16.003   1.481  11.433
  167DOPC   PO4 1969  15.933   1.521  11.853
  167DOPC   GL1 1970  16.253   1.731  12.093
  167DOPC   GL2 1971  16.353   1.491  12.083
  167DOPC   C1A 1972  16.323   1.811  12.503
  167DOPC   D2A 1973  16.773   1.771  12.653
  167DOPC   C3A 1974  17.183   1.811  12.973
  167DOPC   C4A 1975  17.313   1.931  13.413
  167DOPC   C1B 1976  16.583   1.371  12.453
  167DOPC   D2B 1977  16.733   1.141  12.863
  167DOPC   C3B 1978  17.003   1.311  13.083
  167DOPC   C4B 1979  17.523   1.371  13.053
  168DOPC   NC3 1980  19.923   3.571   6.353
  168DOPC   PO4 1981  20.033   3.861   6.683
  168DOPC   GL1 1982  20.303   3.791   7.033
  168DOPC   GL2 1983  20.283   4.081   7.123
  168DOPC   C1A 1984  20.723   3.691   7.123
  168DOPC   D2A 1985  21.163   3.771   7.433
  168DOPC   C3A 1986  21.553   3.671   7.643
  168DOPC   C4A 1987  22.013   3.771   7.503
  168DOPC   C1B 1988  20.703   4.241   7.143
  168DOPC   D2B 1989  21.143   4.081   7.043
  168DOPC   C3B 1990  21.553   3.951   7.203
  168DOPC   C4B 1991  21.913   3.711   7.023
  169DOPC   NC3 1992  21.023   1.601   5.753
  169DOPC   PO4 1993  20.723   1.581   6.053
  169DOPC   GL1 1994  20.833   1.681   6.473
  169DOPC   GL2 1995  20.533   1.681   6.453
  169DOPC   C1A 1996  21.003   2.081   6.733
  169DOPC   D2A 1997  21.223   2.321   7.133
  169DOPC   C3A 1998  21.453   2.261   7.533
  169DOPC   C4A 1999  21.533   2.221   7.943
  169DOPC   C1B 2000  20.653   1.741   6.893
  169DOPC   D2B 2001  20.773   2.081   7.273
  169DOPC   C3B 2002  20.843   2.141   7.743
  169DOPC   C4B 2003  21.053   2.261   8.163
  170DOPC   NC3 2004   7.157   0.431   5.353
  170DOPC   PO4 2005   7.387   0.191   5.603
  170DOPC   GL1 2006   7.417   0.171   6.023
  170DOPC   GL2 2007   7.337   7.622   6.023
  170DOPC   C1A 2008   7.217   0.481   6.243
  170DOPC   D2A 2009   6.937   0.661   6.593
  170DOPC   C3A 2010   6.557   0.421   6.533
  170DOPC   C4A 2011   6.137   0.371   6.273
  170DOPC   C1B 2012   7.187   7.482   6.333
  170DOPC   D2B 2013   7.037   7.182   6.773
  170DOPC   C3B 2014   6.797   7.232   7.153
  170DOPC   C4B 2015   6.597   7.352   7.603
  171DOPC   NC3 2016   9.167   6.991   7.933
  171DOPC   PO4 2017   9.507   7.292   7.843
  171DOPC   GL1 2018   9.517   7.382   8.203
  171DOPC   GL2 2019   9.447   7.121   8.313
  171DOPC   C1A 2020   9.327   7.732   8.263
  171DOPC   D2A 2021   8.917   0.131   8.093
  171DOPC   C3A 2022   8.597   0.271   8.413
  171DOPC   C4A 2023   8.507   0.391   8.863
  171DOPC   C1B 2024   9.167   7.272   8.503
  171DOPC   D2B 2025   8.867   7.622   8.603
  171DOPC   C3B 2026   8.487   7.632   8.813
  171DOPC   C4B 2027   8.157   7.292   9.053
  172DOPC   NC3 2028  19.273   7.342   8.003
  172DOPC   PO4 2029  19.413   7.742   8.033
  172DOPC   GL1 2030  19.683   0.231   7.983
  172DOPC   GL2 2031  19.863   0.031   7.873
  172DOPC   C1A 2032  20.113   0.511   8.143
  172DOPC   D2A 2033  20.423   0.651   8.433
  172DOPC   C3A 2034  20.723   0.781   8.783
  172DOPC   C4A 2035  20.953   0.901   9.193
  172DOPC   C1B 2036  20.233   0.031   8.093
  172DOPC   D2B 2037  20.723   0.231   8.133
  172DOPC   C3B 2038  21.203   0.271   8.033
  172DOPC   C4B 2039  21.673   0.221   7.983
  173DOPC   NC3 2040   2.497   1.991   3.383
  173DOPC   PO4 2041   2.587   2.261   3.673
  173DOPC   GL1 2042   2.367   2.521   4.013
  173DOPC   GL2 2043   2.647   2.421   4.143
  173DOPC   C1A 2044   2.197   2.421   4.383
  173DOPC   D2A 2045   1.837   2.361   4.683
  173DOPC   C3A 2046   1.817   1.991   4.953
  173DOPC   C4A 2047   2.037   1.541   5.143
  173DOPC   C1B 2048   2.727   2.361   4.583
  173DOPC   D2B 2049   2.817   1.861   4.803
  173DOPC   C3B 2050   2.927   1.951   5.243
  173DOPC   C4B 2051   3.037   2.191   5.673
  174DOPC   NC3 2052  11.373   2.681  10.653
  174DOPC   PO4 2053  11.413   3.041  10.533
  174DOPC   GL1 2054  10.993   3.251  10.603
  174DOPC   GL2 2055  10.813   3.021  10.453
  174DOPC   C1A 2056  10.923   3.571  10.843
  174DOPC   D2A 2057  10.413   3.761  10.803
  174DOPC   C3A 2058   9.927   3.551  10.773
  174DOPC   C4A 2059   9.427   3.621  10.783
  174DOPC   C1B 2060  10.563   3.131  10.173
  174DOPC   D2B 2061  10.197   3.441  10.213
  174DOPC   C3B 2062   9.877   3.781  10.343
  174DOPC   C4B 2063   9.597   4.141  10.493
  175DOPC   NC3 2064   7.307   1.451   4.543
  175DOPC   PO4 2065   7.287   1.241   4.873
  175DOPC   GL1 2066   7.057   1.361   5.163
  175DOPC   GL2 2067   7.247   1.261   5.413
  175DOPC   C1A 2068   6.737   1.301   5.303
  175DOPC   D2A 2069   6.237   1.241   5.293
  175DOPC   C3A 2070   6.037   0.931   5.543
  175DOPC   C4A 2071   5.897   0.571   5.813
  175DOPC   C1B 2072   7.027   1.261   5.783
  175DOPC   D2B 2073   6.797   1.491   6.143
  175DOPC   C3B 2074   6.347   1.391   6.273
  175DOPC   C4B 2075   6.107   0.941   6.073
  176DOPA   PO4 2076  10.993   6.901   9.153
  176DOPA   GL1 2077  10.543   6.931   9.263
  176DOPA   GL2 2078  10.583   6.771   9.513
  176DOPA   C1A 2079  10.263   7.232   9.343
  176DOPA   D2A 2080   9.957   7.652   9.483
  176DOPA   C3A 2081   9.597   0.011   9.613
  176DOPA   C4A 2082   9.207   0.251   9.803
  176DOPA   C1B 2083  10.237   6.811   9.793
  176DOPA   D2B 2084   9.927   6.921  10.113
  176DOPA   C3B 2085  10.037   6.801  10.543
  176DOPA   C4B 2086   9.997   6.881  11.023
  177DOPA   PO4 2087   1.287   3.781   3.423
  177DOPA   GL1 2088   1.057   3.881   3.783
  177DOPA   GL2 2089   0.787   3.781   3.633
  177DOPA   C1A 2090   1.047   3.861   4.203
  177DOPA   D2A 2091   1.087   3.991   4.673
  177DOPA   C3A 2092   1.227   4.221   5.063
  177DOPA   C4A 2093   1.477   4.281   5.503
  177DOPA   C1B 2094   0.607   3.661   3.943
  177DOPA   D2B 2095   0.317   3.561   4.373
  177DOPA   C3B 2096   0.357   3.711   4.863
  177DOPA   C4B 2097   0.457   3.591   5.353
  178DOPA   PO4 2098  11.453   0.011   9.793
  178DOPA   GL1 2099  11.183   0.191  10.103
  178DOPA   GL2 2100  11.233   7.712  10.133
  178DOPA   C1A 2101  10.803   0.251  10.353
  178DOPA   D2A 2102  10.523   0.341  10.793
  178DOPA   C3A 2103  10.127   0.351  10.953
  178DOPA   C4A 2104   9.747   0.391  11.343
  178DOPA   C1B 2105  10.923   7.492  10.353
  178DOPA   D2B 2106  10.613   7.622  10.713
  178DOPA   C3B 2107  10.323   7.592  11.053
  178DOPA   C4B 2108  10.077   7.432  11.443
  179DOPA   PO4 2109  16.983   0.471  11.583
  179DOPA   GL1 2110  17.413   0.321  11.483
  179DOPA   GL2 2111  17.343   0.191  11.743
  179DOPA   C1A 2112  17.763   0.531  11.643
  179DOPA   D2A 2113  17.943   0.911  11.913
  179DOPA   C3A 2114  18.033   0.891  12.373
  179DOPA   C4A 2115  18.203   1.101  12.803
  179DOPA   C1B 2116  17.663   0.251  12.073
  179DOPA   D2B 2117  17.823   7.692  12.333
  179DOPA   C3B 2118  17.873   0.291  12.603
  179DOPA   C4B 2119  18.123   0.611  12.913
  180DOPA   PO4 2120   8.357   7.762   5.863
  180DOPA   GL1 2121   8.107   0.111   6.173
  180DOPA   GL2 2122   7.867   0.221   6.133
  180DOPA   C1A 2123   8.047   0.081   6.603
  180DOPA   D2A 2124   7.967   7.762   7.103
  180DOPA   C3A 2125   8.147   0.151   7.533
  180DOPA   C4A 2126   8.127   7.682   7.913
  180DOPA   C1B 2127   7.567   0.101   6.443
  180DOPA   D2B 2128   7.117   0.131   6.633
  180DOPA   C3B 2129   6.917   0.091   7.063
  180DOPA   C4B 2130   6.647   0.021   7.483
  181DOPA   PO4 2131  18.003   7.572  10.053
  181DOPA   GL1 2132  18.353   7.492  10.393
  181DOPA   GL2 2133  18.383   7.192  10.173
  181DOPA   C1A 2134  18.703   7.572  10.753
  181DOPA   D2A 2135  19.013   7.722  11.123
  181DOPA   C3A 2136  19.253   7.762  11.473
  181DOPA   C4A 2137  19.563   7.572  11.883
  181DOPA   C1B 2138  18.803   7.101  10.093
  181DOPA   D2B 2139  19.243   6.971  10.143
  181DOPA   C3B 2140  19.433   6.751  10.563
  181DOPA   C4B 2141  19.833   6.651  10.813
  182DOPA   PO4 2142  15.893   7.542  11.503
  182DOPA   GL1 2143  15.833   7.552  11.893
  182DOPA   GL2 2144  16.103   7.362  11.853
  182DOPA   C1A 2145  15.943   0.041  12.243
  182DOPA   D2A 2146  15.903   0.091  12.703
  182DOPA   C3A 2147  16.293   0.041  12.963
  182DOPA   C4A 2148  16.643   7.482  13.053
  182DOPA   C1B 2149  16.143   7.402  12.313
  182DOPA   D2B 2150  16.263   7.382  12.723
  182DOPA   C3B 2151  16.183   7.402  13.173
  182DOPA   C4B 2152  16.273   7.522  13.623
  183DOPA   PO4 2153  23.433   3.131   3.603
  183DOPA   GL1 2154  23.773   3.151   3.793
  183DOPA   GL2 2155  23.963   3.081   3.603
  183DOPA   C1A 2156  23.883   3.291   4.203
  183DOPA   D2A 2157  23.533   3.211   4.533
  183DOPA   C3A 2158  23.463   2.691   4.553
  183DOPA   C4A 2159  23.353   2.281   4.803
  183DOPA   C1B 2160  24.243   3.011   3.933
  183DOPA   D2B 2161  24.513   2.961   4.373
  183DOPA   C3B 2162  24.463   2.851   4.843
  183DOPA   C4B 2163  24.323   2.871   5.323
  184DOPA   PO4 2164  16.793   4.421  11.333
  184DOPA   GL1 2165  17.063   4.311  11.473
  184DOPA   GL2 2166  17.353   4.291  11.333
  184DOPA   C1A 2167  17.203   4.401  11.863
  184DOPA   D2A 2168  17.423   4.661  12.193
  184DOPA   C3A 2169  17.813   4.661  12.433
  184DOPA   C4A 2170  18.193   4.591  12.673
  184DOPA   C1B 2171  17.693   4.301  11.653
  184DOPA   D2B 2172  18.123   4.191  11.913
  184DOPA   C3B 2173  18.483   4.381  12.183
  184DOPA   C4B 2174  18.893   4.541  12.213
  185DOPA   PO4 2175   5.207   2.561   4.213
  185DOPA   GL1 2176   4.917   2.611   4.593
  185DOPA   GL2 2177   5.177   2.551   4.683
  185DOPA   C1A 2178   4.807   2.801   4.943
  185DOPA   D2A 2179   4.897   2.901   5.433
  185DOPA   C3A 2180   4.657   2.831   5.753
  185DOPA   C4A 2181   4.457   2.951   6.143
  185DOPA   C1B 2182   5.217   2.511   5.143
  185DOPA   D2B 2183   5.047   2.341   5.613
  185DOPA   C3B 2184   5.077   2.281   6.023
  185DOPA   C4B 2185   5.107   2.291   6.503
  186DOPA   PO4 2186  15.793   6.431  11.523
  186DOPA   GL1 2187  16.053   6.721  11.743
  186DOPA   GL2 2188  16.133   6.481  11.823
  186DOPA   C1A 2189  15.973   6.901  12.133
  186DOPA   D2A 2190  15.783   6.621  12.543
  186DOPA   C3A 2191  16.023   6.651  12.883
  186DOPA   C4A 2192  16.263   6.761  13.313
  186DOPA   C1B 2193  15.953   6.301  12.203
  186DOPA   D2B 2194  15.893   6.161  12.693
  186DOPA   C3B 2195  16.183   6.201  13.033
  186DOPA   C4B 2196  16.553   6.091  13.273
  187DOPA   PO4 2197  16.543   6.661  11.203
  187DOPA   GL1 2198  16.673   6.501  11.543
  187DOPA   GL2 2199  16.613   6.771  11.643
  187DOPA   C1A 2200  16.803   6.151  11.843
  187DOPA   D2A 2201  17.033   5.781  12.093
  187DOPA   C3A 2202  17.403   5.881  12.393
  187DOPA   C4A 2203  17.603   5.951  12.833
  187DOPA   C1B 2204  16.493   6.581  12.053
  187DOPA   D2B 2205  16.353   6.401  12.543
  187DOPA   C3B 2206  16.583   6.501  12.933
  187DOPA   C4B 2207  16.853   6.641  13.353
  188DOPA   PO4 2208   1.957   0.291   3.533
  188DOPA   GL1 2209   2.067   0.191   3.913
  188DOPA   GL2 2210   1.767   0.311   4.033
  188DOPA   C1A 2211   2.247   0.091   4.313
  188DOPA   D2A 2212   2.407   0.231   4.813
  188DOPA   C3A 2213   2.627   0.171   5.223
  188DOPA   C4A 2214   2.527   7.632   5.573
  188DOPA   C1B 2215   1.637   0.231   4.473
  188DOPA   D2B 2216   1.367   7.702   4.813
  188DOPA   C3B 2217   1.387   7.632   5.273
  188DOPA   C4B 2218   1.447   7.212   5.593
  189DOPA   PO4 2219   0.787   1.131   3.483
  189DOPA   GL1 2220   0.997   1.161   3.883
  189DOPA   GL2 2221   0.997   1.431   3.903
  189DOPA   C1A 2222   0.987   0.981   4.243
  189DOPA   D2A 2223   0.957   0.781   4.683
  189DOPA   C3A 2224   1.337   0.691   4.933
  189DOPA   C4A 2225   1.627   0.371   5.123
  189DOPA   C1B 2226   1.047   1.461   4.313
  189DOPA   D2B 2227   1.137   1.411   4.723
  189DOPA   C3B 2228   1.197   1.091   5.093
  189DOPA   C4B 2229   1.447   0.771   5.393
  190DOPA   PO4 2230  14.113   1.801  11.913
  190DOPA   GL1 2231  14.223   1.981  12.413
  190DOPA   GL2 2232  14.023   1.851  12.473
  190DOPA   C1A 2233  14.433   2.151  12.743
  190DOPA   D2A 2234  14.443   2.201  13.283
  190DOPA   C3A 2235  14.023   2.361  13.543
  190DOPA   C4A 2236  13.683   2.641  13.793
  190DOPA   C1B 2237  14.163   1.611  12.783
  190DOPA   D2B 2238  14.393   1.251  13.093
  190DOPA   C3B 2239  14.683   1.331  13.443
  190DOPA   C4B 2240  14.953   1.491  13.803
  191DOPA   PO4 2241  12.863   0.401  11.533
  191DOPA   GL1 2242  12.473   0.271  11.773
  191DOPA   GL2 2243  12.383   0.241  11.473
  191DOPA   C1A 2244  12.283   0.261  12.123
  191DOPA   D2A 2245  12.293   0.601  12.533
  191DOPA   C3A 2246  12.193   0.371  13.023
  191DOPA   C4A 2247  12.233   0.131  13.473
  191DOPA   C1B 2248  11.963   0.191  11.643
  191DOPA   D2B 2249  11.463   0.141  11.693
  191DOPA   C3B 2250  11.093   0.241  12.003
  191DOPA   C4B 2251  10.953   0.251  12.463
  192DOPA   PO4 2252  12.473   7.532  10.903
  192DOPA   GL1 2253  12.223   7.552  11.253
  192DOPA   GL2 2254  12.303   7.252  11.313
  192DOPA   C1A 2255  11.793   7.712  11.163
  192DOPA   D2A 2256  11.323   0.081  11.183
  192DOPA   C3A 2257  11.013   7.672  11.563
  192DOPA   C4A 2258  11.193   7.192  11.703
  192DOPA   C1B 2259  12.013   7.041  11.483
  192DOPA   D2B 2260  11.603   7.071  11.863
  192DOPA   C3B 2261  11.253   7.121  12.193
  192DOPA   C4B 2262  10.883   7.452  11.983
  193DOPA   PO4 2263  20.803   6.951   6.243
  193DOPA   GL1 2264  20.993   7.061   6.643
  193DOPA   GL2 2265  21.013   7.332   6.563
  193DOPA   C1A 2266  21.313   6.831   6.903
  193DOPA   D2A 2267  21.613   6.731   7.263
  193DOPA   C3A 2268  21.983   6.581   7.443
  193DOPA   C4A 2269  22.403   6.291   7.643
  193DOPA   C1B 2270  21.353   7.412   6.903
  193DOPA   D2B 2271  21.713   7.292   7.233
  193DOPA   C3B 2272  21.933   7.131   7.563
  193DOPA   C4B 2273  21.943   7.051   8.043
  194DOPA   PO4 2274  11.663   2.181  10.843
  194DOPA   GL1 2275  11.563   1.901  11.123
  194DOPA   GL2 2276  11.793   1.771  11.243
  194DOPA   C1A 2277  11.273   1.901  11.403
  194DOPA   D2A 2278  10.913   1.841  11.793
  194DOPA   C3A 2279  10.513   2.031  11.793
  194DOPA   C4A 2280  10.117   2.191  11.883
  194DOPA   C1B 2281  11.703   1.531  11.553
  194DOPA   D2B 2282  11.363   1.431  11.903
  194DOPA   C3B 2283  11.383   1.121  12.253
  194DOPA   C4B 2284  11.453   0.941  12.713
  195DOPA   PO4 2285   3.257   3.931   3.613
  195DOPA   GL1 2286   3.207   4.081   4.023
  195DOPA   GL2 2287   3.427   3.941   4.033
  195DOPA   C1A 2288   2.917   4.301   4.273
  195DOPA   D2A 2289   2.717   4.591   4.593
  195DOPA   C3A 2290   2.657   4.471   5.023
  195DOPA   C4A 2291   2.417   4.541   5.483
  195DOPA   C1B 2292   3.357   3.861   4.453
  195DOPA   D2B 2293   3.357   3.721   4.943
  195DOPA   C3B 2294   3.047   3.441   5.213
  195DOPA   C4B 2295   2.797   3.011   5.203
  196DOPA   PO4 2296   5.917   5.531   4.643
  196DOPA   GL1 2297   5.907   5.261   4.983
  196DOPA   GL2 2298   6.007   5.421   5.183
  196DOPA   C1A 2299   5.697   4.981   5.203
  196DOPA   D2A 2300   5.407   4.631   5.463
  196DOPA   C3A 2301   5.597   4.261   5.573
  196DOPA   C4A 2302   5.657   4.051   5.933
  196DOPA   C1B 2303   5.937   5.251   5.593
  196DOPA   D2B 2304   5.817   5.481   6.063
  196DOPA   C3B 2305   5.637   5.441   6.483
  196DOPA   C4B 2306   5.507   5.351   6.953
  197DOPA   PO4 2307  22.463   4.201   4.493
  197DOPA   GL1 2308  22.733   4.311   4.783
  197DOPA   GL2 2309  22.503   4.541   4.863
  197DOPA   C1A 2310  23.013   4.231   5.063
  197DOPA   D2A 2311  23.433   4.311   5.343
  197DOPA   C3A 2312  23.803   4.231   5.663
  197DOPA   C4A 2313  24.103   4.211   6.043
  197DOPA   C1B 2314  22.813   4.651   5.213
  197DOPA   D2B 2315  23.153   4.721   5.583
  197DOPA   C3B 2316  23.583   4.751   5.753
  197DOPA   C4B 2317  24.043   4.701   5.753
  198DOPA   PO4 2318  16.203   1.101  11.673
  198DOPA   GL1 2319  16.253   0.771  11.953
  198DOPA   GL2 2320  16.453   0.911  12.123
  198DOPA   C1A 2321  16.003   0.551  12.213
  198DOPA   D2A 2322  15.633   0.601  12.443
  198DOPA   C3A 2323  15.623   0.621  12.863
  198DOPA   C4A 2324  15.413   0.801  13.283
  198DOPA   C1B 2325  16.433   0.851  12.573
  198DOPA   D2B 2326  16.283   0.931  13.043
  198DOPA   C3B 2327  15.943   0.811  13.313
  198DOPA   C4B 2328  15.663   0.431  13.523
  199DOPA   PO4 2329  22.033   5.681   4.823
  199DOPA   GL1 2330  22.193   5.401   5.083
  199DOPA   GL2 2331  22.423   5.341   4.933
  199DOPA   C1A 2332  22.413   5.561   5.413
  199DOPA   D2A 2333  22.613   5.791   5.823
  199DOPA   C3A 2334  22.923   5.941   6.173
  199DOPA   C4A 2335  23.113   6.271   6.433
  199DOPA   C1B 2336  22.863   5.511   4.993
  199DOPA   D2B 2337  23.243   5.801   5.003
  199DOPA   C3B 2338  23.193   6.191   5.183
  199DOPA   C4B 2339  23.423   6.611   5.063
  200DOPA   PO4 2340  15.313   3.371  11.763
  200DOPA   GL1 2341  15.703   3.481  11.833
  200DOPA   GL2 2342  15.883   3.371  11.883
  200DOPA   C1A 2343  15.673   3.791  12.163
  200DOPA   D2A 2344  15.473   4.081  12.503
  200DOPA   C3A 2345  15.493   3.751  12.863
  200DOPA   C4A 2346  15.333   3.551  13.363
  200DOPA   C1B 2347  16.063   3.111  12.263
  200DOPA   D2B 2348  16.203   2.811  12.663
  200DOPA   C3B 2349  16.573   2.771  12.843
  200DOPA   C4B 2350  17.043   2.681  12.713
12083DOPC   NC3 2351  10.197   1.581  14.583
12083DOPC   PO4 2352  10.057   1.751  14.263
12083DOPC   GL1 2353  10.333   1.811  13.923
12083DOPC   GL2 2354  10.293   2.141  14.043
12083DOPC   C1A 2355  10.513   1.921  13.543
12083DOPC   D2A 2356  10.873   2.231  13.313
12083DOPC   C3A 2357  11.063   2.441  12.933
12083DOPC   C4A 2358  11.253   2.451  12.503
12083DOPC   C1B 2359  10.097   2.321  13.693
12083DOPC   D2B 2360  10.383   2.431  13.333
12083DOPC   C3B 2361  10.673   2.671  13.023
12083DOPC   C4B 2362  10.863   2.811  12.613
12084DOPC   NC3 2363  15.403   5.641  15.713
12084DOPC   PO4 2364  15.203   5.991  15.773
12084DOPC   GL1 2365  15.083   5.831  15.333
12084DOPC   GL2 2366  15.293   5.751  15.283
12084DOPC   C1A 2367  14.693   6.071  15.123
12084DOPC   D2A 2368  14.283   6.421  14.963
12084DOPC   C3A 2369  14.143   6.231  14.543
12084DOPC   C4A 2370  14.133   6.261  14.003
12084DOPC   C1B 2371  15.433   5.541  14.843
12084DOPC   D2B 2372  15.693   5.221  14.553
12084DOPC   C3B 2373  15.613   4.861  14.263
12084DOPC   C4B 2374  15.863   4.561  14.003
12085DOPC   NC3 2375   2.097   1.521   7.603
12085DOPC   PO4 2376   2.457   1.691   7.793
12085DOPC   GL1 2377   2.767   1.741   7.523
12085DOPC   GL2 2378   2.617   1.971   7.373
12085DOPC   C1A 2379   3.047   1.881   7.173
12085DOPC   D2A 2380   3.297   1.951   6.753
12085DOPC   C3A 2381   3.177   1.891   6.283
12085DOPC   C4A 2382   3.197   1.681   5.833
12085DOPC   C1B 2383   2.637   2.131   6.963
12085DOPC   D2B 2384   2.607   2.191   6.453
12085DOPC   C3B 2385   2.567   1.931   6.013
12085DOPC   C4B 2386   2.527   1.871   5.563
12086DOPC   NC3 2387  19.813   5.911  14.123
12086DOPC   PO4 2388  19.923   6.111  13.823
12086DOPC   GL1 2389  19.623   6.281  13.603
12086DOPC   GL2 2390  19.383   6.171  13.663
12086DOPC   C1A 2391  19.513   6.551  13.243
12086DOPC   D2A 2392  19.273   6.611  12.783
12086DOPC   C3A 2393  19.283   6.661  12.313
12086DOPC   C4A 2394  19.333   6.741  11.783
12086DOPC   C1B 2395  19.203   5.971  13.313
12086DOPC   D2B 2396  19.053   5.631  13.023
12086DOPC   C3B 2397  18.643   5.711  12.803
12086DOPC   C4B 2398  18.133   5.681  12.833
12087DOPC   NC3 2399   3.177   0.511   7.973
12087DOPC   PO4 2400   2.867   0.541   7.743
12087DOPC   GL1 2401   3.037   0.351   7.413
12087DOPC   GL2 2402   2.817   0.141   7.443
12087DOPC   C1A 2403   3.387   0.431   7.173
12087DOPC   D2A 2404   3.647   0.441   6.783
12087DOPC   C3A 2405   3.957   0.661   6.603
12087DOPC   C4A 2406   4.127   0.741   6.143
12087DOPC   C1B 2407   2.607   7.702   7.103
12087DOPC   D2B 2408   2.627   0.031   6.593
12087DOPC   C3B 2409   2.807   7.522   6.343
12087DOPC   C4B 2410   2.817   7.272   5.923
12088DOPC   NC3 2411  20.753   1.971  13.613
12088DOPC   PO4 2412  20.593   2.271  13.783
12088DOPC   GL1 2413  20.113   2.311  13.523
12088DOPC   GL2 2414  20.283   2.111  13.393
12088DOPC   C1A 2415  19.833   2.431  13.113
12088DOPC   D2A 2416  19.463   2.451  12.803
12088DOPC   C3A 2417  19.283   2.431  12.423
12088DOPC   C4A 2418  19.093   2.381  11.913
12088DOPC   C1B 2419  19.993   1.931  13.203
12088DOPC   D2B 2420  19.573   1.741  13.103
12088DOPC   C3B 2421  19.423   1.571  12.703
12088DOPC   C4B 2422  19.263   1.211  12.383
12089DOPC   NC3 2423   6.347   1.881  10.773
12089DOPC   PO4 2424   6.387   2.251  10.593
12089DOPC   GL1 2425   6.567   2.401  10.273
12089DOPC   GL2 2426   6.857   2.411  10.323
12089DOPC   C1A 2427   6.557   2.341   9.863
12089DOPC   D2A 2428   6.497   2.551   9.423
12089DOPC   C3A 2429   6.547   2.691   8.933
12089DOPC   C4A 2430   6.747   2.881   8.523
12089DOPC   C1B 2431   7.227   2.271  10.133
12089DOPC   D2B 2432   7.667   2.211   9.853
12089DOPC   C3B 2433   8.017   1.931   9.883
12089DOPC   C4B 2434   8.497   1.771   9.853
12090DOPC   NC3 2435  20.513   6.641  13.443
12090DOPC   PO4 2436  20.783   6.451  13.193
12090DOPC   GL1 2437  20.593   6.301  12.763
12090DOPC   GL2 2438  20.383   6.361  12.973
12090DOPC   C1A 2439  20.343   6.051  12.483
12090DOPC   D2A 2440  20.023   6.021  12.093
12090DOPC   C3A 2441  19.923   5.701  11.803
12090DOPC   C4A 2442  19.883   5.261  11.533
12090DOPC   C1B 2443  19.953   6.291  12.853
12090DOPC   D2B 2444  19.643   6.291  12.433
12090DOPC   C3B 2445  19.163   6.181  12.253
12090DOPC   C4B 2446  18.893   6.231  11.813
12091DOPC   NC3 2447  23.023   5.541  10.073
12091DOPC   PO4 2448  23.193   5.231   9.863
12091DOPC   GL1 2449  22.813   5.111   9.693
12091DOPC   GL2 2450  22.673   5.301   9.873
12091DOPC   C1A 2451  22.483   4.841   9.513
12091DOPC   D2A 2452  22.213   4.431   9.323
12091DOPC   C3A 2453  21.763   4.391   9.223
12091DOPC   C4A 2454  21.403   4.551   9.203
12091DOPC   C1B 2455  22.443   5.581   9.583
12091DOPC   D2B 2456  22.003   5.831   9.503
12091DOPC   C3B 2457  21.753   5.861   9.113
12091DOPC   C4B 2458  21.773   5.741   8.673
12092DOPC   NC3 2459  24.153   3.761   8.733
12092DOPC   PO4 2460  24.213   4.021   8.423
12092DOPC   GL1 2461  23.753   3.971   8.263
12092DOPC   GL2 2462  23.763   3.691   8.353
12092DOPC   C1A 2463  23.623   4.191   7.943
12092DOPC   D2A 2464  23.513   4.341   7.493
12092DOPC   C3A 2465  23.543   4.701   7.203
12092DOPC   C4A 2466  23.793   5.091   6.923
12092DOPC   C1B 2467  23.753   3.361   8.043
12092DOPC   D2B 2468  23.833   3.141   7.623
12092DOPC   C3B 2469  23.713   3.281   7.183
12092DOPC   C4B 2470  23.373   3.281   6.783
12093DOPC   NC3 2471   0.897   6.671   7.543
12093DOPC   PO4 2472   0.877   6.281   7.373
12093DOPC   GL1 2473   0.907   6.361   6.993
12093DOPC   GL2 2474   1.167   6.321   6.883
12093DOPC   C1A 2475   0.847   6.081   6.653
12093DOPC   D2A 2476   0.827   5.581   6.643
12093DOPC   C3A 2477   0.847   5.181   6.363
12093DOPC   C4A 2478   0.947   4.891   6.003
12093DOPC   C1B 2479   1.237   6.441   6.443
12093DOPC   D2B 2480   1.147   6.491   5.983
12093DOPC   C3B 2481   0.827   6.351   5.663
12093DOPC   C4B 2482   0.617   6.111   5.363
12094DOPC   NC3 2483   0.777   2.871   7.653
12094DOPC   PO4 2484   0.927   2.671   7.363
12094DOPC   GL1 2485   1.067   2.841   6.963
12094DOPC   GL2 2486   1.047   2.581   6.793
12094DOPC   C1A 2487   1.127   3.081   6.543
12094DOPC   D2A 2488   0.987   3.091   6.103
12094DOPC   C3A 2489   0.607   3.041   5.803
12094DOPC   C4A 2490   0.207   3.131   5.563
12094DOPC   C1B 2491   1.207   2.631   6.363
12094DOPC   D2B 2492   1.407   2.721   5.943
12094DOPC   C3B 2493   1.377   2.461   5.543
12094DOPC   C4B 2494   1.567   2.031   5.403
12095DOPC   NC3 2495  10.017   6.511  14.023
12095DOPC   PO4 2496  10.107   6.891  13.853
12095DOPC   GL1 2497   9.917   7.192  13.533
12095DOPC   GL2 2498  10.007   6.921  13.403
12095DOPC   C1A 2499   9.797   7.542  13.293
12095DOPC   D2A 2500   9.677   7.582  12.733
12095DOPC   C3A 2501   9.977   7.462  12.423
12095DOPC   C4A 2502  10.293   7.192  12.203
12095DOPC   C1B 2503  10.273   6.851  13.053
12095DOPC   D2B 2504  10.543   6.791  12.603
12095DOPC   C3B 2505  10.803   6.521  12.373
12095DOPC   C4B 2506  11.183   6.591  11.993
12096DOPC   NC3 2507   4.377   7.362   8.363
12096DOPC   PO4 2508   4.147   7.061   8.203
12096DOPC   GL1 2509   4.187   7.081   7.773
12096DOPC   GL2 2510   4.557   7.111   7.913
12096DOPC   C1A 2511   4.057   7.412   7.533
12096DOPC   D2A 2512   4.007   7.472   7.053
12096DOPC   C3A 2513   4.477   7.472   6.923
12096DOPC   C4A 2514   4.827   7.462   6.643
12096DOPC   C1B 2515   4.857   7.001   7.593
12096DOPC   D2B 2516   4.967   6.831   7.163
12096DOPC   C3B 2517   5.017   6.451   6.813
12096DOPC   C4B 2518   4.977   6.121   6.423
12097DOPC   NC3 2519  16.283   1.771  15.773
12097DOPC   PO4 2520  16.223   1.931  15.423
12097DOPC   GL1 2521  16.513   2.061  15.073
12097DOPC   GL2 2522  16.293   2.251  15.163
12097DOPC   C1A 2523  16.423   1.831  14.733
12097DOPC   D2A 2524  16.373   1.741  14.303
12097DOPC   C3A 2525  16.383   1.541  13.823
12097DOPC   C4A 2526  16.333   1.451  13.373
12097DOPC   C1B 2527  15.963   2.361  14.823
12097DOPC   D2B 2528  15.753   2.651  14.503
12097DOPC   C3B 2529  15.383   2.801  14.343
12097DOPC   C4B 2530  15.123   3.191  14.233
12098DOPC   NC3 2531   6.577   1.041  10.463
12098DOPC   PO4 2532   6.817   0.731  10.583
12098DOPC   GL1 2533   7.177   0.631  10.273
12098DOPC   GL2 2534   6.867   0.501  10.243
12098DOPC   C1A 2535   7.317   0.831   9.853
12098DOPC   D2A 2536   7.537   1.061   9.463
12098DOPC   C3A 2537   7.767   1.021   9.063
12098DOPC   C4A 2538   7.907   1.081   8.553
12098DOPC   C1B 2539   6.867   0.441   9.773
12098DOPC   D2B 2540   6.567   0.401   9.323
12098DOPC   C3B 2541   6.957   0.331   9.013
12098DOPC   C4B 2542   7.357   0.211   8.723
12099DOPC   NC3 2543  22.953   1.241  10.723
12099DOPC   PO4 2544  22.953   1.071  10.373
12099DOPC   GL1 2545  22.513   1.181  10.493
12099DOPC   GL2 2546  22.573   0.921  10.633
12099DOPC   C1A 2547  22.193   1.221  10.233
12099DOPC   D2A 2548  21.963   1.511   9.853
12099DOPC   C3A 2549  21.503   1.471   9.723
12099DOPC   C4A 2550  21.083   1.541   9.873
12099DOPC   C1B 2551  22.183   0.721  10.523
12099DOPC   D2B 2552  21.883   0.701  10.173
12099DOPC   C3B 2553  21.543   0.811   9.883
12099DOPC   C4B 2554  21.233   1.071   9.623
12100DOPC   NC3 2555  13.733   3.001  15.843
12100DOPC   PO4 2556  13.583   2.741  15.593
12100DOPC   GL1 2557  13.783   2.591  15.263
12100DOPC   GL2 2558  13.993   2.411  15.333
12100DOPC   C1A 2559  13.673   2.671  14.853
12100DOPC   D2A 2560  13.773   2.961  14.453
12100DOPC   C3A 2561  13.503   2.611  14.263
12100DOPC   C4A 2562  13.333   2.271  13.993
12100DOPC   C1B 2563  14.163   2.341  14.893
12100DOPC   D2B 2564  13.983   2.521  14.463
12100DOPC   C3B 2565  14.183   2.501  14.023
12100DOPC   C4B 2566  14.483   2.561  13.603
12101DOPC   NC3 2567   3.407   6.991   7.913
12101DOPC   PO4 2568   3.747   6.941   7.833
12101DOPC   GL1 2569   3.667   6.901   7.443
12101DOPC   GL2 2570   3.757   6.631   7.513
12101DOPC   C1A 2571   3.987   7.041   7.193
12101DOPC   D2A 2572   4.127   7.202   6.713
12101DOPC   C3A 2573   4.137   7.041   6.263
12101DOPC   C4A 2574   4.177   6.891   5.803
12101DOPC   C1B 2575   3.917   6.401   7.133
12101DOPC   D2B 2576   4.177   6.131   6.723
12101DOPC   C3B 2577   4.497   6.151   6.463
12101DOPC   C4B 2578   4.647   6.201   5.973
12102DOPC   NC3 2579   9.147   3.081  14.023
12102DOPC   PO4 2580   9.567   3.041  13.943
12102DOPC   GL1 2581   9.637   3.331  13.693
12102DOPC   GL2 2582   9.597   3.061  13.443
12102DOPC   C1A 2583  10.027   3.401  13.533
12102DOPC   D2A 2584  10.247   3.301  13.143
12102DOPC   C3A 2585  10.383   3.031  12.763
12102DOPC   C4A 2586  10.493   2.951  12.273
12102DOPC   C1B 2587   9.727   3.131  13.063
12102DOPC   D2B 2588   9.887   3.411  12.743
12102DOPC   C3B 2589  10.303   3.491  12.433
12102DOPC   C4B 2590  10.773   3.471  12.333
12103DOPC   NC3 2591  10.773   5.361  15.343
12103DOPC   PO4 2592  11.173   5.321  15.293
12103DOPC   GL1 2593  11.293   5.051  15.003
12103DOPC   GL2 2594  11.483   4.961  15.223
12103DOPC   C1A 2595  11.333   5.251  14.633
12103DOPC   D2A 2596  11.443   5.631  14.403
12103DOPC   C3A 2597  11.803   5.751  14.153
12103DOPC   C4A 2598  12.303   5.831  13.933
12103DOPC   C1B 2599  11.913   4.901  15.083
12103DOPC   D2B 2600  12.393   4.861  14.803
12103DOPC   C3B 2601  12.143   4.911  14.303
12103DOPC   C4B 2602  12.013   5.091  13.853
12104DOPC   NC3 2603  24.193   4.271   7.923
12104DOPC   PO4 2604  24.223   4.531   8.283
12104DOPC   GL1 2605  23.873   4.441   8.213
12104DOPC   GL2 2606  23.913   4.701   8.063
12104DOPC   C1A 2607  23.423   4.521   8.303
12104DOPC   D2A 2608  22.953   4.531   8.053
12104DOPC   C3A 2609  22.713   4.441   7.653
12104DOPC   C4A 2610  22.443   4.321   7.263
12104DOPC   C1B 2611  23.833   4.651   7.633
12104DOPC   D2B 2612  24.133   4.681   7.183
12104DOPC   C3B 2613  24.083   4.671   6.763
12104DOPC   C4B 2614  24.033   4.661   6.283
12105DOPC   NC3 2615   0.077   7.452   7.573
12105DOPC   PO4 2616   0.297   7.572   7.283
12105DOPC   GL1 2617   0.157   7.332   6.883
12105DOPC   GL2 2618   0.427   7.452   6.783
12105DOPC   C1A 2619   0.007   7.452   6.433
12105DOPC   D2A 2620  24.693   7.252   6.053
12105DOPC   C3A 2621  24.613   6.891   5.793
12105DOPC   C4A 2622  24.313   6.581   5.623
12105DOPC   C1B 2623   0.387   0.011   6.463
12105DOPC   D2B 2624   0.367   0.271   6.043
12105DOPC   C3B 2625   0.647   0.501   5.723
12105DOPC   C4B 2626   0.927   0.761   5.323
12106DOPC   NC3 2627  10.127   2.201  14.533
12106DOPC   PO4 2628  10.473   2.001  14.583
12106DOPC   GL1 2629  10.563   1.811  14.283
12106DOPC   GL2 2630  10.573   1.621  14.313
12106DOPC   C1A 2631  10.753   2.031  13.943
12106DOPC   D2A 2632  11.093   2.391  13.853
12106DOPC   C3A 2633  11.383   2.311  13.533
12106DOPC   C4A 2634  11.653   1.951  13.483
12106DOPC   C1B 2635  10.663   1.451  13.943
12106DOPC   D2B 2636  10.803   1.281  13.483
12106DOPC   C3B 2637  11.003   1.531  13.113
12106DOPC   C4B 2638  11.193   1.461  12.673
12107DOPC   NC3 2639  17.403   4.111  15.773
12107DOPC   PO4 2640  17.603   3.901  15.483
12107DOPC   GL1 2641  17.503   3.991  15.073
12107DOPC   GL2 2642  17.543   4.261  15.133
12107DOPC   C1A 2643  17.263   4.041  14.753
12107DOPC   D2A 2644  17.093   4.371  14.373
12107DOPC   C3A 2645  16.933   4.391  13.923
12107DOPC   C4A 2646  16.823   4.121  13.593
12107DOPC   C1B 2647  17.633   4.381  14.753
12107DOPC   D2B 2648  17.643   4.541  14.313
12107DOPC   C3B 2649  17.513   5.071  14.253
12107DOPC   C4B 2650  17.243   5.461  14.333
12108DOPC   NC3 2651  16.113   4.231  15.523
12108DOPC   PO4 2652  15.913   4.481  15.733
12108DOPC   GL1 2653  15.543   4.491  15.563
12108DOPC   GL2 2654  15.683   4.291  15.383
12108DOPC   C1A 2655  15.403   4.711  15.293
12108DOPC   D2A 2656  15.133   4.741  14.903
12108DOPC   C3A 2657  15.003   4.751  14.483
12108DOPC   C4A 2658  15.073   4.671  14.043
12108DOPC   C1B 2659  15.543   4.391  14.993
12108DOPC   D2B 2660  15.393   4.501  14.533
12108DOPC   C3B 2661  15.413   4.301  14.113
12108DOPC   C4B 2662  15.413   3.941  13.833
12109DOPC   NC3 2663   1.297   0.941   7.173
12109DOPC   PO4 2664   1.537   0.621   7.333
12109DOPC   GL1 2665   1.917   0.471   7.163
12109DOPC   GL2 2666   1.767   0.311   6.913
12109DOPC   C1A 2667   2.257   0.731   7.053
12109DOPC   D2A 2668   2.677   0.981   6.973
12109DOPC   C3A 2669   2.887   1.121   6.583
12109DOPC   C4A 2670   3.127   1.301   6.223
12109DOPC   C1B 2671   1.827   0.601   6.643
12109DOPC   D2B 2672   1.827   0.851   6.193
12109DOPC   C3B 2673   1.837   1.071   5.783
12109DOPC   C4B 2674   1.357   1.181   5.643
12110DOPC   NC3 2675  18.623   4.331  14.563
12110DOPC   PO4 2676  18.513   3.961  14.393
12110DOPC   GL1 2677  18.003   3.921  14.543
12110DOPC   GL2 2678  18.043   3.701  14.253
12110DOPC   C1A 2679  17.653   4.011  14.353
12110DOPC   D2A 2680  17.183   3.951  14.113
12110DOPC   C3A 2681  16.803   3.761  14.263
12110DOPC   C4A 2682  16.563   3.441  14.573
12110DOPC   C1B 2683  17.923   3.851  13.833
12110DOPC   D2B 2684  17.773   4.041  13.383
12110DOPC   C3B 2685  17.623   3.721  13.093
12110DOPC   C4B 2686  17.453   3.341  12.783
12111DOPC   NC3 2687   3.417   1.971   7.533
12111DOPC   PO4 2688   3.587   2.271   7.733
12111DOPC   GL1 2689   4.067   2.281   7.643
12111DOPC   GL2 2690   3.957   2.571   7.593
12111DOPC   C1A 2691   4.167   1.991   7.333
12111DOPC   D2A 2692   4.227   2.061   6.843
12111DOPC   C3A 2693   4.247   2.471   6.653
12111DOPC   C4A 2694   4.137   2.931   6.673
12111DOPC   C1B 2695   4.197   2.621   7.143
12111DOPC   D2B 2696   4.607   2.381   6.963
12111DOPC   C3B 2697   4.987   2.221   7.293
12111DOPC   C4B 2698   5.477   2.271   7.303
12112DOPC   NC3 2699  16.243   7.352  15.913
12112DOPC   PO4 2700  16.533   7.172  15.743
12112DOPC   GL1 2701  16.433   7.171  15.353
12112DOPC   GL2 2702  16.633   6.891  15.283
12112DOPC   C1A 2703  16.163   7.262  15.073
12112DOPC   D2A 2704  15.713   7.141  14.783
12112DOPC   C3A 2705  15.553   6.821  14.513
12112DOPC   C4A 2706  15.653   6.451  14.263
12112DOPC   C1B 2707  16.423   6.571  15.043
12112DOPC   D2B 2708  16.423   6.051  14.953
12112DOPC   C3B 2709  16.293   5.761  14.643
12112DOPC   C4B 2710  16.143   5.411  14.363
12113DOPC   NC3 2711   0.017   6.041   7.323
12113DOPC   PO4 2712  24.803   6.241   7.583
12113DOPC   GL1 2713  24.683   6.601   7.433
12113DOPC   GL2 2714  24.963   6.571   7.313
12113DOPC   C1A 2715  24.513   6.651   7.003
12113DOPC   D2A 2716  24.243   6.801   6.603
12113DOPC   C3A 2717  23.803   6.771   6.453
12113DOPC   C4A 2718  23.563   6.771   6.013
12113DOPC   C1B 2719   0.127   6.551   6.893
12113DOPC   D2B 2720   0.147   6.511   6.403
12113DOPC   C3B 2721   0.257   6.221   6.053
12113DOPC   C4B 2722   0.447   5.891   5.823
12114DOPC   NC3 2723   6.177   7.242   9.873
12114DOPC   PO4 2724   5.937   7.041   9.643
12114DOPC   GL1 2725   6.277   6.901   9.323
12114DOPC   GL2 2726   6.157   7.141   9.173
12114DOPC   C1A 2727   6.667   6.771   9.373
12114DOPC   D2A 2728   7.107   6.761   9.063
12114DOPC   C3A 2729   7.397   6.591   8.783
12114DOPC   C4A 2730   7.837   6.401   8.563
12114DOPC   C1B 2731   6.457   7.482   8.943
12114DOPC   D2B 2732   6.777   7.622   8.623
12114DOPC   C3B 2733   6.917   7.412   8.233
12114DOPC   C4B 2734   7.087   7.131   7.833
12115DOPC   NC3 2735   4.437   1.551   8.073
12115DOPC   PO4 2736   4.397   1.241   8.283
12115DOPC   GL1 2737   4.567   0.871   8.033
12115DOPC   GL2 2738   4.337   0.871   7.953
12115DOPC   C1A 2739   4.887   0.951   7.733
12115DOPC   D2A 2740   5.127   0.981   7.243
12115DOPC   C3A 2741   5.317   1.401   7.063
12115DOPC   C4A 2742   5.587   1.851   7.063
12115DOPC   C1B 2743   4.247   0.671   7.563
12115DOPC   D2B 2744   4.387   0.451   7.173
12115DOPC   C3B 2745   4.457   0.631   6.793
12115DOPC   C4B 2746   4.577   1.051   6.523
12116DOPC   NC3 2747   8.647   7.051  13.153
12116DOPC   PO4 2748   8.717   7.212  12.843
12116DOPC   GL1 2749   9.047   7.392  12.823
12116DOPC   GL2 2750   9.277   7.222  12.853
12116DOPC   C1A 2751   9.277   7.522  12.443
12116DOPC   D2A 2752   9.577   7.252  12.093
12116DOPC   C3A 2753   9.917   7.382  11.883
12116DOPC   C4A 2754  10.393   7.492  11.823
12116DOPC   C1B 2755   9.587   7.051  12.553
12116DOPC   D2B 2756  10.007   6.811  12.533
12116DOPC   C3B 2757  10.333   6.661  12.153
12116DOPC   C4B 2758  10.543   6.621  11.683
12117DOPC   NC3 2759   9.067   4.411  13.183
12117DOPC   PO4 2760   9.017   4.801  13.253
12117DOPC   GL1 2761   9.097   5.091  12.923
12117DOPC   GL2 2762   9.187   5.341  12.993
12117DOPC   C1A 2763   9.207   4.981  12.483
12117DOPC   D2A 2764   9.287   4.801  12.073
12117DOPC   C3A 2765   9.667   5.001  11.893
12117DOPC   C4A 2766  10.067   5.091  11.623
12117DOPC   C1B 2767   9.627   5.381  12.833
12117DOPC   D2B 2768  10.107   5.401  12.733
12117DOPC   C3B 2769  10.443   5.241  12.403
12117DOPC   C4B 2770  10.763   5.041  12.083
12118DOPC   NC3 2771  23.403   3.921   9.123
12118DOPC   PO4 2772  23.243   3.571   9.143
12118DOPC   GL1 2773  23.003   3.681   8.823
12118DOPC   GL2 2774  22.933   4.011   8.953
12118DOPC   C1A 2775  22.923   3.511   8.383
12118DOPC   D2A 2776  22.783   3.471   7.903
12118DOPC   C3A 2777  23.043   3.711   7.593
12118DOPC   C4A 2778  22.963   4.081   7.303
12118DOPC   C1B 2779  22.583   4.221   8.973
12118DOPC   D2B 2780  22.113   4.461   8.793
12118DOPC   C3B 2781  21.693   4.491   8.743
12118DOPC   C4B 2782  21.163   4.551   8.743
12119DOPC   NC3 2783   6.107   4.811  10.543
12119DOPC   PO4 2784   6.147   5.061  10.843
12119DOPC   GL1 2785   6.497   5.161  10.693
12119DOPC   GL2 2786   6.357   5.401  10.563
12119DOPC   C1A 2787   6.897   5.211  10.513
12119DOPC   D2A 2788   7.347   5.241  10.253
12119DOPC   C3A 2789   7.647   5.571   9.973
12119DOPC   C4A 2790   7.977   5.671   9.633
12119DOPC   C1B 2791   6.517   5.501  10.163
12119DOPC   D2B 2792   6.767   5.271   9.803
12119DOPC   C3B 2793   6.987   5.371   9.413
12119DOPC   C4B 2794   6.987   5.211   8.913
12120DOPC   NC3 2795   8.207   4.911  13.083
12120DOPC   PO4 2796   8.147   5.161  12.783
12120DOPC   GL1 2797   8.437   5.211  12.463
12120DOPC   GL2 2798   8.747   5.191  12.533
12120DOPC   C1A 2799   8.537   4.921  12.113
12120DOPC   D2A 2800   8.727   5.081  11.673
12120DOPC   C3A 2801   9.117   5.031  11.513
12120DOPC   C4A 2802   9.507   4.821  11.403
12120DOPC   C1B 2803   8.987   5.261  12.143
12120DOPC   D2B 2804   9.107   5.471  11.723
12120DOPC   C3B 2805   9.067   5.481  11.213
12120DOPC   C4B 2806   9.197   5.761  10.883
12121DOPC   NC3 2807  15.223   1.981  15.733
12121DOPC   PO4 2808  15.363   1.681  15.843
12121DOPC   GL1 2809  15.443   1.421  15.453
12121DOPC   GL2 2810  15.143   1.581  15.453
12121DOPC   C1A 2811  15.383   1.191  15.063
12121DOPC   D2A 2812  15.133   1.091  14.663
12121DOPC   C3A 2813  14.893   1.411  14.433
12121DOPC   C4A 2814  14.603   1.721  14.113
12121DOPC   C1B 2815  14.993   1.681  15.063
12121DOPC   D2B 2816  14.973   1.891  14.603
12121DOPC   C3B 2817  15.253   1.731  14.263
12121DOPC   C4B 2818  15.523   1.561  13.933
12122DOPC   NC3 2819  15.073   6.461  15.893
12122DOPC   PO4 2820  15.423   6.521  15.733
12122DOPC   GL1 2821  15.113   6.321  15.433
12122DOPC   GL2 2822  14.993   6.631  15.443
12122DOPC   C1A 2823  15.153   6.201  15.013
12122DOPC   D2A 2824  14.933   5.861  14.723
12122DOPC   C3A 2825  14.763   5.481  14.543
12122DOPC   C4A 2826  14.663   5.131  14.173
12122DOPC   C1B 2827  14.803   6.571  15.023
12122DOPC   D2B 2828  14.723   6.361  14.583
12122DOPC   C3B 2829  14.393   6.651  14.363
12122DOPC   C4B 2830  13.953   6.851  14.093
12123DOPC   NC3 2831  23.253   7.212   9.393
12123DOPC   PO4 2832  23.233   7.131   9.813
12123DOPC   GL1 2833  22.853   7.021   9.673
12123DOPC   GL2 2834  22.863   7.272   9.583
12123DOPC   C1A 2835  22.593   6.751   9.683
12123DOPC   D2A 2836  22.123   6.661   9.543
12123DOPC   C3A 2837  21.673   6.701   9.563
12123DOPC   C4A 2838  21.333   6.791   9.283
12123DOPC   C1B 2839  22.453   7.222   9.633
12123DOPC   D2B 2840  22.003   7.182   9.503
12123DOPC   C3B 2841  21.543   7.272   9.463
12123DOPC   C4B 2842  21.323   7.572   9.143
12124DOPC   NC3 2843   6.317   2.891  10.253
12124DOPC   PO4 2844   6.097   2.921   9.913
12124DOPC   GL1 2845   6.307   2.961   9.613
12124DOPC   GL2 2846   6.547   2.941   9.663
12124DOPC   C1A 2847   6.157   3.061   9.193
12124DOPC   D2A 2848   5.967   2.791   8.793
12124DOPC   C3A 2849   6.247   2.911   8.393
12124DOPC   C4A 2850   6.297   2.951   7.823
12124DOPC   C1B 2851   6.827   3.211   9.713
12124DOPC   D2B 2852   7.277   3.101   9.583
12124DOPC   C3B 2853   7.387   2.901   9.183
12124DOPC   C4B 2854   7.247   2.531   8.923
12125DOPC   NC3 2855  10.353   4.731  15.043
12125DOPC   PO4 2856  10.673   4.951  14.943
12125DOPC   GL1 2857  10.973   4.971  14.533
12125DOPC   GL2 2858  11.093   4.751  14.753
12125DOPC   C1A 2859  11.143   5.131  14.183
12125DOPC   D2A 2860  11.183   5.181  13.663
12125DOPC   C3A 2861  11.373   4.941  13.293
12125DOPC   C4A 2862  11.373   4.651  12.883
12125DOPC   C1B 2863  11.523   4.651  14.803
12125DOPC   D2B 2864  12.023   4.561  14.743
12125DOPC   C3B 2865  12.393   4.431  14.583
12125DOPC   C4B 2866  12.813   4.291  14.313
12126DOPC   NC3 2867  24.253   7.742   8.163
12126DOPC   PO4 2868  23.973   0.051   8.413
12126DOPC   GL1 2869  23.503   0.131   8.263
12126DOPC   GL2 2870  23.533   7.632   8.283
12126DOPC   C1A 2871  23.133   0.351   8.033
12126DOPC   D2A 2872  22.803   0.261   7.653
12126DOPC   C3A 2873  22.693   0.671   7.453
12126DOPC   C4A 2874  22.603   1.141   7.253
12126DOPC   C1B 2875  23.223   7.542   8.013
12126DOPC   D2B 2876  22.893   7.482   7.683
12126DOPC   C3B 2877  22.633   7.392   7.343
12126DOPC   C4B 2878  22.203   7.362   7.103
12127DOPC   NC3 2879   0.477   0.341   7.903
12127DOPC   PO4 2880   0.597   0.621   7.613
12127DOPC   GL1 2881   0.277   0.611   7.363
12127DOPC   GL2 2882   0.067   0.601   7.553
12127DOPC   C1A 2883   0.147   0.611   6.883
12127DOPC   D2A 2884   0.107   0.501   6.413
12127DOPC   C3A 2885   0.487   0.781   6.343
12127DOPC   C4A 2886   0.947   0.811   6.383
12127DOPC   C1B 2887  24.703   0.631   7.173
12127DOPC   D2B 2888  24.563   0.621   6.693
12127DOPC   C3B 2889  24.243   0.821   6.443
12127DOPC   C4B 2890  23.933   1.171   6.403
12128DOPC   NC3 2891  23.053   4.721   9.583
12128DOPC   PO4 2892  22.863   4.671   9.943
12128DOPC   GL1 2893  22.553   4.871   9.973
12128DOPC   GL2 2894  22.503   4.831  10.273
12128DOPC   C1A 2895  22.093   4.771   9.863
12128DOPC   D2A 2896  21.703   4.841   9.523
12128DOPC   C3A 2897  21.243   4.901   9.533
12128DOPC   C4A 2898  20.813   4.711   9.343
12128DOPC   C1B 2899  22.133   4.741  10.413
12128DOPC   D2B 2900  21.703   4.581  10.243
12128DOPC   C3B 2901  21.303   4.651  10.013
12128DOPC   C4B 2902  20.873   4.841   9.933
12129DOPC   NC3 2903   6.157   5.841  10.193
12129DOPC   PO4 2904   6.317   5.881  10.583
12129DOPC   GL1 2905   6.727   5.871  10.563
12129DOPC   GL2 2906   6.737   5.611  10.553
12129DOPC   C1A 2907   7.057   6.171  10.553
12129DOPC   D2A 2908   7.497   6.271  10.723
12129DOPC   C3A 2909   7.897   6.311  10.463
12129DOPC   C4A 2910   8.357   6.331  10.143
12129DOPC   C1B 2911   7.037   5.611  10.263
12129DOPC   D2B 2912   7.207   5.641   9.763
12129DOPC   C3B 2913   7.477   5.521   9.463
12129DOPC   C4B 2914   7.467   5.421   8.993
12130DOPC   NC3 2915  19.253   2.161  14.103
12130DOPC   PO4 2916  19.163   2.541  14.253
12130DOPC   GL1 2917  18.803   2.381  14.313
12130DOPC   GL2 2918  18.663   2.721  14.223
12130DOPC   C1A 2919  18.733   2.011  14.193
12130DOPC   D2A 2920  18.623   1.531  14.043
12130DOPC   C3A 2921  18.743   1.091  14.073
12130DOPC   C4A 2922  18.993   0.661  13.973
12130DOPC   C1B 2923  18.343   2.791  13.963
12130DOPC   D2B 2924  18.263   2.861  13.493
12130DOPC   C3B 2925  17.833   2.981  13.303
12130DOPC   C4B 2926  17.363   2.841  13.213
12131DOPC   NC3 2927  10.623   1.031  15.193
12131DOPC   PO4 2928  10.983   0.841  15.173
12131DOPC   GL1 2929  11.293   0.951  15.053
12131DOPC   GL2 2930  11.363   1.241  15.043
12131DOPC   C1A 2931  11.433   0.901  14.693
12131DOPC   D2A 2932  11.653   0.741  14.243
12131DOPC   C3A 2933  11.973   0.891  13.973
12131DOPC   C4A 2934  12.413   0.881  13.733
12131DOPC   C1B 2935  11.483   1.441  14.673
12131DOPC   D2B 2936  11.533   1.731  14.363
12131DOPC   C3B 2937  11.243   1.901  14.003
12131DOPC   C4B 2938  11.053   1.811  13.553
12132DOPC   NC3 2939  12.713   7.512  15.663
12132DOPC   PO4 2940  12.863   7.141  15.683
12132DOPC   GL1 2941  12.723   7.171  15.313
12132DOPC   GL2 2942  12.773   6.881  15.243
12132DOPC   C1A 2943  13.013   7.332  15.003
12132DOPC   D2A 2944  13.263   7.292  14.603
12132DOPC   C3A 2945  13.253   7.322  14.163
12132DOPC   C4A 2946  13.593   7.502  13.833
12132DOPC   C1B 2947  13.123   6.671  15.123
12132DOPC   D2B 2948  13.493   6.301  15.123
12132DOPC   C3B 2949  13.493   5.851  14.943
12132DOPC   C4B 2950  13.633   5.341  14.823
12133DOPC   NC3 2951  23.793   5.211   8.773
12133DOPC   PO4 2952  23.693   5.171   9.163
12133DOPC   GL1 2953  23.313   5.341   9.243
12133DOPC   GL2 2954  23.243   5.171   9.433
12133DOPC   C1A 2955  23.003   5.531   9.013
12133DOPC   D2A 2956  22.863   5.761   8.693
12133DOPC   C3A 2957  22.823   6.221   8.593
12133DOPC   C4A 2958  22.823   6.661   8.353
12133DOPC   C1B 2959  22.793   5.181   9.273
12133DOPC   D2B 2960  22.293   5.231   9.123
12133DOPC   C3B 2961  21.993   5.231   8.783
12133DOPC   C4B 2962  21.603   5.271   8.463
12134DOPC   NC3 2963  12.823   1.621  15.773
12134DOPC   PO4 2964  13.133   1.401  15.663
12134DOPC   GL1 2965  13.303   1.331  15.193
12134DOPC   GL2 2966  12.983   1.271  15.193
12134DOPC   C1A 2967  13.513   1.541  14.853
12134DOPC   D2A 2968  13.733   1.671  14.443
12134DOPC   C3A 2969  14.103   1.801  14.703
12134DOPC   C4A 2970  14.343   1.671  15.133
12134DOPC   C1B 2971  13.083   1.301  14.773
12134DOPC   D2B 2972  13.403   1.171  14.463
12134DOPC   C3B 2973  13.583   1.391  14.053
12134DOPC   C4B 2974  13.613   1.311  13.523
12135DOPC   NC3 2975  24.843   1.881   7.583
12135DOPC   PO4 2976   0.077   1.541   7.413
12135DOPC   GL1 2977  24.963   1.151   7.163
12135DOPC   GL2 2978   0.317   1.191   7.123
12135DOPC   C1A 2979  24.743   1.251   6.713
12135DOPC   D2A 2980  24.573   1.191   6.233
12135DOPC   C3A 2981  24.413   0.821   5.943
12135DOPC   C4A 2982  24.203   0.341   5.843
12135DOPC   C1B 2983   0.267   1.091   6.693
12135DOPC   D2B 2984   0.087   1.001   6.233
12135DOPC   C3B 2985   0.257   0.741   5.903
12135DOPC   C4B 2986   0.137   0.451   5.553
12136DOPC   NC3 2987  16.053   3.261  15.403
12136DOPC   PO4 2988  16.373   3.061  15.433
12136DOPC   GL1 2989  16.593   2.941  15.023
12136DOPC   GL2 2990  16.523   2.641  15.123
12136DOPC   C1A 2991  16.323   3.001  14.703
12136DOPC   D2A 2992  16.293   3.131  14.203
12136DOPC   C3A 2993  16.203   2.991  13.763
12136DOPC   C4A 2994  16.173   2.831  13.303
12136DOPC   C1B 2995  16.463   2.391  14.703
12136DOPC   D2B 2996  16.233   2.511  14.303
12136DOPC   C3B 2997  15.973   2.161  14.343
12136DOPC   C4B 2998  15.753   1.761  14.333
12137DOPC   NC3 2999  23.203   1.731   9.583
12137DOPC   PO4 3000  23.153   1.501   9.873
12137DOPC   GL1 3001  22.823   1.391  10.033
12137DOPC   GL2 3002  22.763   1.151   9.923
12137DOPC   C1A 3003  22.383   1.661  10.083
12137DOPC   D2A 3004  22.033   2.001  10.023
12137DOPC   C3A 3005  21.993   2.271   9.713
12137DOPC   C4A 3006  21.913   2.311   9.263
12137DOPC   C1B 3007  22.453   1.291   9.703
12137DOPC   D2B 3008  22.113   1.431   9.403
12137DOPC   C3B 3009  21.833   1.431   9.003
12137DOPC   C4B 3010  21.463   1.471   8.633
12138DOPC   NC3 3011   0.037   5.871   7.873
12138DOPC   PO4 3012  24.693   5.691   7.663
12138DOPC   GL1 3013  24.503   5.611   7.263
12138DOPC   GL2 3014  24.793   5.621   7.153
12138DOPC   C1A 3015  23.993   5.611   7.223
12138DOPC   D2A 3016  23.533   5.451   7.173
12138DOPC   C3A 3017  23.163   5.151   7.233
12138DOPC   C4A 3018  22.703   5.001   7.263
12138DOPC   C1B 3019  24.793   5.981   6.873
12138DOPC   D2B 3020  24.453   6.291   6.623
12138DOPC   C3B 3021  24.003   6.391   6.873
12138DOPC   C4B 3022  23.473   6.431   6.923
12139DOPC   NC3 3023   2.467   6.731   8.003
12139DOPC   PO4 3024   2.487   7.111   7.943
12139DOPC   GL1 3025   2.587   7.222   7.543
12139DOPC   GL2 3026   2.627   6.901   7.493
12139DOPC   C1A 3027   3.007   7.182   7.243
12139DOPC   D2A 3028   3.177   6.881   6.853
12139DOPC   C3A 3029   3.327   6.811   6.423
12139DOPC   C4A 3030   3.647   6.951   6.093
12139DOPC   C1B 3031   2.677   6.811   7.073
12139DOPC   D2B 3032   2.577   6.691   6.543
12139DOPC   C3B 3033   2.887   6.941   6.343
12139DOPC   C4B 3034   3.227   7.292   6.253
12140DOPC   NC3 3035   1.427   0.991   7.683
12140DOPC   PO4 3036   1.637   1.271   7.473
12140DOPC   GL1 3037   1.727   1.311   7.093
12140DOPC   GL2 3038   1.757   1.041   7.063
12140DOPC   C1A 3039   1.957   1.461   6.713
12140DOPC   D2A 3040   2.437   1.361   6.493
12140DOPC   C3A 3041   2.717   1.471   6.113
12140DOPC   C4A 3042   2.827   1.451   5.663
12140DOPC   C1B 3043   1.607   1.131   6.653
12140DOPC   D2B 3044   1.447   1.141   6.183
12140DOPC   C3B 3045   1.027   1.221   6.073
12140DOPC   C4B 3046   0.637   1.061   5.893
12141DOPC   NC3 3047  13.633   1.171  15.463
12141DOPC   PO4 3048  13.933   0.861  15.373
12141DOPC   GL1 3049  13.953   0.451  15.343
12141DOPC   GL2 3050  14.253   0.461  15.313
12141DOPC   C1A 3051  13.673   0.431  14.973
12141DOPC   D2A 3052  13.363   0.431  14.553
12141DOPC   C3A 3053  13.023   0.341  14.213
12141DOPC   C4A 3054  12.863   0.621  13.853
12141DOPC   C1B 3055  14.263   0.411  14.873
12141DOPC   D2B 3056  13.933   0.321  14.513
12141DOPC   C3B 3057  13.913   0.581  14.073
12141DOPC   C4B 3058  13.813   0.971  13.933
12142DOPC   NC3 3059   6.997   0.321  10.843
12142DOPC   PO4 3060   6.757   0.211  10.573
12142DOPC   GL1 3061   7.127   0.171  10.313
12142DOPC   GL2 3062   7.137   7.682  10.373
12142DOPC   C1A 3063   7.357   0.301   9.983
12142DOPC   D2A 3064   7.667   0.161   9.613
12142DOPC   C3A 3065   8.027   7.732   9.433
12142DOPC   C4A 3066   8.457   7.542   9.373
12142DOPC   C1B 3067   7.497   7.612  10.193
12142DOPC   D2B 3068   7.857   7.542   9.893
12142DOPC   C3B 3069   8.257   7.442   9.963
12142DOPC   C4B 3070   8.697   7.392   9.773
12143DOPC   NC3 3071  23.353   6.331   9.493
12143DOPC   PO4 3072  23.403   6.001   9.293
12143DOPC   GL1 3073  23.183   5.961   9.013
12143DOPC   GL2 3074  22.963   6.081   9.093
12143DOPC   C1A 3075  23.253   5.971   8.553
12143DOPC   D2A 3076  23.223   5.771   8.093
12143DOPC   C3A 3077  22.863   5.771   7.813
12143DOPC   C4A 3078  22.753   6.031   7.383
12143DOPC   C1B 3079  22.563   5.941   9.153
12143DOPC   D2B 3080  22.303   5.691   8.783
12143DOPC   C3B 3081  22.253   5.891   8.313
12143DOPC   C4B 3082  22.363   5.841   7.883
12144DOPC   NC3 3083  19.313   4.031  13.953
12144DOPC   PO4 3084  19.353   4.441  14.003
12144DOPC   GL1 3085  19.083   4.491  13.673
12144DOPC   GL2 3086  19.333   4.331  13.493
12144DOPC   C1A 3087  18.913   4.891  13.443
12144DOPC   D2A 3088  18.723   5.291  13.243
12144DOPC   C3A 3089  18.553   5.201  12.793
12144DOPC   C4A 3090  18.383   5.421  12.373
12144DOPC   C1B 3091  19.213   4.621  13.153
12144DOPC   D2B 3092  18.843   4.871  12.963
12144DOPC   C3B 3093  18.423   4.721  13.103
12144DOPC   C4B 3094  18.073   4.691  13.433
12145DOPC   NC3 3095  19.853   4.541  14.153
12145DOPC   PO4 3096  19.993   4.581  13.813
12145DOPC   GL1 3097  19.903   4.291  13.463
12145DOPC   GL2 3098  19.833   4.591  13.373
12145DOPC   C1A 3099  19.603   4.251  13.163
12145DOPC   D2A 3100  19.403   3.891  12.793
12145DOPC   C3A 3101  19.423   3.801  12.313
12145DOPC   C4A 3102  19.393   3.601  11.883
12145DOPC   C1B 3103  19.653   4.981  13.223
12145DOPC   D2B 3104  19.223   5.181  13.083
12145DOPC   C3B 3105  19.093   5.181  12.593
12145DOPC   C4B 3106  18.823   5.211  12.143
12146DOPC   NC3 3107   9.347   2.211  13.773
12146DOPC   PO4 3108   9.217   1.891  13.533
12146DOPC   GL1 3109   9.507   1.901  13.323
12146DOPC   GL2 3110   9.707   2.061  13.493
12146DOPC   C1A 3111   9.707   1.831  12.953
12146DOPC   D2A 3112   9.777   1.981  12.523
12146DOPC   C3A 3113   9.877   1.811  12.063
12146DOPC   C4A 3114  10.187   1.651  11.763
12146DOPC   C1B 3115  10.057   1.951  13.273
12146DOPC   D2B 3116  10.207   1.741  12.823
12146DOPC   C3B 3117  10.663   1.741  12.663
12146DOPC   C4B 3118  11.103   1.961  12.823
12147DOPC   NC3 3119  22.173   4.081  11.603
12147DOPC   PO4 3120  22.143   3.701  11.563
12147DOPC   GL1 3121  21.803   3.891  11.363
12147DOPC   GL2 3122  21.723   3.611  11.303
12147DOPC   C1A 3123  21.593   4.131  11.143
12147DOPC   D2A 3124  21.193   4.251  10.853
12147DOPC   C3A 3125  20.913   3.981  10.663
12147DOPC   C4A 3126  20.543   3.671  10.543
12147DOPC   C1B 3127  21.383   3.361  11.403
12147DOPC   D2B 3128  20.973   3.271  11.123
12147DOPC   C3B 3129  20.593   3.311  10.873
12147DOPC   C4B 3130  20.303   3.241  10.473
12148DOPC   NC3 3131   1.747   0.101   7.573
12148DOPC   PO4 3132   2.077   0.181   7.713
12148DOPC   GL1 3133   2.257   0.211   7.343
12148DOPC   GL2 3134   2.137   7.792   7.193
12148DOPC   C1A 3135   2.617   0.421   7.093
12148DOPC   D2A 3136   2.897   0.561   6.743
12148DOPC   C3A 3137   2.527   0.521   6.543
12148DOPC   C4A 3138   2.207   0.481   6.093
12148DOPC   C1B 3139   2.177   0.171   6.793
12148DOPC   D2B 3140   2.187   0.041   6.393
12148DOPC   C3B 3141   2.467   7.792   6.083
12148DOPC   C4B 3142   2.927   7.762   5.823
12149DOPC   NC3 3143   5.577   5.081   9.293
12149DOPC   PO4 3144   5.337   5.381   9.193
12149DOPC   GL1 3145   5.587   5.551   8.913
12149DOPC   GL2 3146   5.817   5.401   8.953
12149DOPC   C1A 3147   5.387   5.781   8.543
12149DOPC   D2A 3148   5.207   5.921   8.053
12149DOPC   C3A 3149   5.507   5.991   7.713
12149DOPC   C4A 3150   5.697   6.111   7.283
12149DOPC   C1B 3151   6.007   5.071   8.733
12149DOPC   D2B 3152   6.287   4.721   8.853
12149DOPC   C3B 3153   6.527   4.891   9.193
12149DOPC   C4B 3154   6.897   4.891   9.473
12150DOPC   NC3 3155  21.533   1.831  12.733
12150DOPC   PO4 3156  21.823   1.751  12.433
12150DOPC   GL1 3157  21.663   1.911  12.073
12150DOPC   GL2 3158  21.543   2.171  12.073
12150DOPC   C1A 3159  21.403   1.761  11.743
12150DOPC   D2A 3160  20.963   1.721  11.563
12150DOPC   C3A 3161  20.733   1.441  11.383
12150DOPC   C4A 3162  20.463   1.141  11.123
12150DOPC   C1B 3163  21.193   2.261  11.843
12150DOPC   D2B 3164  20.753   2.261  11.583
12150DOPC   C3B 3165  20.453   1.901  11.443
12150DOPC   C4B 3166  20.233   1.611  11.223
12151DOPC   NC3 3167   3.047   5.871   7.913
12151DOPC   PO4 3168   3.087   5.471   7.863
12151DOPC   GL1 3169   3.037   5.271   7.453
12151DOPC   GL2 3170   3.127   5.511   7.343
12151DOPC   C1A 3171   3.027   5.161   7.073
12151DOPC   D2A 3172   3.147   5.231   6.643
12151DOPC   C3A 3173   3.167   4.961   6.303
12151DOPC   C4A 3174   3.107   4.661   5.903
12151DOPC   C1B 3175   3.447   5.491   7.093
12151DOPC   D2B 3176   3.907   5.551   6.883
12151DOPC   C3B 3177   4.277   5.671   6.553
12151DOPC   C4B 3178   4.687   5.721   6.253
12152DOPC   NC3 3179   1.307   0.351   7.673
12152DOPC   PO4 3180   1.097   0.611   7.543
12152DOPC   GL1 3181   0.987   0.541   7.103
12152DOPC   GL2 3182   0.687   0.621   7.093
12152DOPC   C1A 3183   1.237   0.671   6.743
12152DOPC   D2A 3184   1.347   0.561   6.243
12152DOPC   C3A 3185   1.137   0.421   5.893
12152DOPC   C4A 3186   1.007   0.191   5.513
12152DOPC   C1B 3187   0.757   1.001   6.813
12152DOPC   D2B 3188   1.047   1.361   6.593
12152DOPC   C3B 3189   1.027   1.691   6.403
12152DOPC   C4B 3190   1.217   1.691   5.943
12153DOPC   NC3 3191  14.943   3.291  16.183
12153DOPC   PO4 3192  15.113   2.961  16.033
12153DOPC   GL1 3193  15.053   2.821  15.613
12153DOPC   GL2 3194  15.363   2.881  15.633
12153DOPC   C1A 3195  14.833   2.871  15.263
12153DOPC   D2A 3196  14.663   3.011  14.793
12153DOPC   C3A 3197  14.883   2.851  14.443
12153DOPC   C4A 3198  14.733   2.861  13.983
12153DOPC   C1B 3199  15.353   3.111  15.333
12153DOPC   D2B 3200  15.393   3.451  14.983
12153DOPC   C3B 3201  15.473   3.451  14.563
12153DOPC   C4B 3202  15.503   3.441  14.073
12154DOPC   NC3 3203   5.907   6.481   9.593
12154DOPC   PO4 3204   5.517   6.381   9.533
12154DOPC   GL1 3205   5.577   6.301   9.133
12154DOPC   GL2 3206   5.407   6.201   8.963
12154DOPC   C1A 3207   6.007   6.541   9.033
12154DOPC   D2A 3208   6.377   6.791   8.833
12154DOPC   C3A 3209   6.777   6.591   8.743
12154DOPC   C4A 3210   6.767   6.261   8.343
12154DOPC   C1B 3211   5.697   6.211   8.633
12154DOPC   D2B 3212   6.097   6.051   8.313
12154DOPC   C3B 3213   6.037   5.891   7.843
12154DOPC   C4B 3214   6.117   5.711   7.393
12155DOPC   NC3 3215  10.903   0.271  14.483
12155DOPC   PO4 3216  10.953   0.011  14.803
12155DOPC   GL1 3217  11.283   7.662  14.543
12155DOPC   GL2 3218  11.183   7.432  14.433
12155DOPC   C1A 3219  11.503   7.532  14.103
12155DOPC   D2A 3220  11.513   7.212  13.713
12155DOPC   C3A 3221  11.743   6.941  13.333
12155DOPC   C4A 3222  11.953   6.751  12.933
12155DOPC   C1B 3223  11.163   7.131  14.123
12155DOPC   D2B 3224  10.953   7.041  13.713
12155DOPC   C3B 3225  11.253   7.101  13.283
12155DOPC   C4B 3226  11.253   7.222  12.783
12156DOPC   NC3 3227  23.033   2.921   9.403
12156DOPC   PO4 3228  22.973   2.561   9.503
12156DOPC   GL1 3229  22.773   2.561   9.293
12156DOPC   GL2 3230  22.593   2.351   9.253
12156DOPC   C1A 3231  22.773   2.621   8.853
12156DOPC   D2A 3232  22.513   2.471   8.433
12156DOPC   C3A 3233  22.253   2.761   8.283
12156DOPC   C4A 3234  21.893   3.031   8.253
12156DOPC   C1B 3235  22.343   2.301   8.903
12156DOPC   D2B 3236  22.413   1.991   8.563
12156DOPC   C3B 3237  21.963   1.731   8.483
12156DOPC   C4B 3238  21.743   1.741   8.043
12157DOPC   NC3 3239  14.333   7.372  15.633
12157DOPC   PO4 3240  14.523   7.722  15.683
12157DOPC   GL1 3241  14.603   0.041  15.293
12157DOPC   GL2 3242  14.273   0.081  15.293
12157DOPC   C1A 3243  14.773   0.371  15.083
12157DOPC   D2A 3244  15.183   0.611  14.833
12157DOPC   C3A 3245  15.353   0.771  14.373
12157DOPC   C4A 3246  15.243   1.181  14.083
12157DOPC   C1B 3247  13.993   7.732  15.033
12157DOPC   D2B 3248  13.583   7.732  14.663
12157DOPC   C3B 3249  13.203   0.041  14.913
12157DOPC   C4B 3250  12.873   0.081  15.253
12158DOPA   PO4 3251  10.513   5.401  14.643
12158DOPA   GL1 3252  10.793   5.451  14.383
12158DOPA   GL2 3253  10.703   5.141  14.193
12158DOPA   C1A 3254  10.923   5.741  14.113
12158DOPA   D2A 3255  10.893   6.061  13.723
12158DOPA   C3A 3256  11.073   5.951  13.283
12158DOPA   C4A 3257  11.243   5.681  12.883
12158DOPA   C1B 3258  10.813   4.851  13.853
12158DOPA   D2B 3259  11.123   4.451  13.733
12158DOPA   C3B 3260  11.463   4.471  13.453
12158DOPA   C4B 3261  11.843   4.501  13.223
12159DOPA   PO4 3262  14.083   2.661  15.733
12159DOPA   GL1 3263  14.363   2.641  15.463
12159DOPA   GL2 3264  14.433   2.961  15.493
12159DOPA   C1A 3265  14.783   2.421  15.473
12159DOPA   D2A 3266  15.193   2.501  15.303
12159DOPA   C3A 3267  15.563   2.671  15.073
12159DOPA   C4A 3268  15.783   3.071  14.903
12159DOPA   C1B 3269  14.393   3.261  15.113
12159DOPA   D2B 3270  14.453   3.731  14.893
12159DOPA   C3B 3271  14.443   3.901  14.503
12159DOPA   C4B 3272  14.573   3.911  14.023
12160DOPA   PO4 3273  17.753   3.211  15.033
12160DOPA   GL1 3274  17.483   3.161  14.753
12160DOPA   GL2 3275  17.263   3.201  14.973
12160DOPA   C1A 3276  17.313   3.221  14.353
12160DOPA   D2A 3277  17.173   3.441  13.893
12160DOPA   C3A 3278  16.913   3.581  13.523
12160DOPA   C4A 3279  16.683   3.861  13.153
12160DOPA   C1B 3280  16.953   3.131  14.653
12160DOPA   D2B 3281  16.833   3.221  14.153
12160DOPA   C3B 3282  16.573   3.391  13.843
12160DOPA   C4B 3283  16.203   3.421  13.503
12161DOPA   PO4 3284   3.547   5.921   7.973
12161DOPA   GL1 3285   3.317   5.871   7.543
12161DOPA   GL2 3286   3.507   5.611   7.603
12161DOPA   C1A 3287   3.447   6.031   7.133
12161DOPA   D2A 3288   3.587   6.141   6.683
12161DOPA   C3A 3289   3.417   6.281   6.313
12161DOPA   C4A 3290   3.267   6.391   5.873
12161DOPA   C1B 3291   3.837   5.601   7.363
12161DOPA   D2B 3292   4.237   5.881   7.103
12161DOPA   C3B 3293   4.687   6.041   6.913
12161DOPA   C4B 3294   5.167   5.911   6.953
12162DOPA   PO4 3295  22.963   2.151   9.853
12162DOPA   GL1 3296  22.593   2.151   9.613
12162DOPA   GL2 3297  22.493   2.391   9.673
12162DOPA   C1A 3298  22.243   1.871   9.583
12162DOPA   D2A 3299  21.783   1.811   9.403
12162DOPA   C3A 3300  21.413   1.601   9.243
12162DOPA   C4A 3301  21.003   1.351   9.283
12162DOPA   C1B 3302  22.233   2.661   9.353
12162DOPA   D2B 3303  22.243   2.861   8.873
12162DOPA   C3B 3304  22.003   3.241   8.723
12162DOPA   C4B 3305  21.503   3.101   8.663
12163DOPA   PO4 3306   7.077   6.571  11.553
12163DOPA   GL1 3307   7.277   6.461  11.223
12163DOPA   GL2 3308   7.127   6.661  11.043
12163DOPA   C1A 3309   7.657   6.521  11.183
12163DOPA   D2A 3310   8.167   6.451  11.063
12163DOPA   C3A 3311   8.367   6.331  10.683
12163DOPA   C4A 3312   8.457   5.901  10.403
12163DOPA   C1B 3313   7.477   6.861  10.953
12163DOPA   D2B 3314   7.907   6.781  10.743
12163DOPA   C3B 3315   8.257   6.871  10.433
12163DOPA   C4B 3316   8.607   7.031  10.123
12164DOPA   PO4 3317   4.847   3.801   9.083
12164DOPA   GL1 3318   5.117   4.041   8.843
12164DOPA   GL2 3319   5.317   3.911   8.963
12164DOPA   C1A 3320   5.037   3.831   8.463
12164DOPA   D2A 3321   4.947   3.961   8.003
12164DOPA   C3A 3322   4.877   4.311   7.733
12164DOPA   C4A 3323   4.947   4.631   7.313
12164DOPA   C1B 3324   5.517   3.631   8.673
12164DOPA   D2B 3325   5.687   3.581   8.203
12164DOPA   C3B 3326   5.907   3.661   7.783
12164DOPA   C4B 3327   6.097   3.891   7.383
12165DOPA   PO4 3328  16.003   3.621  15.743
12165DOPA   GL1 3329  16.043   3.731  15.373
12165DOPA   GL2 3330  15.833   3.871  15.303
12165DOPA   C1A 3331  16.243   3.581  14.973
12165DOPA   D2A 3332  16.003   3.441  14.573
12165DOPA   C3A 3333  15.823   3.111  14.323
12165DOPA   C4A 3334  15.753   2.791  13.993
12165DOPA   C1B 3335  15.773   3.831  14.903
12165DOPA   D2B 3336  15.723   3.811  14.353
12165DOPA   C3B 3337  15.863   4.061  14.003
12165DOPA   C4B 3338  16.013   4.311  13.623
12166DOPA   PO4 3339   1.167   5.581   7.193
12166DOPA   GL1 3340   1.407   5.781   6.903
12166DOPA   GL2 3341   1.247   5.901   6.753
12166DOPA   C1A 3342   1.457   5.531   6.493
12166DOPA   D2A 3343   1.387   5.111   6.173
12166DOPA   C3A 3344   1.757   5.041   5.903
12166DOPA   C4A 3345   2.187   4.891   5.813
12166DOPA   C1B 3346   1.227   5.931   6.343
12166DOPA   D2B 3347   1.047   5.951   5.843
12166DOPA   C3B 3348   1.167   5.791   5.393
12166DOPA   C4B 3349   1.367   5.951   4.933
12167DOPA   PO4 3350  24.823   5.291   7.993
12167DOPA   GL1 3351  24.463   5.251   7.683
12167DOPA   GL2 3352  24.553   5.201   7.463
12167DOPA   C1A 3353  23.993   5.181   7.693
12167DOPA   D2A 3354  23.583   5.091   7.573
12167DOPA   C3A 3355  23.293   4.701   7.733
12167DOPA   C4A 3356  23.093   4.621   7.273
12167DOPA   C1B 3357  24.333   5.241   7.173
12167DOPA   D2B 3358  24.243   5.201   6.663
12167DOPA   C3B 3359  24.083   5.581   6.373
12167DOPA   C4B 3360  23.923   5.821   5.963
12168DOPA   PO4 3361  24.813   4.011   7.333
12168DOPA   GL1 3362  24.693   4.061   6.953
12168DOPA   GL2 3363  24.913   4.251   6.923
12168DOPA   C1A 3364  24.583   3.861   6.683
12168DOPA   D2A 3365  24.743   3.451   6.413
12168DOPA   C3A 3366  24.863   3.221   6.073
12168DOPA   C4A 3367  24.663   2.901   5.753
12168DOPA   C1B 3368  24.913   4.581   6.603
12168DOPA   D2B 3369  24.903   4.891   6.173
12168DOPA   C3B 3370  24.903   5.181   5.833
12168DOPA   C4B 3371   0.277   5.461   5.613
12169DOPA   PO4 3372  23.873   2.371   8.413
12169DOPA   GL1 3373  23.553   2.091   8.253
12169DOPA   GL2 3374  23.353   2.301   8.313
12169DOPA   C1A 3375  23.573   1.651   8.053
12169DOPA   D2A 3376  23.503   1.291   7.803
12169DOPA   C3A 3377  23.213   1.331   7.523
12169DOPA   C4A 3378  22.883   1.541   7.203
12169DOPA   C1B 3379  23.323   2.551   7.953
12169DOPA   D2B 3380  23.203   2.841   7.603
12169DOPA   C3B 3381  22.873   2.641   7.363
12169DOPA   C4B 3382  22.423   2.391   7.263
12170DOPA   PO4 3383   7.807   1.471  12.253
12170DOPA   GL1 3384   8.217   1.501  12.203
12170DOPA   GL2 3385   8.197   1.231  12.353
12170DOPA   C1A 3386   8.557   1.701  12.333
12170DOPA   D2A 3387   8.857   1.991  12.533
12170DOPA   C3A 3388   9.017   2.351  12.283
12170DOPA   C4A 3389   9.157   2.561  11.873
12170DOPA   C1B 3390   8.307   1.041  11.953
12170DOPA   D2B 3391   8.747   1.031  11.733
12170DOPA   C3B 3392   9.167   1.191  11.713
12170DOPA   C4B 3393   9.657   1.211  11.613
12171DOPA   PO4 3394  22.483   6.001  11.213
12171DOPA   GL1 3395  22.253   5.831  10.913
12171DOPA   GL2 3396  22.073   5.661  11.073
12171DOPA   C1A 3397  22.203   6.031  10.533
12171DOPA   D2A 3398  22.083   6.481  10.453
12171DOPA   C3A 3399  21.693   6.591  10.223
12171DOPA   C4A 3400  21.243   6.691  10.233
12171DOPA   C1B 3401  21.803   5.931  10.853
12171DOPA   D2B 3402  21.713   5.951  10.343
12171DOPA   C3B 3403  21.443   6.221  10.033
12171DOPA   C4B 3404  21.273   6.351   9.593
12172DOPA   PO4 3405   6.517   4.691  10.813
12172DOPA   GL1 3406   6.757   4.741  10.453
12172DOPA   GL2 3407   7.007   4.771  10.613
12172DOPA   C1A 3408   6.917   4.911  10.083
12172DOPA   D2A 3409   7.257   5.111   9.753
12172DOPA   C3A 3410   7.457   4.961   9.393
12172DOPA   C4A 3411   7.697   4.671   9.113
12172DOPA   C1B 3412   7.367   4.761  10.353
12172DOPA   D2B 3413   7.767   4.571  10.053
12172DOPA   C3B 3414   8.067   4.801   9.863
12172DOPA   C4B 3415   8.147   4.871   9.373
12173DOPA   PO4 3416  11.243   3.331  15.123
12173DOPA   GL1 3417  11.233   3.171  14.693
12173DOPA   GL2 3418  11.413   3.441  14.673
12173DOPA   C1A 3419  11.073   3.311  14.273
12173DOPA   D2A 3420  11.253   3.551  13.853
12173DOPA   C3A 3421  11.713   3.631  13.703
12173DOPA   C4A 3422  12.173   3.641  13.553
12173DOPA   C1B 3423  11.563   3.381  14.233
12173DOPA   D2B 3424  11.833   3.181  13.893
12173DOPA   C3B 3425  12.273   3.161  13.733
12173DOPA   C4B 3426  12.633   3.311  13.373
12174DOPA   PO4 3427   7.437   3.871  11.703
12174DOPA   GL1 3428   7.797   4.081  11.613
12174DOPA   GL2 3429   7.937   3.971  11.823
12174DOPA   C1A 3430   7.967   3.861  11.313
12174DOPA   D2A 3431   8.257   3.711  10.983
12174DOPA   C3A 3432   8.597   3.461  10.983
12174DOPA   C4A 3433   9.037   3.361  10.883
12174DOPA   C1B 3434   8.317   3.761  11.633
12174DOPA   D2B 3435   8.717   3.731  11.393
12174DOPA   C3B 3436   9.077   3.871  11.073
12174DOPA   C4B 3437   9.237   4.231  10.823
12175DOPA   PO4 3438  16.803   4.851  15.353
12175DOPA   GL1 3439  16.613   4.801  14.953
12175DOPA   GL2 3440  16.423   4.991  15.083
12175DOPA   C1A 3441  16.623   4.671  14.533
12175DOPA   D2A 3442  16.343   4.561  14.073
12175DOPA   C3A 3443  16.193   4.891  13.663
12175DOPA   C4A 3444  15.853   5.261  13.473
12175DOPA   C1B 3445  16.113   5.101  14.793
12175DOPA   D2B 3446  15.923   5.521  14.843
12175DOPA   C3B 3447  15.743   5.781  14.473
12175DOPA   C4B 3448  15.593   5.941  14.083
12176DOPA   PO4 3449   3.007   6.631   7.973
12176DOPA   GL1 3450   2.947   6.581   7.553
12176DOPA   GL2 3451   3.147   6.711   7.483
12176DOPA   C1A 3452   2.927   6.371   7.173
12176DOPA   D2A 3453   3.007   6.401   6.663
12176DOPA   C3A 3454   2.877   6.411   6.183
12176DOPA   C4A 3455   2.837   6.411   5.723
12176DOPA   C1B 3456   3.457   6.591   7.163
12176DOPA   D2B 3457   3.677   6.801   6.853
12176DOPA   C3B 3458   3.797   6.631   6.473
12176DOPA   C4B 3459   3.927   6.191   6.293
12177DOPA   PO4 3460   1.047   1.361   7.593
12177DOPA   GL1 3461   1.037   1.341   7.123
12177DOPA   GL2 3462   1.267   1.421   7.063
12177DOPA   C1A 3463   0.667   1.481   6.873
12177DOPA   D2A 3464   0.607   1.351   6.373
12177DOPA   C3A 3465   0.367   1.481   5.973
12177DOPA   C4A 3466   0.047   1.641   5.583
12177DOPA   C1B 3467   1.487   1.691   6.763
12177DOPA   D2B 3468   1.687   1.871   6.393
12177DOPA   C3B 3469   1.767   1.591   6.053
12177DOPA   C4B 3470   1.707   1.561   5.553
12178DOPA   PO4 3471   0.387   1.951   7.523
12178DOPA   GL1 3472   0.217   2.101   7.163
12178DOPA   GL2 3473   0.257   1.831   7.073
12178DOPA   C1A 3474   0.117   2.431   6.973
12178DOPA   D2A 3475  24.783   2.731   6.693
12178DOPA   C3A 3476  24.503   2.901   6.313
12178DOPA   C4A 3477  24.193   2.961   5.933
12178DOPA   C1B 3478   0.177   1.611   6.643
12178DOPA   D2B 3479   0.517   1.811   6.393
12178DOPA   C3B 3480   0.717   1.981   6.033
12178DOPA   C4B 3481   1.067   2.121   5.713
12179DOPA   PO4 3482  19.173   7.182  14.663
12179DOPA   GL1 3483  18.983   7.222  14.303
12179DOPA   GL2 3484  19.103   7.051  14.123
12179DOPA   C1A 3485  19.013   7.522  14.003
12179DOPA   D2A 3486  19.013   0.131  13.663
12179DOPA   C3A 3487  18.613   0.131  13.423
12179DOPA   C4A 3488  18.223   0.131  13.113
12179DOPA   C1B 3489  18.883   6.841  13.783
12179DOPA   D2B 3490  18.553   6.781  13.403
12179DOPA   C3B 3491  18.523   6.601  13.003
12179DOPA   C4B 3492  18.683   6.691  12.513
12180DOPA   PO4 3493   8.597   4.501  13.033
12180DOPA   GL1 3494   8.787   4.681  12.703
12180DOPA   GL2 3495   9.097   4.621  12.803
12180DOPA   C1A 3496   8.907   4.631  12.293
12180DOPA   D2A 3497   8.947   4.531  11.773
12180DOPA   C3A 3498   9.107   4.301  11.453
12180DOPA   C4A 3499   9.547   4.171  11.253
12180DOPA   C1B 3500   9.427   4.571  12.493
12180DOPA   D2B 3501   9.817   4.561  12.233
12180DOPA   C3B 3502   9.907   4.591  11.803
12180DOPA   C4B 3503   9.927   4.481  11.323
12181DOPA   PO4 3504   3.357   7.492   8.003
12181DOPA   GL1 3505   3.257   7.462   7.593
12181DOPA   GL2 3506   3.407   7.262   7.563
12181DOPA   C1A 3507   3.097   7.672   7.283
12181DOPA   D2A 3508   3.037   0.161   6.963
12181DOPA   C3A 3509   3.137   0.171   6.543
12181DOPA   C4A 3510   3.387   0.151   6.053
12181DOPA   C1B 3511   3.507   7.242   7.083
12181DOPA   D2B 3512   3.627   7.312   6.673
12181DOPA   C3B 3513   3.697   0.051   6.533
12181DOPA   C4B 3514   3.677   0.441   6.263
12182DOPA   PO4 3515  12.363   1.431  15.743
12182DOPA   GL1 3516  12.573   1.411  15.383
12182DOPA   GL2 3517  12.493   1.131  15.283
12182DOPA   C1A 3518  12.843   1.701  15.133
12182DOPA   D2A 3519  13.213   1.921  14.863
12182DOPA   C3A 3520  13.193   1.731  14.453
12182DOPA   C4A 3521  13.063   1.471  14.063
12182DOPA   C1B 3522  12.283   1.231  14.923
12182DOPA   D2B 3523  12.203   1.321  14.473
12182DOPA   C3B 3524  12.263   1.291  14.033
12182DOPA   C4B 3525  12.413   1.321  13.563
12183DOPC   NC3 3526  12.533   3.281  11.313
12183DOPC   PO4 3527  12.283   3.561  11.303
12183DOPC   GL1 3528  12.083   3.631  11.693
12183DOPC   GL2 3529  11.923   3.411  11.683
12183DOPC   C1A 3530  12.183   3.931  11.993
12183DOPC   D2A 3531  11.963   4.181  12.323
12183DOPC   C3A 3532  11.913   4.191  12.753
12183DOPC   C4A 3533  12.063   3.961  13.173
12183DOPC   C1B 3534  11.723   3.651  12.003
12183DOPC   D2B 3535  11.483   4.041  12.043
12183DOPC   C3B 3536  11.473   4.251  12.483
12183DOPC   C4B 3537  11.453   4.141  12.983
12184DOPC   NC3 3538  20.933   4.071   5.563
12184DOPC   PO4 3539  21.193   3.801   5.623
12184DOPC   GL1 3540  21.433   3.871   5.863
12184DOPC   GL2 3541  21.423   4.221   5.873
12184DOPC   C1A 3542  21.863   3.791   5.923
12184DOPC   D2A 3543  22.273   3.651   6.123
12184DOPC   C3A 3544  22.693   3.771   6.303
12184DOPC   C4A 3545  23.123   3.661   6.493
12184DOPC   C1B 3546  21.863   4.251   5.793
12184DOPC   D2B 3547  22.323   4.301   5.793
12184DOPC   C3B 3548  22.733   4.331   6.023
12184DOPC   C4B 3549  23.113   4.131   6.413
12185DOPC   NC3 3550   3.447   2.201   3.853
12185DOPC   PO4 3551   3.477   2.541   3.703
12185DOPC   GL1 3552   3.457   2.641   4.083
12185DOPC   GL2 3553   3.277   2.921   4.023
12185DOPC   C1A 3554   3.377   2.351   4.393
12185DOPC   D2A 3555   3.167   2.261   4.853
12185DOPC   C3A 3556   3.287   2.571   5.153
12185DOPC   C4A 3557   3.427   3.071   5.283
12185DOPC   C1B 3558   2.957   2.801   4.303
12185DOPC   D2B 3559   2.507   2.801   4.383
12185DOPC   C3B 3560   2.127   2.941   4.663
12185DOPC   C4B 3561   1.797   2.911   4.963
12186DOPC   NC3 3562  20.223   7.262   6.513
12186DOPC   PO4 3563  20.103   7.392   6.893
12186DOPC   GL1 3564  20.503   7.242   7.113
12186DOPC   GL2 3565  20.683   7.372   6.893
12186DOPC   C1A 3566  20.603   7.372   7.563
12186DOPC   D2A 3567  20.673   7.522   8.043
12186DOPC   C3A 3568  21.073   7.672   8.313
12186DOPC   C4A 3569  21.413   7.402   8.593
12186DOPC   C1B 3570  20.953   7.632   7.103
12186DOPC   D2B 3571  21.433   7.712   7.273
12186DOPC   C3B 3572  21.833   7.702   7.053
12186DOPC   C4B 3573  22.283   0.101   7.163
12187DOPC   NC3 3574  19.013   3.001   8.833
12187DOPC   PO4 3575  18.983   2.851   9.193
12187DOPC   GL1 3576  19.213   2.931   9.453
12187DOPC   GL2 3577  19.243   3.191   9.553
12187DOPC   C1A 3578  19.613   2.771   9.493
12187DOPC   D2A 3579  20.083   2.621   9.603
12187DOPC   C3A 3580  20.543   2.621   9.673
12187DOPC   C4A 3581  21.003   2.331   9.763
12187DOPC   C1B 3582  19.683   3.251   9.713
12187DOPC   D2B 3583  20.163   3.081   9.903
12187DOPC   C3B 3584  20.543   3.091   9.833
12187DOPC   C4B 3585  20.813   3.021   9.473
12188DOPC   NC3 3586   4.887   6.521   3.443
12188DOPC   PO4 3587   5.147   6.611   3.753
12188DOPC   GL1 3588   4.867   6.461   4.003
12188DOPC   GL2 3589   5.157   6.301   4.143
12188DOPC   C1A 3590   4.747   6.101   4.233
12188DOPC   D2A 3591   4.457   6.101   4.653
12188DOPC   C3A 3592   3.987   6.021   4.723
12188DOPC   C4A 3593   3.497   5.931   4.853
12188DOPC   C1B 3594   5.147   6.161   4.553
12188DOPC   D2B 3595   5.327   6.071   5.033
12188DOPC   C3B 3596   5.207   5.891   5.423
12188DOPC   C4B 3597   5.087   6.001   5.903
12189DOPC   NC3 3598  12.013   2.281  11.233
12189DOPC   PO4 3599  12.333   2.461  11.293
12189DOPC   GL1 3600  12.133   2.581  11.703
12189DOPC   GL2 3601  11.903   2.491  11.613
12189DOPC   C1A 3602  12.083   2.371  12.053
12189DOPC   D2A 3603  11.643   2.281  12.323
12189DOPC   C3A 3604  11.593   1.961  12.623
12189DOPC   C4A 3605  11.513   1.661  13.003
12189DOPC   C1B 3606  11.553   2.581  11.853
12189DOPC   D2B 3607  11.203   2.781  12.143
12189DOPC   C3B 3608  11.193   3.121  12.423
12189DOPC   C4B 3609  11.193   3.541  12.713
12190DOPC   NC3 3610  13.153   3.811  11.863
12190DOPC   PO4 3611  13.013   3.431  11.843
12190DOPC   GL1 3612  13.073   3.231  12.213
12190DOPC   GL2 3613  13.103   3.541  12.303
12190DOPC   C1A 3614  12.793   3.131  12.553
12190DOPC   D2A 3615  12.463   2.951  12.873
12190DOPC   C3A 3616  11.973   2.881  12.983
12190DOPC   C4A 3617  11.553   3.081  12.903
12190DOPC   C1B 3618  13.193   3.391  12.693
12190DOPC   D2B 3619  13.133   3.301  13.153
12190DOPC   C3B 3620  13.103   3.551  13.533
12190DOPC   C4B 3621  13.043   3.851  13.913
12191DOPC   NC3 3622   8.307   5.861   6.123
12191DOPC   PO4 3623   7.957   5.701   6.263
12191DOPC   GL1 3624   7.637   5.871   6.423
12191DOPC   GL2 3625   7.397   5.641   6.383
12191DOPC   C1A 3626   7.357   6.111   6.753
12191DOPC   D2A 3627   7.227   6.651   6.683
12191DOPC   C3A 3628   6.937   6.751   6.963
12191DOPC   C4A 3629   6.537   6.761   7.223
12191DOPC   C1B 3630   7.287   5.631   6.823
12191DOPC   D2B 3631   7.047   5.821   7.243
12191DOPC   C3B 3632   6.607   5.881   7.543
12191DOPC   C4B 3633   6.517   6.031   8.013
12192DOPC   NC3 3634  18.033   2.201  10.423
12192DOPC   PO4 3635  17.763   2.501  10.483
12192DOPC   GL1 3636  17.983   2.551  10.853
12192DOPC   GL2 3637  17.813   2.661  11.013
12192DOPC   C1A 3638  18.323   2.611  11.113
12192DOPC   D2A 3639  18.633   2.661  11.493
12192DOPC   C3A 3640  19.023   2.841  11.573
12192DOPC   C4A 3641  19.473   2.851  11.443
12192DOPC   C1B 3642  17.923   2.481  11.343
12192DOPC   D2B 3643  18.223   2.311  11.693
12192DOPC   C3B 3644  18.603   2.231  11.903
12192DOPC   C4B 3645  18.883   2.191  12.313
12193DOPC   NC3 3646   9.827   4.031   8.053
12193DOPC   PO4 3647   9.577   4.301   8.093
12193DOPC   GL1 3648   9.427   4.161   8.353
12193DOPC   GL2 3649   9.617   3.891   8.403
12193DOPC   C1A 3650   9.197   4.351   8.713
12193DOPC   D2A 3651   8.757   4.491   8.793
12193DOPC   C3A 3652   8.427   4.261   8.513
12193DOPC   C4A 3653   8.047   3.931   8.323
12193DOPC   C1B 3654   9.497   3.661   8.723
12193DOPC   D2B 3655   9.067   3.511   8.983
12193DOPC   C3B 3656   8.607   3.611   9.063
12193DOPC   C4B 3657   8.177   3.571   9.143
12194DOPC   NC3 3658  23.283   5.691   3.953
12194DOPC   PO4 3659  23.043   5.411   4.153
12194DOPC   GL1 3660  23.053   5.121   4.463
12194DOPC   GL2 3661  23.293   5.361   4.643
12194DOPC   C1A 3662  23.023   4.801   4.723
12194DOPC   D2A 3663  23.403   4.441   4.833
12194DOPC   C3A 3664  23.553   4.781   5.173
12194DOPC   C4A 3665  23.783   5.121   5.393
12194DOPC   C1B 3666  23.313   5.221   5.113
12194DOPC   D2B 3667  23.343   5.201   5.643
12194DOPC   C3B 3668  23.373   5.051   6.113
12194DOPC   C4B 3669  23.273   5.261   6.553
12195DOPC   NC3 3670   8.467   3.111   7.093
12195DOPC   PO4 3671   8.397   3.031   6.723
12195DOPC   GL1 3672   8.027   3.271   6.693
12195DOPC   GL2 3673   8.117   3.451   6.893
12195DOPC   C1A 3674   7.697   3.071   6.713
12195DOPC   D2A 3675   7.477   3.061   7.143
12195DOPC   C3A 3676   7.187   2.951   7.433
12195DOPC   C4A 3677   6.857   2.721   7.553
12195DOPC   C1B 3678   7.827   3.511   7.133
12195DOPC   D2B 3679   7.367   3.461   7.443
12195DOPC   C3B 3680   7.267   3.461   7.863
12195DOPC   C4B 3681   6.987   3.421   8.273
12196DOPC   NC3 3682  18.823   7.532   8.833
12196DOPC   PO4 3683  18.873   7.222   9.103
12196DOPC   GL1 3684  19.093   7.192   9.453
12196DOPC   GL2 3685  18.983   6.961   9.513
12196DOPC   C1A 3686  19.193   7.322   9.843
12196DOPC   D2A 3687  19.643   7.292  10.163
12196DOPC   C3A 3688  19.683   7.262  10.603
12196DOPC   C4A 3689  19.863   7.171  11.023
12196DOPC   C1B 3690  19.353   6.841   9.643
12196DOPC   D2B 3691  19.573   6.651  10.083
12196DOPC   C3B 3692  19.903   6.481  10.323
12196DOPC   C4B 3693  20.263   6.441  10.663
12197DOPC   NC3 3694   1.857   7.192   3.563
12197DOPC   PO4 3695   1.707   7.482   3.323
12197DOPC   GL1 3696   1.407   7.622   3.603
12197DOPC   GL2 3697   1.567   0.031   3.713
12197DOPC   C1A 3698   1.327   7.342   3.853
12197DOPC   D2A 3699   1.137   6.951   4.243
12197DOPC   C3A 3700   0.817   6.981   4.643
12197DOPC   C4A 3701   0.577   7.182   4.993
12197DOPC   C1B 3702   1.767   7.682   4.043
12197DOPC   D2B 3703   1.987   7.492   4.403
12197DOPC   C3B 3704   1.827   7.252   4.733
12197DOPC   C4B 3705   1.587   7.212   5.153
12198DOPC   NC3 3706  15.603   6.701  11.843
12198DOPC   PO4 3707  15.323   6.891  11.683
12198DOPC   GL1 3708  15.233   6.841  12.093
12198DOPC   GL2 3709  15.183   6.531  12.043
12198DOPC   C1A 3710  15.363   6.981  12.483
12198DOPC   D2A 3711  15.353   7.262  12.913
12198DOPC   C3A 3712  15.693   7.532  13.043
12198DOPC   C4A 3713  15.943   0.031  13.353
12198DOPC   C1B 3714  15.433   6.381  12.333
12198DOPC   D2B 3715  15.473   6.541  12.863
12198DOPC   C3B 3716  15.753   6.491  13.243
12198DOPC   C4B 3717  16.053   6.191  13.513
12199DOPC   NC3 3718   0.617   0.301   3.773
12199DOPC   PO4 3719   0.387   7.782   3.903
12199DOPC   GL1 3720   0.287   7.742   4.343
12199DOPC   GL2 3721   0.347   0.201   4.323
12199DOPC   C1A 3722  24.843   7.522   4.413
12199DOPC   D2A 3723  24.543   7.131   4.493
12199DOPC   C3A 3724  24.493   7.151   4.973
12199DOPC   C4A 3725  24.303   7.081   5.433
12199DOPC   C1B 3726   0.597   0.311   4.723
12199DOPC   D2B 3727   0.557   0.421   5.223
12199DOPC   C3B 3728   0.447   0.841   5.343
12199DOPC   C4B 3729   0.277   1.281   5.323
12200DOPC   NC3 3730   7.627   6.661   5.433
12200DOPC   PO4 3731   7.907   6.611   5.733
12200DOPC   GL1 3732   7.607   6.721   6.113
12200DOPC   GL2 3733   7.477   6.861   5.853
12200DOPC   C1A 3734   7.467   6.331   6.303
12200DOPC   D2A 3735   7.057   6.071   6.363
12200DOPC   C3A 3736   6.887   6.201   6.763
12200DOPC   C4A 3737   6.747   6.251   7.253
12200DOPC   C1B 3738   7.047   6.781   5.903
12200DOPC   D2B 3739   6.597   6.751   5.853
12200DOPC   C3B 3740   6.397   6.921   6.163
12200DOPC   C4B 3741   5.957   6.941   6.433
12201DOPC   NC3 3742   3.757   3.961   3.773
12201DOPC   PO4 3743   3.577   4.311   3.663
12201DOPC   GL1 3744   3.287   4.491   3.963
12201DOPC   GL2 3745   3.507   4.371   4.113
12201DOPC   C1A 3746   2.967   4.781   4.203
12201DOPC   D2A 3747   2.817   5.141   4.593
12201DOPC   C3A 3748   2.587   5.071   4.973
12201DOPC   C4A 3749   2.437   5.211   5.363
12201DOPC   C1B 3750   3.407   4.341   4.483
12201DOPC   D2B 3751   3.237   4.251   4.873
12201DOPC   C3B 3752   2.917   3.971   5.143
12201DOPC   C4B 3753   2.547   3.891   5.393
12202DOPC   NC3 3754   3.617   6.621   3.523
12202DOPC   PO4 3755   3.397   6.271   3.593
12202DOPC   GL1 3756   3.247   6.191   3.883
12202DOPC   GL2 3757   3.087   5.951   3.793
12202DOPC   C1A 3758   3.267   6.151   4.253
12202DOPC   D2A 3759   3.117   6.281   4.683
12202DOPC   C3A 3760   3.137   6.191   5.123
12202DOPC   C4A 3761   3.087   5.991   5.543
12202DOPC   C1B 3762   2.847   5.931   4.133
12202DOPC   D2B 3763   2.527   5.971   4.553
12202DOPC   C3B 3764   2.717   6.041   4.953
12202DOPC   C4B 3765   2.557   6.071   5.443
12203DOPC   NC3 3766  21.553   7.342   5.243
12203DOPC   PO4 3767  21.723   6.961   5.313
12203DOPC   GL1 3768  21.863   6.731   5.683
12203DOPC   GL2 3769  21.843   7.041   5.823
12203DOPC   C1A 3770  21.703   6.671   6.063
12203DOPC   D2A 3771  21.523   6.581   6.563
12203DOPC   C3A 3772  21.783   6.381   6.923
12203DOPC   C4A 3773  22.143   6.201   7.203
12203DOPC   C1B 3774  22.283   7.222   5.943
12203DOPC   D2B 3775  22.783   7.151   6.083
12203DOPC   C3B 3776  22.963   7.061   6.483
12203DOPC   C4B 3777  23.093   7.312   6.873
12204DOPC   NC3 3778  10.293   4.131   8.263
12204DOPC   PO4 3779  10.293   4.411   8.513
12204DOPC   GL1 3780  10.157   4.311   8.933
12204DOPC   GL2 3781  10.097   4.571   9.003
12204DOPC   C1A 3782   9.847   3.991   9.053
12204DOPC   D2A 3783   9.477   3.721   9.313
12204DOPC   C3A 3784   9.297   3.761   9.693
12204DOPC   C4A 3785   8.857   3.691   9.963
12204DOPC   C1B 3786   9.687   4.641   8.993
12204DOPC   D2B 3787   9.157   4.581   9.123
12204DOPC   C3B 3788   8.907   4.491   9.493
12204DOPC   C4B 3789   8.437   4.391   9.503
12205DOPC   NC3 3790   1.327   6.231   3.113
12205DOPC   PO4 3791   1.087   6.181   3.403
12205DOPC   GL1 3792   1.157   5.971   3.673
12205DOPC   GL2 3793   1.467   5.941   3.613
12205DOPC   C1A 3794   1.207   6.191   4.073
12205DOPC   D2A 3795   1.137   6.321   4.613
12205DOPC   C3A 3796   0.797   6.541   4.893
12205DOPC   C4A 3797   0.627   6.691   5.333
12205DOPC   C1B 3798   1.707   5.831   4.023
12205DOPC   D2B 3799   2.107   5.751   4.413
12205DOPC   C3B 3800   1.997   5.881   4.873
12205DOPC   C4B 3801   1.757   6.261   4.943
12206DOPC   NC3 3802  12.073   7.242  10.813
12206DOPC   PO4 3803  11.823   7.202  10.493
12206DOPC   GL1 3804  11.463   7.121  10.713
12206DOPC   GL2 3805  11.313   7.332  10.543
12206DOPC   C1A 3806  11.253   6.841  10.913
12206DOPC   D2A 3807  10.813   6.871  11.143
12206DOPC   C3A 3808  11.013   6.621  11.493
12206DOPC   C4A 3809  11.463   6.761  11.483
12206DOPC   C1B 3810  10.903   7.151  10.713
12206DOPC   D2B 3811  10.443   7.081  10.873
12206DOPC   C3B 3812  10.363   6.921  11.313
12206DOPC   C4B 3813  10.237   7.021  11.713
12207DOPC   NC3 3814  11.933   5.301  10.283
12207DOPC   PO4 3815  11.923   4.991  10.513
12207DOPC   GL1 3816  11.613   5.141  10.813
12207DOPC   GL2 3817  11.673   4.831  10.943
12207DOPC   C1A 3818  11.383   5.431  10.963
12207DOPC   D2A 3819  11.143   5.831  11.223
12207DOPC   C3A 3820  10.753   5.891  11.523
12207DOPC   C4A 3821  10.303   6.071  11.663
12207DOPC   C1B 3822  11.333   4.651  11.263
12207DOPC   D2B 3823  10.913   4.441  11.373
12207DOPC   C3B 3824  10.813   4.191  11.743
12207DOPC   C4B 3825  10.613   3.831  11.963
12208DOPC   NC3 3826   8.307   0.411   5.923
12208DOPC   PO4 3827   8.077   0.681   6.093
12208DOPC   GL1 3828   7.967   0.521   6.453
12208DOPC   GL2 3829   7.717   0.621   6.353
12208DOPC   C1A 3830   7.817   0.401   6.863
12208DOPC   D2A 3831   7.427   0.161   7.103
12208DOPC   C3A 3832   7.247   0.191   7.603
12208DOPC   C4A 3833   7.277   0.321   8.083
12208DOPC   C1B 3834   7.467   0.681   6.613
12208DOPC   D2B 3835   7.197   0.591   6.993
12208DOPC   C3B 3836   7.347   0.711   7.363
12208DOPC   C4B 3837   7.137   0.791   7.773
12209DOPC   NC3 3838  22.763   0.701   4.403
12209DOPC   PO4 3839  22.673   0.881   4.733
12209DOPC   GL1 3840  22.703   0.791   5.113
12209DOPC   GL2 3841  22.563   1.031   5.243
12209DOPC   C1A 3842  22.933   0.461   5.333
12209DOPC   D2A 3843  23.193   0.261   5.723
12209DOPC   C3A 3844  23.573   0.261   5.983
12209DOPC   C4A 3845  23.943   0.341   6.293
12209DOPC   C1B 3846  22.873   1.301   5.453
12209DOPC   D2B 3847  23.293   1.351   5.713
12209DOPC   C3B 3848  23.613   1.131   5.913
12209DOPC   C4B 3849  23.923   0.811   6.033
12210DOPC   NC3 3850   2.777   0.801   3.933
12210DOPC   PO4 3851   3.077   0.941   3.963
12210DOPC   GL1 3852   3.197   1.111   4.283
12210DOPC   GL2 3853   3.167   1.341   4.203
12210DOPC   C1A 3854   3.297   0.811   4.603
12210DOPC   D2A 3855   3.477   0.531   4.983
12210DOPC   C3A 3856   3.867   0.661   5.243
12210DOPC   C4A 3857   4.107   0.591   5.643
12210DOPC   C1B 3858   2.967   1.371   4.643
12210DOPC   D2B 3859   2.877   1.471   5.133
12210DOPC   C3B 3860   2.477   1.771   5.123
12210DOPC   C4B 3861   2.137   2.051   5.333
12211DOPC   NC3 3862   2.357   7.292   3.263
12211DOPC   PO4 3863   2.347   6.901   3.313
12211DOPC   GL1 3864   2.457   6.581   3.663
12211DOPC   GL2 3865   2.287   6.831   3.813
12211DOPC   C1A 3866   2.317   6.381   4.033
12211DOPC   D2A 3867   2.147   6.231   4.533
12211DOPC   C3A 3868   2.267   6.311   4.983
12211DOPC   C4A 3869   2.607   6.571   5.233
12211DOPC   C1B 3870   2.577   6.931   4.173
12211DOPC   D2B 3871   2.417   7.192   4.513
12211DOPC   C3B 3872   2.277   7.492   4.853
12211DOPC   C4B 3873   1.857   7.732   4.963
12212DOPC   NC3 3874  14.923   4.791  12.133
12212DOPC   PO4 3875  15.293   4.771  12.053
12212DOPC   GL1 3876  15.583   4.741  12.333
12212DOPC   GL2 3877  15.713   5.021  12.263
12212DOPC   C1A 3878  15.643   4.851  12.753
12212DOPC   D2A 3879  15.483   5.111  13.123
12212DOPC   C3A 3880  15.743   5.421  12.983
12212DOPC   C4A 3881  15.783   5.911  13.103
12212DOPC   C1B 3882  15.543   5.261  12.493
12212DOPC   D2B 3883  15.273   5.511  12.883
12212DOPC   C3B 3884  15.313   5.591  13.343
12212DOPC   C4B 3885  15.193   5.841  13.743
12213DOPC   NC3 3886   1.017   4.161   3.313
12213DOPC   PO4 3887   1.167   4.501   3.293
12213DOPC   GL1 3888   0.997   4.931   3.473
12213DOPC   GL2 3889   1.067   4.791   3.673
12213DOPC   C1A 3890   0.937   5.221   3.793
12213DOPC   D2A 3891   1.087   5.361   4.233
12213DOPC   C3A 3892   1.347   5.751   4.373
12213DOPC   C4A 3893   1.667   6.061   4.503
12213DOPC   C1B 3894   0.877   4.851   4.123
12213DOPC   D2B 3895   0.637   4.591   4.523
12213DOPC   C3B 3896   0.847   4.481   4.953
12213DOPC   C4B 3897   0.917   4.361   5.413
12214DOPC   NC3 3898  14.283   6.691  12.033
12214DOPC   PO4 3899  13.953   6.921  11.973
12214DOPC   GL1 3900  14.063   6.971  12.333
12214DOPC   GL2 3901  13.833   7.001  12.473
12214DOPC   C1A 3902  14.413   6.961  12.563
12214DOPC   D2A 3903  14.493   6.961  13.023
12214DOPC   C3A 3904  14.683   6.631  13.383
12214DOPC   C4A 3905  15.023   6.401  13.733
12214DOPC   C1B 3906  13.813   7.071  12.873
12214DOPC   D2B 3907  13.823   6.801  13.283
12214DOPC   C3B 3908  13.693   6.511  13.603
12214DOPC   C4B 3909  13.633   6.081  13.843
12215DOPC   NC3 3910  22.113   2.231   5.303
12215DOPC   PO4 3911  22.033   1.991   4.983
12215DOPC   GL1 3912  22.313   1.691   5.083
12215DOPC   GL2 3913  22.303   1.771   5.403
12215DOPC   C1A 3914  22.763   1.641   5.053
12215DOPC   D2A 3915  23.213   1.551   5.143
12215DOPC   C3A 3916  23.533   1.681   5.453
12215DOPC   C4A 3917  23.913   1.691   5.773
12215DOPC   C1B 3918  22.663   1.741   5.593
12215DOPC   D2B 3919  23.113   1.861   5.643
12215DOPC   C3B 3920  23.103   2.041   5.203
12215DOPC   C4B 3921  22.913   2.181   4.823
12216DOPC   NC3 3922   9.457   2.251   6.883
12216DOPC   PO4 3923   9.327   2.041   7.193
12216DOPC   GL1 3924   8.967   2.041   7.463
12216DOPC   GL2 3925   8.967   2.311   7.593
12216DOPC   C1A 3926   8.787   1.851   7.813
12216DOPC   D2A 3927   8.527   1.701   8.173
12216DOPC   C3A 3928   8.237   1.341   8.233
12216DOPC   C4A 3929   8.007   0.951   8.113
12216DOPC   C1B 3930   8.657   2.481   7.833
12216DOPC   D2B 3931   8.287   2.491   8.173
12216DOPC   C3B 3932   7.947   2.571   8.323
12216DOPC   C4B 3933   7.487   2.571   8.333
12217DOPC   NC3 3934  17.853   7.161  10.333
12217DOPC   PO4 3935  17.593   7.021  10.543
12217DOPC   GL1 3936  17.733   7.212  10.833
12217DOPC   GL2 3937  18.023   7.232  10.813
12217DOPC   C1A 3938  17.783   7.282  11.273
12217DOPC   D2A 3939  17.663   7.101  11.733
12217DOPC   C3A 3940  17.583   7.212  12.133
12217DOPC   C4A 3941  17.503   7.352  12.573
12217DOPC   C1B 3942  18.223   7.532  10.913
12217DOPC   D2B 3943  18.543   0.141  11.053
12217DOPC   C3B 3944  18.793   0.281  11.413
12217DOPC   C4B 3945  19.053   0.381  11.743
12218DOPC   NC3 3946  24.113   2.181   2.743
12218DOPC   PO4 3947  24.093   2.181   3.113
12218DOPC   GL1 3948  24.353   2.241   3.453
12218DOPC   GL2 3949  24.453   1.981   3.493
12218DOPC   C1A 3950  24.353   2.551   3.823
12218DOPC   D2A 3951  24.343   2.441   4.313
12218DOPC   C3A 3952  24.363   2.371   4.753
12218DOPC   C4A 3953  24.453   2.241   5.183
12218DOPC   C1B 3954  24.493   1.971   3.923
12218DOPC   D2B 3955  24.593   1.961   4.433
12218DOPC   C3B 3956  24.793   2.031   4.853
12218DOPC   C4B 3957  24.653   1.781   5.293
12219DOPC   NC3 3958   6.747   5.381   5.003
12219DOPC   PO4 3959   6.647   5.751   4.933
12219DOPC   GL1 3960   6.547   5.751   5.313
12219DOPC   GL2 3961   6.777   5.721   5.523
12219DOPC   C1A 3962   6.367   6.061   5.633
12219DOPC   D2A 3963   6.107   6.031   6.053
12219DOPC   C3A 3964   6.027   5.801   6.443
12219DOPC   C4A 3965   5.947   5.661   6.913
12219DOPC   C1B 3966   6.757   5.431   5.913
12219DOPC   D2B 3967   6.657   5.061   6.263
12219DOPC   C3B 3968   6.277   4.991   6.483
12219DOPC   C4B 3969   5.777   4.931   6.543
12220DOPC   NC3 3970   1.687   1.991   3.573
12220DOPC   PO4 3971   1.677   2.381   3.663
12220DOPC   GL1 3972   1.917   2.491   3.923
12220DOPC   GL2 3973   1.827   2.371   4.133
12220DOPC   C1A 3974   2.157   2.881   4.013
12220DOPC   D2A 3975   2.507   3.261   4.153
12220DOPC   C3A 3976   2.387   3.691   4.023
12220DOPC   C4A 3977   2.427   4.101   4.243
12220DOPC   C1B 3978   1.787   2.751   4.383
12220DOPC   D2B 3979   1.507   3.131   4.673
12220DOPC   C3B 3980   1.287   3.121   5.083
12220DOPC   C4B 3981   1.207   3.011   5.553
12221DOPC   NC3 3982  24.493   1.091   3.423
12221DOPC   PO4 3983  24.873   1.251   3.423
12221DOPC   GL1 3984   0.017   1.501   3.783
12221DOPC   GL2 3985  24.683   1.561   3.803
12221DOPC   C1A 3986   0.147   1.421   4.233
12221DOPC   D2A 3987   0.207   1.331   4.763
12221DOPC   C3A 3988   0.107   1.631   5.063
12221DOPC   C4A 3989   0.527   1.761   5.313
12221DOPC   C1B 3990  24.503   1.531   4.193
12221DOPC   D2B 3991  24.163   1.431   4.533
12221DOPC   C3B 3992  24.233   1.131   4.853
12221DOPC   C4B 3993  24.403   0.761   5.163
12222DOPC   NC3 3994  12.053   3.601  10.873
12222DOPC   PO4 3995  11.753   3.471  10.683
12222DOPC   GL1 3996  11.393   3.441  10.863
12222DOPC   GL2 3997  11.353   3.731  10.853
12222DOPC   C1A 3998  11.263   3.201  11.183
12222DOPC   D2A 3999  11.113   2.881  11.583
12222DOPC   C3A 4000  10.733   2.811  11.853
12222DOPC   C4A 4001  10.423   2.521  12.043
12222DOPC   C1B 4002  11.303   3.721  11.273
12222DOPC   D2B 4003  11.103   3.811  11.763
12222DOPC   C3B 4004  10.993   4.061  12.203
12222DOPC   C4B 4005  10.913   4.341  12.643
12223DOPC   NC3 4006  24.913   0.131   4.053
12223DOPC   PO4 4007  24.723   0.471   3.933
12223DOPC   GL1 4008  24.553   0.741   4.153
12223DOPC   GL2 4009  24.343   0.751   3.983
12223DOPC   C1A 4010  24.623   1.071   4.413
12223DOPC   D2A 4011  24.663   1.481   4.663
12223DOPC   C3A 4012  24.663   1.331   5.063
12223DOPC   C4A 4013  24.493   1.081   5.483
12223DOPC   C1B 4014  24.123   0.991   4.283
12223DOPC   D2B 4015  23.783   0.981   4.633
12223DOPC   C3B 4016  23.873   0.801   5.073
12223DOPC   C4B 4017  24.043   0.371   5.333
12224DOPC   NC3 4018  18.493   3.191   8.193
12224DOPC   PO4 4019  18.793   3.141   8.463
12224DOPC   GL1 4020  19.283   3.331   8.483
12224DOPC   GL2 4021  19.283   3.011   8.373
12224DOPC   C1A 4022  19.733   3.381   8.623
12224DOPC   D2A 4023  20.083   3.301   8.963
12224DOPC   C3A 4024  20.573   3.291   8.973
12224DOPC   C4A 4025  21.033   3.131   9.013
12224DOPC   C1B 4026  19.703   3.041   8.233
12224DOPC   D2B 4027  20.073   2.961   7.863
12224DOPC   C3B 4028  20.263   2.651   8.163
12224DOPC   C4B 4029  20.273   2.521   8.623
12225DOPC   NC3 4030  10.047   5.001   7.993
12225DOPC   PO4 4031   9.727   5.201   8.073
12225DOPC   GL1 4032   9.597   5.441   8.343
12225DOPC   GL2 4033   9.677   5.681   8.313
12225DOPC   C1A 4034   9.377   5.441   8.693
12225DOPC   D2A 4035   9.067   5.531   9.073
12225DOPC   C3A 4036   8.757   5.431   9.393
12225DOPC   C4A 4037   8.357   5.251   9.683
12225DOPC   C1B 4038   9.487   5.941   8.583
12225DOPC   D2B 4039   9.217   6.031   8.973
12225DOPC   C3B 4040   9.067   5.991   9.383
12225DOPC   C4B 4041   8.807   6.181   9.763
12226DOPC   NC3 4042  14.173   5.841  11.953
12226DOPC   PO4 4043  13.803   5.901  11.953
12226DOPC   GL1 4044  13.603   5.541  12.043
12226DOPC   GL2 4045  13.383   5.571  12.073
12226DOPC   C1A 4046  13.783   5.441  12.443
12226DOPC   D2A 4047  13.563   5.361  12.873
12226DOPC   C3A 4048  13.723   5.361  13.253
12226DOPC   C4A 4049  13.883   5.701  13.643
12226DOPC   C1B 4050  13.193   5.811  12.433
12226DOPC   D2B 4051  12.913   5.971  12.803
12226DOPC   C3B 4052  12.833   5.931  13.263
12226DOPC   C4B 4053  12.763   6.101  13.753
12227DOPC   NC3 4054   6.787   6.161   5.273
12227DOPC   PO4 4055   7.107   6.151   5.503
12227DOPC   GL1 4056   6.957   5.951   5.843
12227DOPC   GL2 4057   6.917   6.231   5.923
12227DOPC   C1A 4058   6.557   5.851   6.053
12227DOPC   D2A 4059   6.507   5.881   6.533
12227DOPC   C3A 4060   6.337   5.941   6.983
12227DOPC   C4A 4061   6.217   6.171   7.423
12227DOPC   C1B 4062   6.657   6.371   6.273
12227DOPC   D2B 4063   6.287   6.461   6.623
12227DOPC   C3B 4064   5.897   6.181   6.733
12227DOPC   C4B 4065   5.527   5.991   6.583
12228DOPC   NC3 4066  16.813   0.021  11.673
12228DOPC   PO4 4067  16.433   7.752  11.563
12228DOPC   GL1 4068  16.443   7.642  11.933
12228DOPC   GL2 4069  16.533   0.161  11.993
12228DOPC   C1A 4070  16.523   7.682  12.383
12228DOPC   D2A 4071  16.673   0.211  12.813
12228DOPC   C3A 4072  16.643   0.631  12.973
12228DOPC   C4A 4073  16.923   0.881  13.383
12228DOPC   C1B 4074  16.473   0.421  12.383
12228DOPC   D2B 4075  16.173   0.491  12.753
12228DOPC   C3B 4076  16.203   0.451  13.213
12228DOPC   C4B 4077  16.273   0.301  13.733
12229DOPC   NC3 4078  18.763   4.331   9.043
12229DOPC   PO4 4079  18.983   4.391   9.363
12229DOPC   GL1 4080  19.253   4.171   9.553
12229DOPC   GL2 4081  19.463   4.171   9.373
12229DOPC   C1A 4082  19.253   4.081   9.963
12229DOPC   D2A 4083  19.213   3.941  10.403
12229DOPC   C3A 4084  19.223   3.471  10.393
12229DOPC   C4A 4085  19.173   2.951  10.473
12229DOPC   C1B 4086  19.613   4.351   9.793
12229DOPC   D2B 4087  19.923   4.511  10.183
12229DOPC   C3B 4088  20.413   4.561  10.273
12229DOPC   C4B 4089  20.883   4.731  10.393
12230DOPC   NC3 4090   7.477   4.671   5.093
12230DOPC   PO4 4091   7.407   4.981   5.313
12230DOPC   GL1 4092   7.297   4.951   5.693
12230DOPC   GL2 4093   7.127   4.731   5.623
12230DOPC   C1A 4094   7.187   4.901   6.143
12230DOPC   D2A 4095   6.987   4.491   6.343
12230DOPC   C3A 4096   6.637   4.681   6.623
12230DOPC   C4A 4097   6.187   4.701   6.893
12230DOPC   C1B 4098   6.767   4.811   5.843
12230DOPC   D2B 4099   6.327   5.051   5.863
12230DOPC   C3B 4100   5.937   5.001   6.083
12230DOPC   C4B 4101   5.437   5.141   6.053
12231DOPC   NC3 4102   6.347   5.301   4.713
12231DOPC   PO4 4103   6.587   4.981   4.703
12231DOPC   GL1 4104   6.467   4.951   5.123
12231DOPC   GL2 4105   6.397   4.691   5.173
12231DOPC   C1A 4106   6.417   5.271   5.453
12231DOPC   D2A 4107   6.297   5.571   5.803
12231DOPC   C3A 4108   6.337   5.411   6.273
12231DOPC   C4A 4109   6.317   5.421   6.743
12231DOPC   C1B 4110   6.277   4.601   5.553
12231DOPC   D2B 4111   6.127   4.311   5.883
12231DOPC   C3B 4112   5.997   4.081   6.253
12231DOPC   C4B 4113   5.617   3.951   6.573
12232DOPC   NC3 4114  12.593   1.671  11.383
12232DOPC   PO4 4115  12.253   1.861  11.233
12232DOPC   GL1 4116  12.033   1.961  11.583
12232DOPC   GL2 4117  12.133   1.691  11.653
12232DOPC   C1A 4118  11.703   2.081  11.653
12232DOPC   D2A 4119  11.223   2.281  11.733
12232DOPC   C3A 4120  10.963   2.271  12.053
12232DOPC   C4A 4121  10.703   2.251  12.503
12232DOPC   C1B 4122  11.783   1.741  12.003
12232DOPC   D2B 4123  11.313   1.901  12.123
12232DOPC   C3B 4124  10.943   1.571  12.203
12232DOPC   C4B 4125  10.893   1.061  12.143
12233DOPC   NC3 4126  19.023   0.431   8.203
12233DOPC   PO4 4127  19.403   0.491   8.293
12233DOPC   GL1 4128  19.643   0.301   8.483
12233DOPC   GL2 4129  19.813   0.071   8.333
12233DOPC   C1A 4130  19.703   0.391   8.933
12233DOPC   D2A 4131  19.743   0.721   9.383
12233DOPC   C3A 4132  20.093   0.551   9.623
12233DOPC   C4A 4133  20.543   0.541   9.863
12233DOPC   C1B 4134  20.203   0.191   8.593
12233DOPC   D2B 4135  20.683   0.261   8.773
12233DOPC   C3B 4136  20.693   0.461   9.203
12233DOPC   C4B 4137  20.973   0.621   9.633
12234DOPC   NC3 4138  15.643   0.271  11.493
12234DOPC   PO4 4139  15.323   0.191  11.683
12234DOPC   GL1 4140  15.313   0.061  12.103
12234DOPC   GL2 4141  15.483   7.692  12.083
12234DOPC   C1A 4142  15.423   0.201  12.573
12234DOPC   D2A 4143  15.563   0.191  13.073
12234DOPC   C3A 4144  15.473   7.752  13.513
12234DOPC   C4A 4145  15.263   7.592  13.933
12234DOPC   C1B 4146  15.623   7.532  12.463
12234DOPC   D2B 4147  15.783   7.101  12.723
12234DOPC   C3B 4148  15.833   7.021  13.203
12234DOPC   C4B 4149  15.793   6.871  13.683
12235DOPC   NC3 4150   3.667   7.632   3.423
12235DOPC   PO4 4151   3.827   7.522   3.733
12235DOPC   GL1 4152   3.597   7.212   4.053
12235DOPC   GL2 4153   3.427   7.502   4.113
12235DOPC   C1A 4154   3.697   7.272   4.463
12235DOPC   D2A 4155   3.847   7.472   4.883
12235DOPC   C3A 4156   4.137   7.442   5.293
12235DOPC   C4A 4157   4.477   7.141   5.373
12235DOPC   C1B 4158   3.687   7.742   4.353
12235DOPC   D2B 4159   4.077   0.111   4.553
12235DOPC   C3B 4160   4.127   0.461   4.883
12235DOPC   C4B 4161   4.247   0.911   5.073
12236DOPC   NC3 4162  14.613   6.241  11.513
12236DOPC   PO4 4163  14.313   6.281  11.783
12236DOPC   GL1 4164  14.063   6.271  12.193
12236DOPC   GL2 4165  14.303   6.091  12.333
12236DOPC   C1A 4166  13.763   6.371  12.453
12236DOPC   D2A 4167  13.603   6.251  12.913
12236DOPC   C3A 4168  13.313   5.881  13.063
12236DOPC   C4A 4169  13.213   5.411  13.193
12236DOPC   C1B 4170  14.183   6.101  12.823
12236DOPC   D2B 4171  14.273   5.871  13.253
12236DOPC   C3B 4172  14.373   6.241  13.533
12236DOPC   C4B 4173  14.573   6.521  13.903
12237DOPC   NC3 4174  11.833   2.421  10.453
12237DOPC   PO4 4175  11.483   2.321  10.313
12237DOPC   GL1 4176  11.233   2.231  10.623
12237DOPC   GL2 4177  11.273   1.991  10.813
12237DOPC   C1A 4178  10.883   2.541  10.693
12237DOPC   D2A 4179  10.493   2.551  11.003
12237DOPC   C3A 4180  10.067   2.461  10.963
12237DOPC   C4A 4181   9.687   2.671  10.943
12237DOPC   C1B 4182  10.993   2.171  11.053
12237DOPC   D2B 4183  10.823   2.421  11.483
12237DOPC   C3B 4184  10.383   2.501  11.513
12237DOPC   C4B 4185  10.047   2.771  11.843
12238DOPC   NC3 4186  10.237   0.841   8.683
12238DOPC   PO4 4187  10.423   1.171   8.753
12238DOPC   GL1 4188  10.037   1.321   8.943
12238DOPC   GL2 4189  10.087   1.181   9.203
12238DOPC   C1A 4190   9.867   1.761   9.013
12238DOPC   D2A 4191   9.907   2.271   9.063
12238DOPC   C3A 4192   9.827   2.281   9.533
12238DOPC   C4A 4193   9.577   2.311   9.923
12238DOPC   C1B 4194   9.817   1.371   9.443
12238DOPC   D2B 4195   9.677   1.811   9.513
12238DOPC   C3B 4196   9.367   1.811   9.863
12238DOPC   C4B 4197   9.117   1.911  10.293
12239DOPC   NC3 4198   5.207   3.251   4.163
12239DOPC   PO4 4199   4.907   3.311   3.903
12239DOPC   GL1 4200   4.617   3.441   4.213
12239DOPC   GL2 4201   4.657   3.731   4.213
12239DOPC   C1A 4202   4.307   3.541   4.463
12239DOPC   D2A 4203   3.897   3.551   4.733
12239DOPC   C3A 4204   3.787   3.591   5.153
12239DOPC   C4A 4205   3.477   3.491   5.493
12239DOPC   C1B 4206   4.847   3.761   4.653
12239DOPC   D2B 4207   4.817   4.151   4.973
12239DOPC   C3B 4208   4.377   4.161   5.193
12239DOPC   C4B 4209   4.017   4.011   5.383
12240DOPC   NC3 4210  21.033   1.081   5.253
12240DOPC   PO4 4211  21.253   1.131   5.583
12240DOPC   GL1 4212  21.123   1.221   6.023
12240DOPC   GL2 4213  21.283   0.951   6.003
12240DOPC   C1A 4214  21.433   1.381   6.323
12240DOPC   D2A 4215  21.583   1.511   6.753
12240DOPC   C3A 4216  21.733   1.421   7.203
12240DOPC   C4A 4217  22.113   1.231   7.483
12240DOPC   C1B 4218  21.553   0.901   6.313
12240DOPC   D2B 4219  21.953   1.081   6.513
12240DOPC   C3B 4220  22.103   1.101   6.983
12240DOPC   C4B 4221  22.273   1.501   7.053
12241DOPC   NC3 4222   3.677   5.121   3.543
12241DOPC   PO4 4223   3.837   5.431   3.723
12241DOPC   GL1 4224   3.887   5.391   4.053
12241DOPC   GL2 4225   4.217   5.381   4.113
12241DOPC   C1A 4226   3.717   5.151   4.433
12241DOPC   D2A 4227   3.697   5.001   4.903
12241DOPC   C3A 4228   3.757   5.251   5.323
12241DOPC   C4A 4229   3.787   5.631   5.723
12241DOPC   C1B 4230   4.537   5.171   4.393
12241DOPC   D2B 4231   4.677   5.111   4.883
12241DOPC   C3B 4232   4.657   5.231   5.353
12241DOPC   C4B 4233   4.567   5.481   5.793
12242DOPC   NC3 4234  12.203   0.501  10.683
12242DOPC   PO4 4235  11.893   0.601  10.453
12242DOPC   GL1 4236  11.523   0.611  10.583
12242DOPC   GL2 4237  11.403   0.421  10.433
12242DOPC   C1A 4238  11.253   0.501  10.943
12242DOPC   D2A 4239  10.793   0.681  11.173
12242DOPC   C3A 4240  10.373   0.411  11.373
12242DOPC   C4A 4241  10.503   7.772  11.453
12242DOPC   C1B 4242  11.053   0.671  10.523
12242DOPC   D2B 4243  10.643   0.791  10.503
12242DOPC   C3B 4244  10.373   0.771  10.963
12242DOPC   C4B 4245  10.037   0.821  11.343
12243DOPC   NC3 4246  22.693   4.071   4.013
12243DOPC   PO4 4247  22.773   3.721   4.053
12243DOPC   GL1 4248  23.043   3.701   4.273
12243DOPC   GL2 4249  22.983   3.861   4.533
12243DOPC   C1A 4250  23.473   3.711   4.373
12243DOPC   D2A 4251  23.823   3.571   4.723
12243DOPC   C3A 4252  24.173   3.811   4.873
12243DOPC   C4A 4253  24.523   3.931   5.243
12243DOPC   C1B 4254  23.313   3.891   4.813
12243DOPC   D2B 4255  23.703   3.911   5.163
12243DOPC   C3B 4256  23.953   3.651   5.483
12243DOPC   C4B 4257  23.983   3.671   5.923
12244DOPC   NC3 4258  19.743   2.691   6.403
12244DOPC   PO4 4259  20.093   2.551   6.373
12244DOPC   GL1 4260  20.443   2.731   6.483
12244DOPC   GL2 4261  20.613   2.491   6.633
12244DOPC   C1A 4262  20.683   3.091   6.543
12244DOPC   D2A 4263  20.973   3.571   6.613
12244DOPC   C3A 4264  21.463   3.631   6.623
12244DOPC   C4A 4265  21.843   3.321   6.613
12244DOPC   C1B 4266  20.683   2.541   7.043
12244DOPC   D2B 4267  20.953   2.561   7.513
12244DOPC   C3B 4268  20.733   2.641   7.913
12244DOPC   C4B 4269  20.913   2.771   8.393
12245DOPC   NC3 4270  16.503   3.951  11.393
12245DOPC   PO4 4271  16.383   4.281  11.593
12245DOPC   GL1 4272  16.693   4.251  11.813
12245DOPC   GL2 4273  16.853   4.081  11.753
12245DOPC   C1A 4274  16.873   4.511  12.183
12245DOPC   D2A 4275  17.063   4.601  12.683
12245DOPC   C3A 4276  16.773   4.471  13.063
12245DOPC   C4A 4277  16.593   4.501  13.523
12245DOPC   C1B 4278  17.043   3.991  12.173
12245DOPC   D2B 4279  17.103   3.711  12.633
12245DOPC   C3B 4280  17.163   3.631  13.133
12245DOPC   C4B 4281  17.423   3.291  13.343
12246DOPC   NC3 4282  24.453   3.961   2.993
12246DOPC   PO4 4283  24.373   3.541   3.113
12246DOPC   GL1 4284  24.373   3.491   3.583
12246DOPC   GL2 4285  24.393   3.821   3.553
12246DOPC   C1A 4286  24.433   3.471   4.033
12246DOPC   D2A 4287  24.643   3.841   4.343
12246DOPC   C3A 4288  24.743   3.901   4.803
12246DOPC   C4A 4289   0.057   3.921   5.253
12246DOPC   C1B 4290  24.583   4.001   3.883
12246DOPC   D2B 4291  24.673   4.361   4.273
12246DOPC   C3B 4292   0.077   4.211   4.513
12246DOPC   C4B 4293   0.287   4.271   4.923
12247DOPC   NC3 4294  13.573   3.481  12.363
12247DOPC   PO4 4295  13.653   3.861  12.313
12247DOPC   GL1 4296  13.463   4.041  12.643
12247DOPC   GL2 4297  13.443   3.781  12.733
12247DOPC   C1A 4298  13.173   4.291  12.883
12247DOPC   D2A 4299  12.833   4.381  13.253
12247DOPC   C3A 4300  12.573   4.771  13.333
12247DOPC   C4A 4301  12.323   5.161  13.333
12247DOPC   C1B 4302  13.683   3.441  12.863
12247DOPC   D2B 4303  14.023   3.341  13.233
12247DOPC   C3B 4304  13.943   3.381  13.703
12247DOPC   C4B 4305  13.633   3.241  14.033
12248DOPC   NC3 4306  14.353   2.721  11.883
12248DOPC   PO4 4307  14.323   3.101  12.043
12248DOPC   GL1 4308  13.923   3.121  12.283
12248DOPC   GL2 4309  13.923   2.801  12.113
12248DOPC   C1A 4310  13.763   2.981  12.673
12248DOPC   D2A 4311  13.723   2.931  13.103
12248DOPC   C3A 4312  13.423   2.781  13.363
12248DOPC   C4A 4313  13.373   2.301  13.493
12248DOPC   C1B 4314  13.853   2.491  12.483
12248DOPC   D2B 4315  13.723   2.391  12.993
12248DOPC   C3B 4316  13.273   2.321  12.953
12248DOPC   C4B 4317  12.943   2.111  12.733
12249DOPC   NC3 4318  11.933   4.221  10.403
12249DOPC   PO4 4319  11.693   4.581  10.313
12249DOPC   GL1 4320  11.393   4.711  10.543
12249DOPC   GL2 4321  11.453   4.531  10.783
12249DOPC   C1A 4322  11.183   4.991  10.853
12249DOPC   D2A 4323  10.943   5.331  11.153
12249DOPC   C3A 4324  10.603   5.391  11.533
12249DOPC   C4A 4325  10.313   5.611  11.903
12249DOPC   C1B 4326  11.023   4.501  10.813
12249DOPC   D2B 4327  10.713   4.891  10.923
12249DOPC   C3B 4328  10.463   4.991  11.333
12249DOPC   C4B 4329  10.423   4.741  11.723
12250DOPC   NC3 4330  19.873   4.321   7.043
12250DOPC   PO4 4331  19.923   4.211   7.423
12250DOPC   GL1 4332  20.283   4.151   7.623
12250DOPC   GL2 4333  20.103   4.041   7.893
12250DOPC   C1A 4334  20.613   4.461   7.693
12250DOPC   D2A 4335  20.903   4.811   7.783
12250DOPC   C3A 4336  21.293   4.821   7.873
12250DOPC   C4A 4337  21.733   4.551   7.923
12250DOPC   C1B 4338  20.313   3.821   8.203
12250DOPC   D2B 4339  20.543   3.551   8.543
12250DOPC   C3B 4340  20.833   3.691   8.873
12250DOPC   C4B 4341  20.933   3.501   9.323
12251DOPC   NC3 4342   0.537   7.292   3.773
12251DOPC   PO4 4343   0.147   7.302   3.713
12251DOPC   GL1 4344   0.027   7.292   4.073
12251DOPC   GL2 4345   0.287   7.292   4.203
12251DOPC   C1A 4346  24.913   6.851   4.253
12251DOPC   D2A 4347  24.813   6.381   4.403
12251DOPC   C3A 4348  24.703   6.561   4.813
12251DOPC   C4A 4349  24.663   6.751   5.213
12251DOPC   C1B 4350   0.267   7.252   4.553
12251DOPC   D2B 4351   0.017   7.061   4.923
12251DOPC   C3B 4352   0.197   6.921   5.273
12251DOPC   C4B 4353   0.237   6.651   5.703
12252DOPC   NC3 4354  19.313   4.251   7.803
12252DOPC   PO4 4355  19.423   4.611   7.983
12252DOPC   GL1 4356  19.763   4.661   8.233
12252DOPC   GL2 4357  19.883   4.781   8.033
12252DOPC   C1A 4358  19.853   4.831   8.633
12252DOPC   D2A 4359  20.023   4.791   9.043
12252DOPC   C3A 4360  20.403   4.931   9.193
12252DOPC   C4A 4361  20.433   5.451   9.133
12252DOPC   C1B 4362  20.283   4.581   8.023
12252DOPC   D2B 4363  20.623   4.221   8.193
12252DOPC   C3B 4364  21.023   4.001   8.403
12252DOPC   C4B 4365  21.333   3.651   8.533
12253DOPC   NC3 4366  15.793   2.271  11.253
12253DOPC   PO4 4367  15.933   2.021  11.533
12253DOPC   GL1 4368  15.993   2.031  11.913
12253DOPC   GL2 4369  16.073   2.331  11.913
12253DOPC   C1A 4370  15.873   2.001  12.363
12253DOPC   D2A 4371  15.883   1.851  12.803
12253DOPC   C3A 4372  15.973   1.741  13.283
12253DOPC   C4A 4373  15.903   1.871  13.803
12253DOPC   C1B 4374  16.323   2.211  12.223
12253DOPC   D2B 4375  16.593   2.231  12.643
12253DOPC   C3B 4376  17.013   2.191  12.713
12253DOPC   C4B 4377  17.553   2.231  12.623
12254DOPC   NC3 4378  21.423   6.681   5.583
12254DOPC   PO4 4379  21.303   6.331   5.653
12254DOPC   GL1 4380  21.303   6.301   6.113
12254DOPC   GL2 4381  21.603   6.091   6.083
12254DOPC   C1A 4382  21.033   6.391   6.433
12254DOPC   D2A 4383  20.833   6.591   6.823
12254DOPC   C3A 4384  20.883   6.931   7.113
12254DOPC   C4A 4385  21.203   7.232   7.383
12254DOPC   C1B 4386  21.973   6.261   5.953
12254DOPC   D2B 4387  22.433   6.321   5.753
12254DOPC   C3B 4388  22.413   6.261   6.243
12254DOPC   C4B 4389  22.343   6.371   6.733
12255DOPC   NC3 4390  18.903   1.591   8.993
12255DOPC   PO4 4391  18.723   1.711   9.353
12255DOPC   GL1 4392  18.953   1.871   9.713
12255DOPC   GL2 4393  18.753   1.601   9.833
12255DOPC   C1A 4394  19.203   2.091  10.053
12255DOPC   D2A 4395  19.443   1.911  10.493
12255DOPC   C3A 4396  19.663   2.201  10.813
12255DOPC   C4A 4397  19.773   2.451  11.223
12255DOPC   C1B 4398  18.903   1.721  10.263
12255DOPC   D2B 4399  19.053   1.661  10.723
12255DOPC   C3B 4400  19.453   1.391  10.763
12255DOPC   C4B 4401  19.913   1.211  10.903
12256DOPC   NC3 4402   4.447   0.361   4.103
12256DOPC   PO4 4403   4.597   0.311   4.443
12256DOPC   GL1 4404   4.627   7.742   4.723
12256DOPC   GL2 4405   4.827   0.121   4.913
12256DOPC   C1A 4406   4.347   0.011   5.063
12256DOPC   D2A 4407   4.287   0.061   5.553
12256DOPC   C3A 4408   4.157   7.592   5.863
12256DOPC   C4A 4409   4.187   7.592   6.363
12256DOPC   C1B 4410   4.687   0.411   5.163
12256DOPC   D2B 4411   4.577   0.701   5.543
12256DOPC   C3B 4412   4.547   0.941   5.953
12256DOPC   C4B 4413   4.957   1.071   6.203
12257DOPC   NC3 4414  14.913   0.011  11.893
12257DOPC   PO4 4415  14.633   7.582  12.083
12257DOPC   GL1 4416  14.613   7.592  12.463
12257DOPC   GL2 4417  14.323   7.462  12.483
12257DOPC   C1A 4418  14.553   0.011  12.893
12257DOPC   D2A 4419  14.553   0.251  13.363
12257DOPC   C3A 4420  14.293   7.762  13.603
12257DOPC   C4A 4421  14.113   7.372  13.843
12257DOPC   C1B 4422  14.253   7.322  12.883
12257DOPC   D2B 4423  14.223   7.172  13.353
12257DOPC   C3B 4424  14.453   7.031  13.573
12257DOPC   C4B 4425  14.463   7.001  14.003
12258DOPA   PO4 4426   8.167   1.421   6.143
12258DOPA   GL1 4427   7.777   1.511   6.193
12258DOPA   GL2 4428   7.827   1.711   6.353
12258DOPA   C1A 4429   7.547   1.331   6.593
12258DOPA   D2A 4430   7.187   1.081   6.863
12258DOPA   C3A 4431   6.917   0.941   7.163
12258DOPA   C4A 4432   6.577   0.591   6.983
12258DOPA   C1B 4433   7.957   1.591   6.743
12258DOPA   D2B 4434   8.017   1.391   7.173
12258DOPA   C3B 4435   7.727   1.651   7.463
12258DOPA   C4B 4436   7.507   1.741   7.873
12259DOPA   PO4 4437   7.487   2.541   5.323
12259DOPA   GL1 4438   7.227   2.331   5.553
12259DOPA   GL2 4439   7.327   2.101   5.663
12259DOPA   C1A 4440   6.977   2.411   5.913
12259DOPA   D2A 4441   6.567   2.391   6.143
12259DOPA   C3A 4442   6.397   2.231   6.493
12259DOPA   C4A 4443   6.017   2.241   6.803
12259DOPA   C1B 4444   7.087   1.871   5.923
12259DOPA   D2B 4445   6.797   2.021   6.303
12259DOPA   C3B 4446   6.557   1.751   6.573
12259DOPA   C4B 4447   6.247   1.621   6.963
12260DOPA   PO4 4448  22.993   6.371   4.373
12260DOPA   GL1 4449  23.383   6.401   4.493
12260DOPA   GL2 4450  23.343   6.191   4.773
12260DOPA   C1A 4451  23.463   6.851   4.623
12260DOPA   D2A 4452  23.643   7.091   5.053
12260DOPA   C3A 4453  23.773   7.322   5.423
12260DOPA   C4A 4454  23.863   7.742   5.623
12260DOPA   C1B 4455  23.643   5.931   4.663
12260DOPA   D2B 4456  23.693   5.521   4.403
12260DOPA   C3B 4457  24.003   5.111   4.403
12260DOPA   C4B 4458  24.333   4.711   4.413
12261DOPA   PO4 4459  16.863   4.981  11.213
12261DOPA   GL1 4460  17.213   4.911  11.413
12261DOPA   GL2 4461  17.113   4.791  11.643
12261DOPA   C1A 4462  17.563   5.231  11.443
12261DOPA   D2A 4463  18.023   5.341  11.503
12261DOPA   C3A 4464  18.483   5.311  11.633
12261DOPA   C4A 4465  18.993   5.131  11.703
12261DOPA   C1B 4466  17.023   4.951  11.993
12261DOPA   D2B 4467  16.913   5.021  12.453
12261DOPA   C3B 4468  17.053   5.501  12.603
12261DOPA   C4B 4469  17.123   5.911  12.843
12262DOPA   PO4 4470   8.207   4.511   6.283
12262DOPA   GL1 4471   7.947   4.701   6.543
12262DOPA   GL2 4472   8.027   4.671   6.773
12262DOPA   C1A 4473   7.477   4.751   6.563
12262DOPA   D2A 4474   7.047   4.811   6.833
12262DOPA   C3A 4475   7.127   5.161   7.133
12262DOPA   C4A 4476   6.997   5.371   7.533
12262DOPA   C1B 4477   7.687   4.561   7.013
12262DOPA   D2B 4478   7.287   4.691   7.243
12262DOPA   C3B 4479   6.827   4.771   7.243
12262DOPA   C4B 4480   6.547   5.101   7.013
12263DOPA   PO4 4481  18.003   1.661  10.253
12263DOPA   GL1 4482  18.223   1.551  10.623
12263DOPA   GL2 4483  18.233   1.871  10.643
12263DOPA   C1A 4484  18.603   1.351  10.643
12263DOPA   D2A 4485  19.053   1.181  10.553
12263DOPA   C3A 4486  19.303   1.471  10.293
12263DOPA   C4A 4487  19.603   1.651   9.983
12263DOPA   C1B 4488  18.143   2.101  11.033
12263DOPA   D2B 4489  18.543   2.111  11.363
12263DOPA   C3B 4490  18.953   1.981  11.563
12263DOPA   C4B 4491  19.393   1.781  11.653
12264DOPA   PO4 4492  12.793   3.741  11.533
12264DOPA   GL1 4493  12.643   3.791  11.903
12264DOPA   GL2 4494  12.543   3.561  11.783
12264DOPA   C1A 4495  12.523   3.701  12.253
12264DOPA   D2A 4496  12.443   3.561  12.673
12264DOPA   C3A 4497  12.163   3.471  13.043
12264DOPA   C4A 4498  11.893   3.251  13.363
12264DOPA   C1B 4499  12.193   3.431  12.093
12264DOPA   D2B 4500  11.973   3.681  12.523
12264DOPA   C3B 4501  11.713   3.661  12.833
12264DOPA   C4B 4502  11.353   3.691  13.233
12265DOPA   PO4 4503  17.193   4.581  11.023
12265DOPA   GL1 4504  17.603   4.701  11.303
12265DOPA   GL2 4505  17.713   4.491  11.163
12265DOPA   C1A 4506  17.573   4.801  11.693
12265DOPA   D2A 4507  17.793   5.011  12.073
12265DOPA   C3A 4508  18.193   4.951  12.193
12265DOPA   C4A 4509  18.623   4.891  12.443
12265DOPA   C1B 4510  18.053   4.361  11.333
12265DOPA   D2B 4511  18.493   4.151  11.563
12265DOPA   C3B 4512  18.863   4.361  11.723
12265DOPA   C4B 4513  19.203   4.681  11.753
12266DOPA   PO4 4514  23.273   0.751   4.513
12266DOPA   GL1 4515  23.443   0.441   4.713
12266DOPA   GL2 4516  23.213   0.291   4.683
12266DOPA   C1A 4517  23.833   0.331   4.903
12266DOPA   D2A 4518  24.343   0.231   4.983
12266DOPA   C3A 4519  24.543   0.291   5.363
12266DOPA   C4A 4520  24.693   0.421   5.853
12266DOPA   C1B 4521  23.053   0.101   5.003
12266DOPA   D2B 4522  23.013   7.602   5.413
12266DOPA   C3B 4523  23.373   7.492   5.673
12266DOPA   C4B 4524  23.703   7.352   5.983
12267DOPA   PO4 4525   3.717   3.501   3.693
12267DOPA   GL1 4526   3.847   3.581   4.103
12267DOPA   GL2 4527   3.607   3.501   4.253
12267DOPA   C1A 4528   3.837   4.011   4.333
12267DOPA   D2A 4529   3.837   4.041   4.823
12267DOPA   C3A 4530   3.607   4.181   5.253
12267DOPA   C4A 4531   3.467   4.391   5.603
12267DOPA   C1B 4532   3.557   3.131   4.443
12267DOPA   D2B 4533   3.427   2.741   4.703
12267DOPA   C3B 4534   2.987   2.711   4.803
12267DOPA   C4B 4535   2.517   2.711   4.863
12268DOPA   PO4 4536  12.853   5.161  11.153
12268DOPA   GL1 4537  12.593   5.311  11.263
12268DOPA   GL2 4538  12.683   5.551  11.303
12268DOPA   C1A 4539  12.323   5.191  11.523
12268DOPA   D2A 4540  11.943   4.941  11.733
12268DOPA   C3A 4541  11.443   4.891  11.713
12268DOPA   C4A 4542  11.053   4.971  11.513
12268DOPA   C1B 4543  12.363   5.741  11.133
12268DOPA   D2B 4544  11.953   5.971  11.203
12268DOPA   C3B 4545  11.573   5.821  11.453
12268DOPA   C4B 4546  11.223   5.461  11.553
12269DOPA   PO4 4547   6.697   4.111   5.153
12269DOPA   GL1 4548   6.407   3.921   5.383
12269DOPA   GL2 4549   6.237   4.001   5.293
12269DOPA   C1A 4550   6.537   3.771   5.813
12269DOPA   D2A 4551   6.607   3.551   6.213
12269DOPA   C3A 4552   6.247   3.691   6.443
12269DOPA   C4A 4553   6.057   3.971   6.853
12269DOPA   C1B 4554   5.987   3.861   5.603
12269DOPA   D2B 4555   5.707   3.451   5.733
12269DOPA   C3B 4556   5.897   3.091   5.903
12269DOPA   C4B 4557   6.127   2.761   6.093
12270DOPA   PO4 4558   4.747   6.881   3.873
12270DOPA   GL1 4559   4.577   6.731   4.233
12270DOPA   GL2 4560   4.367   6.521   4.143
12270DOPA   C1A 4561   4.747   6.461   4.583
12270DOPA   D2A 4562   4.847   6.351   5.083
12270DOPA   C3A 4563   4.437   6.121   5.203
12270DOPA   C4A 4564   3.957   6.121   5.303
12270DOPA   C1B 4565   4.227   6.571   4.553
12270DOPA   D2B 4566   4.107   6.491   5.033
12270DOPA   C3B 4567   3.917   6.591   5.453
12270DOPA   C4B 4568   3.857   6.531   5.943
12271DOPA   PO4 4569  17.713   6.721  10.053
12271DOPA   GL1 4570  17.983   6.731  10.223
12271DOPA   GL2 4571  17.893   6.661  10.513
12271DOPA   C1A 4572  18.383   6.761  10.323
12271DOPA   D2A 4573  18.453   7.121  10.673
12271DOPA   C3A 4574  18.713   7.202  11.083
12271DOPA   C4A 4575  19.063   7.272  11.403
12271DOPA   C1B 4576  18.143   6.761  10.873
12271DOPA   D2B 4577  18.233   7.111  11.223
12271DOPA   C3B 4578  18.133   7.292  11.663
12271DOPA   C4B 4579  18.243   7.282  12.143
12272DOPA   PO4 4580   4.857   7.422   4.513
12272DOPA   GL1 4581   4.667   7.342   4.933
12272DOPA   GL2 4582   5.007   7.202   4.963
12272DOPA   C1A 4583   4.807   7.522   5.273
12272DOPA   D2A 4584   4.757   7.752   5.663
12272DOPA   C3A 4585   4.607   7.392   5.923
12272DOPA   C4A 4586   4.577   7.151   6.303
12272DOPA   C1B 4587   4.987   6.971   5.313
12272DOPA   D2B 4588   4.867   6.521   5.623
12272DOPA   C3B 4589   4.787   6.071   5.543
12272DOPA   C4B 4590   4.807   5.771   5.203
12273DOPA   PO4 4591   2.277   5.111   3.363
12273DOPA   GL1 4592   2.167   5.121   3.763
12273DOPA   GL2 4593   2.487   5.131   3.853
12273DOPA   C1A 4594   1.957   4.921   4.073
12273DOPA   D2A 4595   1.797   4.851   4.503
12273DOPA   C3A 4596   1.707   5.091   4.863
12273DOPA   C4A 4597   1.537   5.181   5.303
12273DOPA   C1B 4598   2.467   4.981   4.223
12273DOPA   D2B 4599   2.297   4.871   4.653
12273DOPA   C3B 4600   2.167   4.841   5.083
12273DOPA   C4B 4601   1.867   4.771   5.503
12274DOPA   PO4 4602   1.067   5.301   3.193
12274DOPA   GL1 4603   1.147   5.551   3.473
12274DOPA   GL2 4604   0.927   5.661   3.513
12274DOPA   C1A 4605   1.387   5.511   3.853
12274DOPA   D2A 4606   1.617   5.331   4.283
12274DOPA   C3A 4607   1.657   5.541   4.693
12274DOPA   C4A 4608   1.647   5.641   5.173
12274DOPA   C1B 4609   0.867   5.711   3.943
12274DOPA   D2B 4610   0.777   5.721   4.423
12274DOPA   C3B 4611   0.637   5.491   4.763
12274DOPA   C4B 4612   0.487   5.251   5.233
12275DOPA   PO4 4613  19.653   6.781   7.873
12275DOPA   GL1 4614  19.963   6.901   8.073
12275DOPA   GL2 4615  20.243   6.851   7.913
12275DOPA   C1A 4616  19.943   7.021   8.443
12275DOPA   D2A 4617  19.993   7.131   8.923
12275DOPA   C3A 4618  20.313   6.961   9.283
12275DOPA   C4A 4619  20.393   6.881   9.733
12275DOPA   C1B 4620  20.513   6.571   8.083
12275DOPA   D2B 4621  20.803   6.341   8.443
12275DOPA   C3B 4622  21.083   6.631   8.633
12275DOPA   C4B 4623  21.163   7.031   8.893
12276DOPA   PO4 4624   0.857   3.051   3.363
12276DOPA   GL1 4625   0.687   3.201   3.703
12276DOPA   GL2 4626   0.457   3.261   3.593
12276DOPA   C1A 4627   0.707   3.211   4.143
12276DOPA   D2A 4628   0.737   3.441   4.603
12276DOPA   C3A 4629   0.877   3.461   5.003
12276DOPA   C4A 4630   0.887   3.401   5.443
12276DOPA   C1B 4631   0.227   3.301   3.983
12276DOPA   D2B 4632  24.813   3.361   4.303
12276DOPA   C3B 4633  24.913   3.441   4.743
12276DOPA   C4B 4634   0.017   3.451   5.193
12277DOPA   PO4 4635   8.637   2.531   6.633
12277DOPA   GL1 4636   8.487   2.491   7.033
12277DOPA   GL2 4637   8.217   2.671   6.993
12277DOPA   C1A 4638   8.607   2.251   7.363
12277DOPA   D2A 4639   8.347   2.101   7.793
12277DOPA   C3A 4640   8.037   1.821   8.073
12277DOPA   C4A 4641   7.767   1.461   8.203
12277DOPA   C1B 4642   8.207   2.611   7.423
12277DOPA   D2B 4643   7.887   2.601   7.823
12277DOPA   C3B 4644   7.987   3.011   7.973
12277DOPA   C4B 4645   8.287   3.381   8.123
12278DOPA   PO4 4646   8.537   6.121   6.533
12278DOPA   GL1 4647   8.057   6.241   6.453
12278DOPA   GL2 4648   8.077   6.001   6.573
12278DOPA   C1A 4649   7.737   6.571   6.583
12278DOPA   D2A 4650   7.577   6.491   6.983
12278DOPA   C3A 4651   7.247   6.341   7.253
12278DOPA   C4A 4652   7.107   6.181   7.733
12278DOPA   C1B 4653   8.047   6.191   6.973
12278DOPA   D2B 4654   8.097   6.401   7.443
12278DOPA   C3B 4655   7.797   6.261   7.733
12278DOPA   C4B 4656   7.587   6.051   8.103
12279DOPA   PO4 4657   1.157   0.291   3.713
12279DOPA   GL1 4658   1.277   0.181   4.173
12279DOPA   GL2 4659   1.237   7.692   4.073
12279DOPA   C1A 4660   1.137   0.321   4.583
12279DOPA   D2A 4661   1.017   0.241   5.033
12279DOPA   C3A 4662   0.747   7.672   5.123
12279DOPA   C4A 4663   0.357   7.422   5.363
12279DOPA   C1B 4664   1.107   7.552   4.443
12279DOPA   D2B 4665   1.197   7.202   4.823
12279DOPA   C3B 4666   1.317   6.711   4.913
12279DOPA   C4B 4667   1.127   6.291   5.153
12280DOPA   PO4 4668   2.117   1.741   3.503
12280DOPA   GL1 4669   2.237   1.541   3.773
12280DOPA   GL2 4670   2.227   1.261   3.883
12280DOPA   C1A 4671   2.147   1.611   4.223
12280DOPA   D2A 4672   1.847   1.511   4.623
12280DOPA   C3A 4673   1.487   1.561   5.023
12280DOPA   C4A 4674   1.127   1.591   5.333
12280DOPA   C1B 4675   2.507   1.191   4.263
12280DOPA   D2B 4676   2.827   0.901   4.443
12280DOPA   C3B 4677   2.837   0.991   4.853
12280DOPA   C4B 4678   2.847   0.951   5.343
12281DOPA   PO4 4679  10.633   0.931   9.113
12281DOPA   GL1 4680  10.453   0.771   9.463
12281DOPA   GL2 4681  10.333   0.571   9.343
12281DOPA   C1A 4682  10.483   0.661   9.893
12281DOPA   D2A 4683  10.353   0.451  10.313
12281DOPA   C3A 4684   9.897   0.421  10.393
12281DOPA   C4A 4685   9.447   0.381  10.343
12281DOPA   C1B 4686  10.017   0.491   9.563
12281DOPA   D2B 4687   9.607   0.521   9.943
12281DOPA   C3B 4688   9.227   0.731   9.873
12281DOPA   C4B 4689   8.857   1.041   9.813
12282DOPA   PO4 4690  23.483   4.671   3.813
12282DOPA   GL1 4691  23.323   4.521   4.183
12282DOPA   GL2 4692  23.463   4.671   4.333
12282DOPA   C1A 4693  23.503   4.231   4.403
12282DOPA   D2A 4694  23.863   4.191   4.763
12282DOPA   C3A 4695  24.083   4.291   5.153
12282DOPA   C4A 4696  24.303   4.241   5.593
12282DOPA   C1B 4697  23.453   4.951   4.573
12282DOPA   D2B 4698  23.753   5.261   4.843
12282DOPA   C3B 4699  24.213   5.251   5.003
12282DOPA   C4B 4700  24.553   4.961   4.923
24165DOPC   NC3 4701  13.843   6.461  16.143
24165DOPC   PO4 4702  14.173   6.721  16.163
24165DOPC   GL1 4703  14.133   6.861  15.743
24165DOPC   GL2 4704  13.993   6.551  15.723
24165DOPC   C1A 4705  14.253   6.841  15.363
24165DOPC   D2A 4706  14.303   6.891  14.883
24165DOPC   C3A 4707  14.193   7.091  14.493
24165DOPC   C4A 4708  13.793   7.302  14.233
24165DOPC   C1B 4709  13.963   6.351  15.383
24165DOPC   D2B 4710  13.953   6.101  14.973
24165DOPC   C3B 4711  13.643   6.211  14.653
24165DOPC   C4B 4712  13.203   6.381  14.623
24166DOPC   NC3 4713   9.087   7.081  13.233
24166DOPC   PO4 4714   9.087   6.691  13.323
24166DOPC   GL1 4715   9.217   6.441  13.023
24166DOPC   GL2 4716   9.197   6.221  13.103
24166DOPC   C1A 4717   9.527   6.511  12.653
24166DOPC   D2A 4718   9.887   6.301  12.373
24166DOPC   C3A 4719  10.293   6.151  12.133
24166DOPC   C4A 4720  10.803   6.241  11.973
24166DOPC   C1B 4721   9.607   6.061  12.943
24166DOPC   D2B 4722  10.017   5.941  12.733
24166DOPC   C3B 4723  10.393   5.741  12.523
24166DOPC   C4B 4724  10.713   5.571  12.143
24167DOPC   NC3 4725  11.313   3.851  14.983
24167DOPC   PO4 4726  11.073   4.011  15.303
24167DOPC   GL1 4727  11.093   4.371  15.033
24167DOPC   GL2 4728  11.393   4.401  15.133
24167DOPC   C1A 4729  11.183   4.251  14.603
24167DOPC   D2A 4730  11.553   4.271  14.373
24167DOPC   C3A 4731  11.903   4.491  14.123
24167DOPC   C4A 4732  12.103   4.611  13.673
24167DOPC   C1B 4733  11.663   4.201  14.863
24167DOPC   D2B 4734  11.703   3.811  14.593
24167DOPC   C3B 4735  11.983   3.511  14.493
24167DOPC   C4B 4736  11.983   3.101  14.383
24168DOPC   NC3 4737  13.583   7.282  16.273
24168DOPC   PO4 4738  13.673   7.502  15.933
24168DOPC   GL1 4739  13.623   7.272  15.573
24168DOPC   GL2 4740  13.913   7.212  15.573
24168DOPC   C1A 4741  13.413   7.071  15.193
24168DOPC   D2A 4742  13.463   6.791  14.773
24168DOPC   C3A 4743  13.303   6.851  14.393
24168DOPC   C4A 4744  13.383   6.951  13.853
24168DOPC   C1B 4745  14.083   7.272  15.193
24168DOPC   D2B 4746  14.463   7.332  14.943
24168DOPC   C3B 4747  14.543   7.762  14.773
24168DOPC   C4B 4748  14.743   0.331  14.473
24169DOPC   NC3 4749  23.143   2.341   9.113
24169DOPC   PO4 4750  22.933   2.041   9.273
24169DOPC   GL1 4751  22.573   1.901   9.183
24169DOPC   GL2 4752  22.663   1.901   8.893
24169DOPC   C1A 4753  22.133   1.881   9.073
24169DOPC   D2A 4754  21.673   1.911   8.873
24169DOPC   C3A 4755  21.233   1.971   8.913
24169DOPC   C4A 4756  20.943   1.831   8.523
24169DOPC   C1B 4757  22.423   1.551   8.763
24169DOPC   D2B 4758  22.183   1.161   8.733
24169DOPC   C3B 4759  21.843   0.901   8.673
24169DOPC   C4B 4760  21.693   0.441   8.593
24170DOPC   NC3 4761   5.977   5.561   9.423
24170DOPC   PO4 4762   5.967   5.871   9.743
24170DOPC   GL1 4763   6.247   5.911   9.473
24170DOPC   GL2 4764   6.047   6.111   9.333
24170DOPC   C1A 4765   6.607   5.821   9.133
24170DOPC   D2A 4766   6.877   5.671   8.773
24170DOPC   C3A 4767   6.807   5.581   8.393
24170DOPC   C4A 4768   6.687   5.561   7.913
24170DOPC   C1B 4769   6.007   5.941   8.943
24170DOPC   D2B 4770   5.937   5.691   8.563
24170DOPC   C3B 4771   6.247   5.591   8.183
24170DOPC   C4B 4772   6.527   5.201   8.153
24171DOPC   NC3 4773  22.503   1.611  11.393
24171DOPC   PO4 4774  22.453   1.621  10.973
24171DOPC   GL1 4775  22.143   1.531  10.683
24171DOPC   GL2 4776  22.123   1.271  10.683
24171DOPC   C1A 4777  21.873   1.691  10.393
24171DOPC   D2A 4778  21.503   1.741  10.163
24171DOPC   C3A 4779  21.103   2.001  10.113
24171DOPC   C4A 4780  20.693   2.271  10.163
24171DOPC   C1B 4781  21.813   1.091  10.563
24171DOPC   D2B 4782  21.673   1.221  10.153
24171DOPC   C3B 4783  21.223   1.151  10.193
24171DOPC   C4B 4784  20.783   1.011   9.993
24172DOPC   NC3 4785  23.203   6.721  10.633
24172DOPC   PO4 4786  23.283   6.481  10.343
24172DOPC   GL1 4787  23.003   6.451   9.873
24172DOPC   GL2 4788  22.773   6.361  10.033
24172DOPC   C1A 4789  22.843   6.331   9.483
24172DOPC   D2A 4790  22.703   6.511   9.003
24172DOPC   C3A 4791  22.363   6.571   8.783
24172DOPC   C4A 4792  21.923   6.651   8.453
24172DOPC   C1B 4793  22.363   6.431  10.003
24172DOPC   D2B 4794  21.873   6.271   9.803
24172DOPC   C3B 4795  21.613   6.271   9.293
24172DOPC   C4B 4796  21.133   6.301   9.123
24173DOPC   NC3 4797   4.887   2.071   8.983
24173DOPC   PO4 4798   4.657   2.311   8.753
24173DOPC   GL1 4799   4.927   2.271   8.403
24173DOPC   GL2 4800   5.037   1.991   8.543
24173DOPC   C1A 4801   5.067   2.021   8.033
24173DOPC   D2A 4802   5.227   1.891   7.573
24173DOPC   C3A 4803   5.397   1.561   7.503
24173DOPC   C4A 4804   5.797   1.391   7.183
24173DOPC   C1B 4805   5.437   2.001   8.373
24173DOPC   D2B 4806   5.887   2.191   8.233
24173DOPC   C3B 4807   6.227   2.461   8.103
24173DOPC   C4B 4808   6.647   2.211   7.993
24174DOPC   NC3 4809  18.023   3.521  14.823
24174DOPC   PO4 4810  18.353   3.491  14.583
24174DOPC   GL1 4811  18.163   3.111  14.573
24174DOPC   GL2 4812  17.813   3.221  14.523
24174DOPC   C1A 4813  18.163   2.661  14.373
24174DOPC   D2A 4814  18.073   2.281  14.093
24174DOPC   C3A 4815  18.223   2.241  13.653
24174DOPC   C4A 4816  18.603   2.451  13.353
24174DOPC   C1B 4817  17.743   2.871  14.253
24174DOPC   D2B 4818  17.873   2.701  13.833
24174DOPC   C3B 4819  17.603   2.501  13.543
24174DOPC   C4B 4820  17.403   2.331  13.053
24175DOPC   NC3 4821   3.777   5.211   7.683
24175DOPC   PO4 4822   3.807   4.841   7.563
24175DOPC   GL1 4823   3.887   4.751   7.253
24175DOPC   GL2 4824   4.137   4.691   7.263
24175DOPC   C1A 4825   3.957   4.861   6.843
24175DOPC   D2A 4826   4.307   4.731   6.533
24175DOPC   C3A 4827   4.797   4.771   6.403
24175DOPC   C4A 4828   5.157   4.771   6.133
24175DOPC   C1B 4829   4.487   4.791   7.013
24175DOPC   D2B 4830   4.937   4.911   6.893
24175DOPC   C3B 4831   5.167   5.131   6.613
24175DOPC   C4B 4832   4.987   5.301   6.163
24176DOPC   NC3 4833  19.923   1.931  13.683
24176DOPC   PO4 4834  19.743   2.021  13.983
24176DOPC   GL1 4835  19.493   2.191  13.733
24176DOPC   GL2 4836  19.583   2.211  13.473
24176DOPC   C1A 4837  19.233   1.841  13.643
24176DOPC   D2A 4838  19.113   1.401  13.873
24176DOPC   C3A 4839  19.023   1.081  13.683
24176DOPC   C4A 4840  18.813   0.691  13.503
24176DOPC   C1B 4841  19.253   2.121  13.173
24176DOPC   D2B 4842  19.083   1.691  13.043
24176DOPC   C3B 4843  18.623   1.561  13.013
24176DOPC   C4B 4844  18.103   1.541  13.073
24177DOPC   NC3 4845  10.823   5.801  14.673
24177DOPC   PO4 4846  10.913   6.141  14.743
24177DOPC   GL1 4847  11.203   6.051  14.493
24177DOPC   GL2 4848  11.403   6.031  14.703
24177DOPC   C1A 4849  11.343   6.101  14.113
24177DOPC   D2A 4850  11.403   6.131  13.563
24177DOPC   C3A 4851  11.523   5.921  13.193
24177DOPC   C4A 4852  11.753   5.771  12.823
24177DOPC   C1B 4853  11.783   6.151  14.553
24177DOPC   D2B 4854  12.263   6.071  14.423
24177DOPC   C3B 4855  12.663   5.871  14.263
24177DOPC   C4B 4856  13.063   5.701  14.083
24178DOPC   NC3 4857   2.017   3.071   7.803
24178DOPC   PO4 4858   2.297   3.231   7.603
24178DOPC   GL1 4859   2.357   2.971   7.243
24178DOPC   GL2 4860   2.677   3.021   7.273
24178DOPC   C1A 4861   2.167   3.071   6.893
24178DOPC   D2A 4862   2.227   3.111   6.413
24178DOPC   C3A 4863   2.557   2.761   6.313
24178DOPC   C4A 4864   2.837   2.471   6.003
24178DOPC   C1B 4865   2.857   3.301   6.983
24178DOPC   D2B 4866   3.067   3.681   6.763
24178DOPC   C3B 4867   3.367   3.591   6.413
24178DOPC   C4B 4868   3.627   3.491   6.033
24179DOPC   NC3 4869  18.333   7.602  15.383
24179DOPC   PO4 4870  18.303   0.171  15.323
24179DOPC   GL1 4871  18.133   0.161  14.893
24179DOPC   GL2 4872  18.053   7.682  14.973
24179DOPC   C1A 4873  18.073   0.411  14.543
24179DOPC   D2A 4874  17.773   0.381  14.153
24179DOPC   C3A 4875  17.643   0.191  13.773
24179DOPC   C4A 4876  17.453   0.041  13.393
24179DOPC   C1B 4877  17.683   7.472  14.823
24179DOPC   D2B 4878  17.223   7.462  14.583
24179DOPC   C3B 4879  17.203   0.091  14.293
24179DOPC   C4B 4880  16.943   0.441  14.103
24180DOPC   NC3 4881  16.773   4.281  15.173
24180DOPC   PO4 4882  16.383   4.401  15.123
24180DOPC   GL1 4883  16.233   4.651  14.773
24180DOPC   GL2 4884  16.273   4.361  14.663
24180DOPC   C1A 4885  16.113   4.861  14.403
24180DOPC   D2A 4886  15.953   5.101  14.003
24180DOPC   C3A 4887  15.663   5.421  14.083
24180DOPC   C4A 4888  15.263   5.641  14.273
24180DOPC   C1B 4889  16.223   3.961  14.613
24180DOPC   D2B 4890  16.303   3.651  14.203
24180DOPC   C3B 4891  15.973   3.491  13.933
24180DOPC   C4B 4892  15.783   3.171  13.563
24181DOPC   NC3 4893  24.773   3.561   7.533
24181DOPC   PO4 4894  24.383   3.471   7.673
24181DOPC   GL1 4895  24.113   3.311   7.313
24181DOPC   GL2 4896  24.013   3.601   7.473
24181DOPC   C1A 4897  24.103   3.281   6.843
24181DOPC   D2A 4898  24.163   3.291   6.353
24181DOPC   C3A 4899  24.363   3.381   6.003
24181DOPC   C4A 4900  24.433   3.761   5.693
24181DOPC   C1B 4901  23.973   3.741   7.083
24181DOPC   D2B 4902  24.043   3.861   6.613
24181DOPC   C3B 4903  23.773   4.281   6.493
24181DOPC   C4B 4904  23.573   4.761   6.533
24182DOPC   NC3 4905   7.917   2.581  12.803
24182DOPC   PO4 4906   8.317   2.521  12.753
24182DOPC   GL1 4907   8.507   2.901  12.503
24182DOPC   GL2 4908   8.807   2.751  12.513
24182DOPC   C1A 4909   8.507   3.001  12.113
24182DOPC   D2A 4910   8.777   2.841  11.803
24182DOPC   C3A 4911   8.617   2.381  11.793
24182DOPC   C4A 4912   8.537   1.881  11.853
24182DOPC   C1B 4913   9.167   2.881  12.293
24182DOPC   D2B 4914   9.617   2.751  12.123
24182DOPC   C3B 4915   9.957   2.431  12.233
24182DOPC   C4B 4916  10.253   2.051  12.413
24183DOPC   NC3 4917   2.047   4.501   7.873
24183DOPC   PO4 4918   1.867   4.591   7.513
24183DOPC   GL1 4919   1.907   4.421   7.113
24183DOPC   GL2 4920   2.187   4.451   7.033
24183DOPC   C1A 4921   1.677   4.461   6.763
24183DOPC   D2A 4922   1.407   4.331   6.343
24183DOPC   C3A 4923   1.417   4.591   5.913
24183DOPC   C4A 4924   1.287   4.891   5.583
24183DOPC   C1B 4925   2.087   4.701   6.683
24183DOPC   D2B 4926   2.337   4.761   6.263
24183DOPC   C3B 4927   2.617   4.661   5.903
24183DOPC   C4B 4928   2.767   4.251   5.653
24184DOPC   NC3 4929  20.003   1.171  14.113
24184DOPC   PO4 4930  20.103   1.401  13.813
24184DOPC   GL1 4931  19.883   1.531  13.403
24184DOPC   GL2 4932  19.653   1.561  13.593
24184DOPC   C1A 4933  19.873   1.311  13.043
24184DOPC   D2A 4934  19.803   1.301  12.543
24184DOPC   C3A 4935  19.613   1.561  12.203
24184DOPC   C4A 4936  19.183   1.761  12.113
24184DOPC   C1B 4937  19.323   1.371  13.353
24184DOPC   D2B 4938  18.963   1.161  13.073
24184DOPC   C3B 4939  18.883   1.261  12.633
24184DOPC   C4B 4940  18.883   1.721  12.513
24185DOPC   NC3 4941  19.073   6.691  14.523
24185DOPC   PO4 4942  19.133   6.391  14.303
24185DOPC   GL1 4943  18.783   6.451  14.043
24185DOPC   GL2 4944  18.943   6.301  13.783
24185DOPC   C1A 4945  18.393   6.651  13.873
24185DOPC   D2A 4946  18.163   7.021  13.653
24185DOPC   C3A 4947  18.133   7.011  13.223
24185DOPC   C4A 4948  18.083   7.101  12.653
24185DOPC   C1B 4949  18.983   6.521  13.373
24185DOPC   D2B 4950  18.953   6.901  13.103
24185DOPC   C3B 4951  18.983   7.061  12.693
24185DOPC   C4B 4952  18.703   7.121  12.263
24186DOPC   NC3 4953  10.383   5.471  14.133
24186DOPC   PO4 4954  10.177   5.171  14.243
24186DOPC   GL1 4955  10.333   4.881  13.963
24186DOPC   GL2 4956  10.373   5.091  13.833
24186DOPC   C1A 4957  10.463   4.731  13.523
24186DOPC   D2A 4958  10.533   4.751  12.993
24186DOPC   C3A 4959  10.823   4.851  12.633
24186DOPC   C4A 4960  11.273   4.851  12.443
24186DOPC   C1B 4961  10.743   5.321  13.733
24186DOPC   D2B 4962  11.163   5.641  13.633
24186DOPC   C3B 4963  11.433   5.431  13.353
24186DOPC   C4B 4964  11.933   5.501  13.203
24187DOPC   NC3 4965  13.143   5.671  16.233
24187DOPC   PO4 4966  13.483   5.851  16.293
24187DOPC   GL1 4967  13.663   6.071  15.923
24187DOPC   GL2 4968  13.443   5.991  15.733
24187DOPC   C1A 4969  14.023   5.991  15.793
24187DOPC   D2A 4970  14.263   5.921  15.353
24187DOPC   C3A 4971  14.403   5.771  14.903
24187DOPC   C4A 4972  14.563   5.881  14.413
24187DOPC   C1B 4973  13.723   5.861  15.413
24187DOPC   D2B 4974  13.963   5.551  15.113
24187DOPC   C3B 4975  13.923   5.761  14.623
24187DOPC   C4B 4976  13.903   5.821  14.163
24188DOPC   NC3 4977  24.723   1.451   7.863
24188DOPC   PO4 4978  24.493   1.761   7.963
24188DOPC   GL1 4979  24.283   1.771   7.553
24188DOPC   GL2 4980  23.983   1.731   7.763
24188DOPC   C1A 4981  24.263   1.961   7.223
24188DOPC   D2A 4982  24.153   2.021   6.753
24188DOPC   C3A 4983  24.153   2.061   6.303
24188DOPC   C4A 4984  23.973   2.191   5.863
24188DOPC   C1B 4985  23.563   1.691   7.463
24188DOPC   D2B 4986  23.323   1.441   7.023
24188DOPC   C3B 4987  23.203   1.581   6.583
24188DOPC   C4B 4988  23.413   1.691   6.073
24189DOPC   NC3 4989   8.517   2.921  12.983
24189DOPC   PO4 4990   8.737   3.141  13.193
24189DOPC   GL1 4991   9.087   3.251  13.113
24189DOPC   GL2 4992   9.317   3.381  13.223
24189DOPC   C1A 4993   9.307   2.941  12.903
24189DOPC   D2A 4994   9.627   2.761  12.643
24189DOPC   C3A 4995   9.967   2.971  12.463
24189DOPC   C4A 4996  10.037   3.211  12.033
24189DOPC   C1B 4997   9.407   3.471  12.843
24189DOPC   D2B 4998   9.407   3.831  12.673
24189DOPC   C3B 4999   9.577   4.101  12.443
24189DOPC   C4B 5000   9.847   4.111  11.963
24190DOPC   NC3 5001  11.963   1.331  15.453
24190DOPC   PO4 5002  11.643   1.621  15.443
24190DOPC   GL1 5003  11.963   1.751  15.233
24190DOPC   GL2 5004  11.723   1.691  14.973
24190DOPC   C1A 5005  12.303   1.711  15.053
24190DOPC   D2A 5006  12.593   1.611  14.703
24190DOPC   C3A 5007  12.663   1.351  14.293
24190DOPC   C4A 5008  12.763   1.151  13.913
24190DOPC   C1B 5009  11.943   1.661  14.663
24190DOPC   D2B 5010  12.153   1.751  14.163
24190DOPC   C3B 5011  12.073   1.781  13.733
24190DOPC   C4B 5012  12.053   1.661  13.263
24191DOPC   NC3 5013  15.503   7.111  15.823
24191DOPC   PO4 5014  15.393   7.462  15.683
24191DOPC   GL1 5015  15.413   7.612  15.343
24191DOPC   GL2 5016  15.633   0.031  15.323
24191DOPC   C1A 5017  15.393   7.462  14.953
24191DOPC   D2A 5018  15.193   7.161  14.603
24191DOPC   C3A 5019  15.203   7.141  14.153
24191DOPC   C4A 5020  15.333   7.141  13.673
24191DOPC   C1B 5021  15.863   7.682  15.003
24191DOPC   D2B 5022  16.093   7.452  14.623
24191DOPC   C3B 5023  16.343   7.682  14.383
24191DOPC   C4B 5024  16.643   0.051  14.013
24192DOPC   NC3 5025   3.047   3.151   7.483
24192DOPC   PO4 5026   3.327   3.321   7.733
24192DOPC   GL1 5027   3.587   3.501   7.353
24192DOPC   GL2 5028   3.587   3.161   7.383
24192DOPC   C1A 5029   3.617   3.501   6.883
24192DOPC   D2A 5030   3.827   3.391   6.473
24192DOPC   C3A 5031   3.967   3.051   6.123
24192DOPC   C4A 5032   4.097   2.711   5.773
24192DOPC   C1B 5033   3.367   2.971   7.053
24192DOPC   D2B 5034   3.237   3.131   6.593
24192DOPC   C3B 5035   3.067   3.031   6.183
24192DOPC   C4B 5036   2.877   2.891   5.703
24193DOPC   NC3 5037  22.913   5.031  10.223
24193DOPC   PO4 5038  22.813   5.321  10.523
24193DOPC   GL1 5039  22.493   5.681  10.463
24193DOPC   GL2 5040  22.523   5.501  10.213
24193DOPC   C1A 5041  22.103   5.551  10.513
24193DOPC   D2A 5042  21.573   5.491  10.433
24193DOPC   C3A 5043  21.363   5.701  10.083
24193DOPC   C4A 5044  21.003   5.971   9.973
24193DOPC   C1B 5045  22.213   5.351   9.993
24193DOPC   D2B 5046  22.033   5.311   9.603
24193DOPC   C3B 5047  21.743   5.411   9.263
24193DOPC   C4B 5048  21.393   5.441   8.873
24194DOPC   NC3 5049  17.973   6.231  15.673
24194DOPC   PO4 5050  17.883   6.361  15.323
24194DOPC   GL1 5051  17.663   6.381  14.893
24194DOPC   GL2 5052  17.743   6.131  14.913
24194DOPC   C1A 5053  17.303   6.561  14.683
24194DOPC   D2A 5054  17.113   6.671  14.283
24194DOPC   C3A 5055  16.783   6.701  13.983
24194DOPC   C4A 5056  16.393   6.911  13.803
24194DOPC   C1B 5057  17.423   6.001  14.583
24194DOPC   D2B 5058  17.143   5.961  14.113
24194DOPC   C3B 5059  16.933   6.201  13.763
24194DOPC   C4B 5060  16.523   6.451  13.643
24195DOPC   NC3 5061   3.957   7.442   8.023
24195DOPC   PO4 5062   4.087   7.762   8.143
24195DOPC   GL1 5063   4.527   0.021   7.943
24195DOPC   GL2 5064   4.417   7.522   7.923
24195DOPC   C1A 5065   4.797   0.041   7.583
24195DOPC   D2A 5066   4.957   0.121   7.083
24195DOPC   C3A 5067   5.367   7.652   7.123
24195DOPC   C4A 5068   5.817   7.442   7.133
24195DOPC   C1B 5069   4.587   7.412   7.583
24195DOPC   D2B 5070   4.857   7.352   7.173
24195DOPC   C3B 5071   5.187   7.252   6.873
24195DOPC   C4B 5072   5.607   7.242   6.633
24196DOPC   NC3 5073   0.737   5.321   7.063
24196DOPC   PO4 5074   0.677   4.981   6.963
24196DOPC   GL1 5075   0.567   4.801   6.623
24196DOPC   GL2 5076   0.277   4.861   6.763
24196DOPC   C1A 5077   0.477   4.841   6.223
24196DOPC   D2A 5078   0.387   4.891   5.693
24196DOPC   C3A 5079   0.767   4.851   5.403
24196DOPC   C4A 5080   1.097   4.871   5.123
24196DOPC   C1B 5081  24.903   5.041   6.603
24196DOPC   D2B 5082  24.603   5.321   6.303
24196DOPC   C3B 5083  24.453   5.461   5.873
24196DOPC   C4B 5084  24.183   5.551   5.493
24197DOPC   NC3 5085   5.227   0.761   8.533
24197DOPC   PO4 5086   5.207   0.511   8.813
24197DOPC   GL1 5087   5.447   0.191   8.623
24197DOPC   GL2 5088   5.677   0.101   8.843
24197DOPC   C1A 5089   5.597   0.291   8.193
24197DOPC   D2A 5090   5.967   0.171   7.833
24197DOPC   C3A 5091   6.107   7.772   7.453
24197DOPC   C4A 5092   6.337   7.432   7.153
24197DOPC   C1B 5093   5.947   0.231   8.553
24197DOPC   D2B 5094   6.107   0.521   8.153
24197DOPC   C3B 5095   6.407   0.401   7.783
24197DOPC   C4B 5096   6.847   0.501   7.483
24198DOPC   NC3 5097  16.693   1.541  15.103
24198DOPC   PO4 5098  16.473   1.461  15.433
24198DOPC   GL1 5099  16.193   1.311  15.183
24198DOPC   GL2 5100  16.183   1.591  15.033
24198DOPC   C1A 5101  16.243   0.921  14.973
24198DOPC   D2A 5102  16.363   0.831  14.493
24198DOPC   C3A 5103  16.513   0.631  14.083
24198DOPC   C4A 5104  16.733   0.481  13.673
24198DOPC   C1B 5105  15.843   1.841  14.833
24198DOPC   D2B 5106  15.403   1.671  14.743
24198DOPC   C3B 5107  15.603   1.341  14.413
24198DOPC   C4B 5108  15.693   1.081  14.013
24199DOPC   NC3 5109   9.777   0.451  13.823
24199DOPC   PO4 5110   9.847   0.101  14.013
24199DOPC   GL1 5111  10.237   0.211  13.903
24199DOPC   GL2 5112  10.197   0.521  13.953
24199DOPC   C1A 5113  10.493   0.011  13.603
24199DOPC   D2A 5114  10.683   7.742  13.133
24199DOPC   C3A 5115  10.833   7.572  12.713
24199DOPC   C4A 5116  10.843   7.171  12.533
24199DOPC   C1B 5117  10.157   0.691  13.543
24199DOPC   D2B 5118  10.247   0.931  13.163
24199DOPC   C3B 5119  10.693   0.831  13.113
24199DOPC   C4B 5120  11.143   1.041  13.073
24200DOPC   NC3 5121  18.313   1.401  15.163
24200DOPC   PO4 5122  18.453   1.061  15.023
24200DOPC   GL1 5123  18.193   0.891  14.683
24200DOPC   GL2 5124  18.513   0.871  14.583
24200DOPC   C1A 5125  17.813   0.951  14.453
24200DOPC   D2A 5126  17.583   1.021  14.033
24200DOPC   C3A 5127  17.303   0.671  13.833
24200DOPC   C4A 5128  17.133   0.161  13.763
24200DOPC   C1B 5129  18.323   0.851  14.213
24200DOPC   D2B 5130  17.933   0.781  13.833
24200DOPC   C3B 5131  17.863   0.571  13.413
24200DOPC   C4B 5132  17.653   0.361  13.043
24201DOPC   NC3 5133   3.697   6.421   7.983
24201DOPC   PO4 5134   3.967   6.181   8.083
24201DOPC   GL1 5135   4.297   6.281   7.833
24201DOPC   GL2 5136   4.207   6.621   7.863
24201DOPC   C1A 5137   4.327   6.281   7.433
24201DOPC   D2A 5138   4.537   6.511   6.983
24201DOPC   C3A 5139   4.217   6.681   6.713
24201DOPC   C4A 5140   4.277   6.531   6.223
24201DOPC   C1B 5141   4.317   6.781   7.483
24201DOPC   D2B 5142   4.477   7.071   7.183
24201DOPC   C3B 5143   4.687   6.981   6.793
24201DOPC   C4B 5144   4.677   6.671   6.433
24202DOPC   NC3 5145   4.967   4.261   9.343
24202DOPC   PO4 5146   4.797   4.421   9.053
24202DOPC   GL1 5147   4.897   4.661   8.643
24202DOPC   GL2 5148   5.057   4.401   8.583
24202DOPC   C1A 5149   5.027   5.011   8.363
24202DOPC   D2A 5150   5.007   5.131   7.843
24202DOPC   C3A 5151   5.377   5.081   7.473
24202DOPC   C4A 5152   5.657   4.911   7.083
24202DOPC   C1B 5153   5.477   4.291   8.413
24202DOPC   D2B 5154   5.737   4.081   8.143
24202DOPC   C3B 5155   5.897   4.241   7.733
24202DOPC   C4B 5156   6.017   4.361   7.243
24203DOPC   NC3 5157  16.813   2.351  15.293
24203DOPC   PO4 5158  17.223   2.461  15.223
24203DOPC   GL1 5159  17.073   2.501  14.853
24203DOPC   GL2 5160  16.843   2.571  14.833
24203DOPC   C1A 5161  17.303   2.751  14.523
24203DOPC   D2A 5162  17.243   2.801  14.073
24203DOPC   C3A 5163  17.033   3.041  13.683
24203DOPC   C4A 5164  16.663   3.041  13.403
24203DOPC   C1B 5165  16.803   2.661  14.373
24203DOPC   D2B 5166  16.603   2.821  13.963
24203DOPC   C3B 5167  16.473   2.551  13.573
24203DOPC   C4B 5168  16.513   2.331  13.173
24204DOPC   NC3 5169  19.653   3.351  13.903
24204DOPC   PO4 5170  19.933   3.151  13.763
24204DOPC   GL1 5171  19.953   2.881  13.293
24204DOPC   GL2 5172  20.113   3.031  13.243
24204DOPC   C1A 5173  19.593   2.881  13.083
24204DOPC   D2A 5174  19.213   2.861  12.803
24204DOPC   C3A 5175  18.973   2.831  12.363
24204DOPC   C4A 5176  18.713   2.731  11.963
24204DOPC   C1B 5177  19.953   3.201  12.923
24204DOPC   D2B 5178  19.713   3.461  12.653
24204DOPC   C3B 5179  19.383   3.281  12.353
24204DOPC   C4B 5180  19.203   3.141  11.973
24205DOPC   NC3 5181   0.727   3.961   7.613
24205DOPC   PO4 5182   0.757   4.261   7.363
24205DOPC   GL1 5183   0.787   4.101   6.993
24205DOPC   GL2 5184   0.797   4.291   6.803
24205DOPC   C1A 5185   0.637   3.841   6.713
24205DOPC   D2A 5186   0.327   3.501   6.453
24205DOPC   C3A 5187   0.137   3.071   6.513
24205DOPC   C4A 5188   0.247   2.561   6.513
24205DOPC   C1B 5189   0.367   4.301   6.583
24205DOPC   D2B 5190   0.107   4.401   6.123
24205DOPC   C3B 5191  24.743   4.051   6.133
24205DOPC   C4B 5192  24.353   3.781   6.273
24206DOPC   NC3 5193   7.197   0.171  11.783
24206DOPC   PO4 5194   7.357   0.421  12.043
24206DOPC   GL1 5195   7.627   0.501  11.793
24206DOPC   GL2 5196   7.697   0.231  11.783
24206DOPC   C1A 5197   7.907   0.701  11.703
24206DOPC   D2A 5198   8.047   0.981  11.273
24206DOPC   C3A 5199   8.297   0.921  10.883
24206DOPC   C4A 5200   8.527   0.911  10.513
24206DOPC   C1B 5201   8.057   0.111  11.593
24206DOPC   D2B 5202   8.547   0.071  11.433
24206DOPC   C3B 5203   8.817   0.121  11.123
24206DOPC   C4B 5204   9.237   7.772  10.933
24207DOPC   NC3 5205  12.653   6.561  15.583
24207DOPC   PO4 5206  12.303   6.651  15.503
24207DOPC   GL1 5207  12.163   6.721  15.173
24207DOPC   GL2 5208  11.873   6.691  15.183
24207DOPC   C1A 5209  12.463   6.831  14.863
24207DOPC   D2A 5210  12.853   6.921  14.583
24207DOPC   C3A 5211  12.893   6.861  14.133
24207DOPC   C4A 5212  12.853   6.621  13.713
24207DOPC   C1B 5213  11.783   6.631  14.733
24207DOPC   D2B 5214  11.523   6.531  14.323
24207DOPC   C3B 5215  11.823   6.251  14.053
24207DOPC   C4B 5216  11.843   5.931  13.673
24208DOPC   NC3 5217  17.883   0.181  16.263
24208DOPC   PO4 5218  17.623   7.792  16.033
24208DOPC   GL1 5219  17.593   0.071  15.573
24208DOPC   GL2 5220  17.443   7.682  15.513
24208DOPC   C1A 5221  17.673   0.121  15.063
24208DOPC   D2A 5222  17.583   0.311  14.613
24208DOPC   C3A 5223  17.403   0.661  14.353
24208DOPC   C4A 5224  16.863   0.781  14.443
24208DOPC   C1B 5225  17.233   7.532  15.143
24208DOPC   D2B 5226  16.913   7.192  15.013
24208DOPC   C3B 5227  16.553   7.292  14.693
24208DOPC   C4B 5228  16.413   7.202  14.263
24209DOPC   NC3 5229  20.313   0.431  13.653
24209DOPC   PO4 5230  20.123   0.201  13.873
24209DOPC   GL1 5231  19.833   0.091  13.573
24209DOPC   GL2 5232  20.043   0.191  13.303
24209DOPC   C1A 5233  19.413   0.131  13.353
24209DOPC   D2A 5234  19.013   0.121  13.083
24209DOPC   C3A 5235  18.633   7.702  12.833
24209DOPC   C4A 5236  18.163   7.602  12.703
24209DOPC   C1B 5237  19.963   0.081  12.953
24209DOPC   D2B 5238  20.093   7.762  12.473
24209DOPC   C3B 5239  20.013   0.001  12.013
24209DOPC   C4B 5240  19.803   0.101  11.533
24210DOPC   NC3 5241  24.033   4.411   8.733
24210DOPC   PO4 5242  23.863   4.711   8.893
24210DOPC   GL1 5243  23.563   4.781   8.603
24210DOPC   GL2 5244  23.773   4.991   8.373
24210DOPC   C1A 5245  23.173   4.921   8.433
24210DOPC   D2A 5246  22.713   4.991   8.233
24210DOPC   C3A 5247  22.373   5.211   7.993
24210DOPC   C4A 5248  22.203   5.281   7.573
24210DOPC   C1B 5249  23.573   5.241   8.083
24210DOPC   D2B 5250  23.043   5.221   7.943
24210DOPC   C3B 5251  22.763   4.931   7.703
24210DOPC   C4B 5252  22.293   4.801   7.563
24211DOPC   NC3 5253  22.133   0.091  11.763
24211DOPC   PO4 5254  22.103   0.471  11.863
24211DOPC   GL1 5255  21.883   0.781  11.693
24211DOPC   GL2 5256  21.663   0.501  11.723
24211DOPC   C1A 5257  21.503   1.041  11.743
24211DOPC   D2A 5258  21.123   1.341  11.853
24211DOPC   C3A 5259  20.813   1.071  11.683
24211DOPC   C4A 5260  20.563   0.731  11.493
24211DOPC   C1B 5261  21.503   0.591  11.333
24211DOPC   D2B 5262  21.143   0.621  11.023
24211DOPC   C3B 5263  20.663   0.591  10.963
24211DOPC   C4B 5264  20.213   0.721  10.843
24212DOPC   NC3 5265  18.423   5.001  14.823
24212DOPC   PO4 5266  18.683   4.691  14.823
24212DOPC   GL1 5267  18.473   4.741  14.383
24212DOPC   GL2 5268  18.233   4.541  14.393
24212DOPC   C1A 5269  18.443   4.891  14.003
24212DOPC   D2A 5270  18.183   5.111  13.623
24212DOPC   C3A 5271  18.163   5.231  13.173
24212DOPC   C4A 5272  18.053   5.131  12.693
24212DOPC   C1B 5273  18.033   4.311  14.103
24212DOPC   D2B 5274  17.683   4.361  13.773
24212DOPC   C3B 5275  17.543   4.531  13.403
24212DOPC   C4B 5276  17.463   4.551  12.953
24213DOPC   NC3 5277  21.913   0.011  12.453
24213DOPC   PO4 5278  21.673   0.301  12.513
24213DOPC   GL1 5279  21.433   0.551  12.263
24213DOPC   GL2 5280  21.653   0.751  12.143
24213DOPC   C1A 5281  21.223   0.301  11.903
24213DOPC   D2A 5282  20.883   7.762  11.793
24213DOPC   C3A 5283  20.813   7.472  11.463
24213DOPC   C4A 5284  20.443   7.161  11.263
24213DOPC   C1B 5285  21.463   1.161  12.243
24213DOPC   D2B 5286  21.353   1.651  12.193
24213DOPC   C3B 5287  20.913   1.871  12.073
24213DOPC   C4B 5288  20.573   1.631  11.853
24214DOPC   NC3 5289  21.223   1.301  13.483
24214DOPC   PO4 5290  20.873   1.501  13.403
24214DOPC   GL1 5291  20.643   1.141  13.163
24214DOPC   GL2 5292  20.743   1.261  12.893
24214DOPC   C1A 5293  20.303   1.451  13.013
24214DOPC   D2A 5294  20.053   1.731  12.743
24214DOPC   C3A 5295  19.663   1.981  12.603
24214DOPC   C4A 5296  19.133   2.061  12.723
24214DOPC   C1B 5297  20.433   1.181  12.623
24214DOPC   D2B 5298  20.203   1.371  12.183
24214DOPC   C3B 5299  19.883   1.081  12.043
24214DOPC   C4B 5300  19.503   0.861  11.783
24215DOPC   NC3 5301   7.027   3.611  11.593
24215DOPC   PO4 5302   7.197   3.531  11.193
24215DOPC   GL1 5303   7.407   3.611  10.833
24215DOPC   GL2 5304   7.647   3.641  11.003
24215DOPC   C1A 5305   7.597   3.441  10.443
24215DOPC   D2A 5306   7.987   3.461  10.123
24215DOPC   C3A 5307   8.127   3.781   9.823
24215DOPC   C4A 5308   8.147   4.051   9.403
24215DOPC   C1B 5309   7.947   3.341  10.823
24215DOPC   D2B 5310   8.237   3.031  10.543
24215DOPC   C3B 5311   8.777   3.071  10.553
24215DOPC   C4B 5312   8.977   3.461  10.373
24216DOPC   NC3 5313  22.953   3.701   9.873
24216DOPC   PO4 5314  22.703   3.421   9.843
24216DOPC   GL1 5315  22.343   3.271   9.673
24216DOPC   GL2 5316  22.413   3.491   9.523
24216DOPC   C1A 5317  22.013   3.141   9.343
24216DOPC   D2A 5318  21.773   2.851   9.033
24216DOPC   C3A 5319  21.853   2.701   8.633
24216DOPC   C4A 5320  21.443   2.501   8.383
24216DOPC   C1B 5321  22.013   3.701   9.483
24216DOPC   D2B 5322  21.613   3.951   9.343
24216DOPC   C3B 5323  21.413   3.641   9.593
24216DOPC   C4B 5324  21.043   3.411   9.763
24217DOPC   NC3 5325  21.593   3.481  12.733
24217DOPC   PO4 5326  21.353   3.771  12.883
24217DOPC   GL1 5327  20.933   3.651  12.683
24217DOPC   GL2 5328  21.093   3.441  12.503
24217DOPC   C1A 5329  20.663   3.351  12.633
24217DOPC   D2A 5330  20.253   3.171  12.493
24217DOPC   C3A 5331  19.853   2.961  12.303
24217DOPC   C4A 5332  19.493   2.761  12.073
24217DOPC   C1B 5333  20.943   2.941  12.453
24217DOPC   D2B 5334  20.983   2.461  12.323
24217DOPC   C3B 5335  20.583   2.261  12.083
24217DOPC   C4B 5336  20.153   2.211  11.823
24218DOPC   NC3 5337  18.903   3.541  14.363
24218DOPC   PO4 5338  19.233   3.461  14.143
24218DOPC   GL1 5339  19.213   3.141  13.823
24218DOPC   GL2 5340  19.133   3.451  13.633
24218DOPC   C1A 5341  18.903   2.811  13.763
24218DOPC   D2A 5342  18.643   2.421  13.913
24218DOPC   C3A 5343  18.623   1.921  13.713
24218DOPC   C4A 5344  18.823   1.541  13.463
24218DOPC   C1B 5345  18.823   3.501  13.213
24218DOPC   D2B 5346  18.453   3.681  12.943
24218DOPC   C3B 5347  18.623   3.961  13.203
24218DOPC   C4B 5348  18.763   4.381  13.333
24219DOPC   NC3 5349  22.033   1.281  11.573
24219DOPC   PO4 5350  22.193   1.241  11.223
24219DOPC   GL1 5351  21.813   1.081  11.243
24219DOPC   GL2 5352  21.863   0.801  11.263
24219DOPC   C1A 5353  21.493   1.021  11.013
24219DOPC   D2A 5354  21.303   0.901  10.583
24219DOPC   C3A 5355  20.883   0.791  10.473
24219DOPC   C4A 5356  20.443   0.571  10.433
24219DOPC   C1B 5357  21.763   0.601  10.893
24219DOPC   D2B 5358  21.403   0.361  10.603
24219DOPC   C3B 5359  21.213   0.061  10.353
24219DOPC   C4B 5360  20.803   7.622  10.163
24220DOPC   NC3 5361   3.617   1.221   8.123
24220DOPC   PO4 5362   3.977   1.371   8.003
24220DOPC   GL1 5363   4.197   1.371   7.603
24220DOPC   GL2 5364   4.367   1.231   7.703
24220DOPC   C1A 5365   3.977   1.171   7.313
24220DOPC   D2A 5366   4.007   0.771   7.093
24220DOPC   C3A 5367   4.217   1.121   6.853
24220DOPC   C4A 5368   4.437   1.531   6.633
24220DOPC   C1B 5369   4.537   1.001   7.343
24220DOPC   D2B 5370   4.687   1.071   6.953
24220DOPC   C3B 5371   4.857   1.461   6.853
24220DOPC   C4B 5372   5.107   1.831   6.853
24221DOPC   NC3 5373  22.783   2.581   9.973
24221DOPC   PO4 5374  22.943   2.921   9.853
24221DOPC   GL1 5375  22.603   2.831   9.563
24221DOPC   GL2 5376  22.473   2.861   9.823
24221DOPC   C1A 5377  22.483   3.081   9.263
24221DOPC   D2A 5378  22.253   3.531   9.063
24221DOPC   C3A 5379  21.753   3.491   9.083
24221DOPC   C4A 5380  21.323   3.641   9.053
24221DOPC   C1B 5381  22.013   2.881   9.823
24221DOPC   D2B 5382  21.673   2.731   9.513
24221DOPC   C3B 5383  21.343   2.841   9.773
24221DOPC   C4B 5384  20.923   2.801  10.043
24222DOPC   NC3 5385  21.743   3.531  11.763
24222DOPC   PO4 5386  21.553   3.591  12.123
24222DOPC   GL1 5387  21.333   3.891  11.933
24222DOPC   GL2 5388  21.363   3.781  11.643
24222DOPC   C1A 5389  21.003   4.081  12.013
24222DOPC   D2A 5390  20.573   4.191  12.113
24222DOPC   C3A 5391  20.233   3.921  12.103
24222DOPC   C4A 5392  19.893   3.581  12.203
24222DOPC   C1B 5393  21.003   3.591  11.633
24222DOPC   D2B 5394  20.643   3.251  11.513
24222DOPC   C3B 5395  20.323   3.451  11.303
24222DOPC   C4B 5396  19.893   3.671  11.133
24223DOPC   NC3 5397  13.903   4.021  16.193
24223DOPC   PO4 5398  13.613   4.311  16.033
24223DOPC   GL1 5399  13.743   4.331  15.613
24223DOPC   GL2 5400  13.503   4.491  15.583
24223DOPC   C1A 5401  13.783   4.501  15.153
24223DOPC   D2A 5402  14.023   4.701  14.803
24223DOPC   C3A 5403  14.113   4.921  14.393
24223DOPC   C4A 5404  14.253   4.821  13.913
24223DOPC   C1B 5405  13.333   4.101  15.363
24223DOPC   D2B 5406  13.383   3.731  15.153
24223DOPC   C3B 5407  13.483   3.521  14.713
24223DOPC   C4B 5408  13.253   3.521  14.273
24224DOPC   NC3 5409   0.307   1.031   7.543
24224DOPC   PO4 5410  24.903   1.061   7.643
24224DOPC   GL1 5411  24.493   1.151   7.513
24224DOPC   GL2 5412  24.573   1.441   7.413
24224DOPC   C1A 5413  24.233   0.821   7.393
24224DOPC   D2A 5414  23.883   0.691   7.073
24224DOPC   C3A 5415  23.753   0.691   6.643
24224DOPC   C4A 5416  23.403   0.731   6.293
24224DOPC   C1B 5417  24.473   1.571   7.023
24224DOPC   D2B 5418  24.173   1.531   6.643
24224DOPC   C3B 5419  23.763   1.741   6.483
24224DOPC   C4B 5420  23.653   2.101   6.283
24225DOPC   NC3 5421   4.447   5.191   8.253
24225DOPC   PO4 5422   4.607   5.501   8.433
24225DOPC   GL1 5423   4.807   5.641   8.013
24225DOPC   GL2 5424   5.097   5.481   8.173
24225DOPC   C1A 5425   4.567   5.431   7.723
24225DOPC   D2A 5426   4.257   5.131   7.483
24225DOPC   C3A 5427   4.287   5.261   7.033
24225DOPC   C4A 5428   4.537   5.191   6.593
24225DOPC   C1B 5429   5.427   5.231   8.023
24225DOPC   D2B 5430   5.927   5.151   8.153
24225DOPC   C3B 5431   6.297   4.801   8.303
24225DOPC   C4B 5432   6.707   4.481   8.453
24226DOPC   NC3 5433   0.447   4.551   7.043
24226DOPC   PO4 5434   0.167   4.761   7.243
24226DOPC   GL1 5435  24.833   4.931   7.023
24226DOPC   GL2 5436  24.743   5.171   7.073
24226DOPC   C1A 5437  24.563   4.671   6.903
24226DOPC   D2A 5438  24.483   4.851   6.443
24226DOPC   C3A 5439  24.223   5.061   6.123
24226DOPC   C4A 5440  23.833   5.161   5.883
24226DOPC   C1B 5441  24.653   5.531   6.783
24226DOPC   D2B 5442  24.523   5.871   6.443
24226DOPC   C3B 5443  24.603   6.171   6.163
24226DOPC   C4B 5444  24.823   6.421   5.803
24227DOPC   NC3 5445   7.457   0.941  11.853
24227DOPC   PO4 5446   7.147   1.111  11.753
24227DOPC   GL1 5447   7.187   1.141  11.223
24227DOPC   GL2 5448   7.477   1.061  11.383
24227DOPC   C1A 5449   7.567   1.251  10.943
24227DOPC   D2A 5450   8.047   1.301  10.753
24227DOPC   C3A 5451   8.047   1.031  10.353
24227DOPC   C4A 5452   8.157   0.951   9.893
24227DOPC   C1B 5453   7.797   1.421  11.353
24227DOPC   D2B 5454   8.157   1.701  11.223
24227DOPC   C3B 5455   8.527   1.741  10.953
24227DOPC   C4B 5456   9.027   1.691  10.823
24228DOPC   NC3 5457   7.557   1.901  12.063
24228DOPC   PO4 5458   7.507   2.001  11.673
24228DOPC   GL1 5459   7.797   1.941  11.333
24228DOPC   GL2 5460   7.907   1.741  11.653
24228DOPC   C1A 5461   7.717   1.871  10.853
24228DOPC   D2A 5462   7.727   1.561  10.463
24228DOPC   C3A 5463   8.127   1.551  10.183
24228DOPC   C4A 5464   8.537   1.241  10.153
24228DOPC   C1B 5465   8.277   1.461  11.633
24228DOPC   D2B 5466   8.707   1.521  11.453
24228DOPC   C3B 5467   9.077   1.361  11.203
24228DOPC   C4B 5468   9.267   1.211  10.773
24229DOPC   NC3 5469  23.493   1.051   9.353
24229DOPC   PO4 5470  23.343   1.371   9.193
24229DOPC   GL1 5471  23.233   1.391   8.823
24229DOPC   GL2 5472  23.053   1.171   9.013
24229DOPC   C1A 5473  22.923   1.581   8.553
24229DOPC   D2A 5474  22.623   1.621   8.163
24229DOPC   C3A 5475  22.253   1.851   8.033
24229DOPC   C4A 5476  22.113   2.261   8.143
24229DOPC   C1B 5477  22.683   0.901   8.823
24229DOPC   D2B 5478  22.363   0.511   8.693
24229DOPC   C3B 5479  22.173   0.231   8.283
24229DOPC   C4B 5480  21.973   7.652   8.053
24230DOPC   NC3 5481  14.623   2.741  15.853
24230DOPC   PO4 5482  14.673   3.121  15.833
24230DOPC   GL1 5483  14.653   3.341  15.483
24230DOPC   GL2 5484  14.413   3.471  15.583
24230DOPC   C1A 5485  14.893   3.431  15.153
24230DOPC   D2A 5486  14.973   3.661  14.663
24230DOPC   C3A 5487  14.663   3.461  14.303
24230DOPC   C4A 5488  14.203   3.571  14.133
24230DOPC   C1B 5489  14.053   3.531  15.333
24230DOPC   D2B 5490  13.963   3.611  14.913
24230DOPC   C3B 5491  14.263   3.401  14.593
24230DOPC   C4B 5492  14.363   2.971  14.293
24231DOPC   NC3 5493   2.837   1.321   7.733
24231DOPC   PO4 5494   3.147   1.551   7.673
24231DOPC   GL1 5495   3.227   1.341   7.303
24231DOPC   GL2 5496   3.417   1.141   7.393
24231DOPC   C1A 5497   3.497   1.631   7.113
24231DOPC   D2A 5498   3.737   2.081   7.073
24231DOPC   C3A 5499   3.847   2.191   6.573
24231DOPC   C4A 5500   3.977   2.531   6.213
24231DOPC   C1B 5501   3.617   1.091   7.013
24231DOPC   D2B 5502   3.727   1.141   6.563
24231DOPC   C3B 5503   4.077   1.271   6.363
24231DOPC   C4B 5504   4.577   1.401   6.183
24232DOPC   NC3 5505   1.337   2.531   7.733
24232DOPC   PO4 5506   1.687   2.671   7.733
24232DOPC   GL1 5507   1.977   2.781   7.413
24232DOPC   GL2 5508   2.027   2.431   7.393
24232DOPC   C1A 5509   1.937   2.671   6.963
24232DOPC   D2A 5510   1.707   2.351   6.643
24232DOPC   C3A 5511   1.817   2.361   6.143
24232DOPC   C4A 5512   1.917   2.361   5.653
24232DOPC   C1B 5513   2.087   2.171   7.083
24232DOPC   D2B 5514   2.157   2.081   6.633
24232DOPC   C3B 5515   2.237   1.761   6.333
24232DOPC   C4B 5516   2.187   1.291   6.083
24233DOPC   NC3 5517   7.517   3.461  12.503
24233DOPC   PO4 5518   7.717   3.261  12.223
24233DOPC   GL1 5519   7.957   3.441  11.863
24233DOPC   GL2 5520   8.127   3.571  12.013
24233DOPC   C1A 5521   8.007   3.361  11.403
24233DOPC   D2A 5522   8.237   3.101  11.103
24233DOPC   C3A 5523   8.697   2.961  11.053
24233DOPC   C4A 5524   9.177   2.791  11.113
24233DOPC   C1B 5525   8.547   3.471  11.953
24233DOPC   D2B 5526   9.007   3.391  11.793
24233DOPC   C3B 5527   9.157   3.031  11.623
24233DOPC   C4B 5528   9.497   2.711  11.483
24234DOPC   NC3 5529  10.493   0.401  14.673
24234DOPC   PO4 5530  10.723   0.711  14.733
24234DOPC   GL1 5531  11.003   0.721  14.333
24234DOPC   GL2 5532  11.183   0.631  14.483
24234DOPC   C1A 5533  11.243   0.571  14.003
24234DOPC   D2A 5534  11.633   0.551  13.703
24234DOPC   C3A 5535  12.033   0.651  13.493
24234DOPC   C4A 5536  12.253   0.921  13.153
24234DOPC   C1B 5537  11.433   0.301  14.453
24234DOPC   D2B 5538  11.773   0.211  14.053
24234DOPC   C3B 5539  11.903   7.612  13.843
24234DOPC   C4B 5540  12.013   7.172  13.683
24235DOPC   NC3 5541  19.113   5.491  14.503
24235DOPC   PO4 5542  18.743   5.531  14.693
24235DOPC   GL1 5543  18.503   5.561  14.423
24235DOPC   GL2 5544  18.243   5.411  14.513
24235DOPC   C1A 5545  18.493   5.431  14.033
24235DOPC   D2A 5546  18.343   5.541  13.533
24235DOPC   C3A 5547  17.883   5.591  13.413
24235DOPC   C4A 5548  17.433   5.731  13.273
24235DOPC   C1B 5549  18.073   5.071  14.303
24235DOPC   D2B 5550  17.843   4.851  13.923
24235DOPC   C3B 5551  17.373   4.781  13.783
24235DOPC   C4B 5552  17.083   4.661  13.433
24236DOPC   NC3 5553  17.713   5.121  15.533
24236DOPC   PO4 5554  18.033   5.121  15.303
24236DOPC   GL1 5555  18.013   4.941  14.893
24236DOPC   GL2 5556  17.983   5.161  14.803
24236DOPC   C1A 5557  17.593   4.911  14.763
24236DOPC   D2A 5558  17.133   4.841  14.543
24236DOPC   C3A 5559  17.003   4.841  14.123
24236DOPC   C4A 5560  16.923   5.271  14.003
24236DOPC   C1B 5561  17.733   5.421  14.513
24236DOPC   D2B 5562  17.603   5.731  14.163
24236DOPC   C3B 5563  17.403   5.531  13.763
24236DOPC   C4B 5564  17.183   5.171  13.513
24237DOPC   NC3 5565   2.437   7.652   7.563
24237DOPC   PO4 5566   2.107   7.482   7.563
24237DOPC   GL1 5567   1.797   7.492   7.333
24237DOPC   GL2 5568   1.827   7.172   7.343
24237DOPC   C1A 5569   1.747   7.582   6.873
24237DOPC   D2A 5570   1.687   7.632   6.383
24237DOPC   C3A 5571   1.847   7.632   5.923
24237DOPC   C4A 5572   1.847   7.762   5.443
24237DOPC   C1B 5573   1.787   7.061   6.923
24237DOPC   D2B 5574   1.877   7.091   6.413
24237DOPC   C3B 5575   1.837   7.171   5.963
24237DOPC   C4B 5576   1.917   6.961   5.483
24238DOPC   NC3 5577  23.583   6.121   8.853
24238DOPC   PO4 5578  23.643   6.451   9.083
24238DOPC   GL1 5579  23.373   6.781   9.083
24238DOPC   GL2 5580  23.203   6.761   9.353
24238DOPC   C1A 5581  23.073   6.881   8.783
24238DOPC   D2A 5582  22.673   7.071   8.673
24238DOPC   C3A 5583  22.373   6.901   8.353
24238DOPC   C4A 5584  22.233   6.691   7.923
24238DOPC   C1B 5585  22.823   6.951   9.153
24238DOPC   D2B 5586  22.303   6.921   9.163
24238DOPC   C3B 5587  21.923   6.691   9.063
24238DOPC   C4B 5588  21.503   6.551   8.823
24239DOPC   NC3 5589   5.597   0.041   9.293
24239DOPC   PO4 5590   5.597   0.421   9.233
24239DOPC   GL1 5591   5.707   0.601   8.883
24239DOPC   GL2 5592   5.987   0.521   8.973
24239DOPC   C1A 5593   5.747   0.701   8.443
24239DOPC   D2A 5594   5.697   0.761   7.913
24239DOPC   C3A 5595   5.957   0.611   7.573
24239DOPC   C4A 5596   6.267   0.451   7.333
24239DOPC   C1B 5597   6.287   0.701   8.693
24239DOPC   D2B 5598   6.647   0.841   8.383
24239DOPC   C3B 5599   6.937   1.201   8.473
24239DOPC   C4B 5600   7.357   1.341   8.643
24240DOPA   PO4 5601   6.037   4.151   9.563
24240DOPA   GL1 5602   6.187   4.071   9.103
24240DOPA   GL2 5603   6.237   4.401   9.133
24240DOPA   C1A 5604   6.327   4.171   8.723
24240DOPA   D2A 5605   6.217   4.291   8.243
24240DOPA   C3A 5606   6.377   4.561   7.913
24240DOPA   C4A 5607   6.667   4.991   7.703
24240DOPA   C1B 5608   6.627   4.381   9.023
24240DOPA   D2B 5609   7.027   4.721   8.953
24240DOPA   C3B 5610   7.287   4.811   8.633
24240DOPA   C4B 5611   7.357   4.921   8.173
24241DOPA   PO4 5612  21.063   4.591  12.873
24241DOPA   GL1 5613  20.703   4.741  12.883
24241DOPA   GL2 5614  20.593   4.911  13.063
24241DOPA   C1A 5615  20.333   4.511  12.683
24241DOPA   D2A 5616  20.073   4.421  12.293
24241DOPA   C3A 5617  19.763   4.161  12.203
24241DOPA   C4A 5618  19.353   4.111  11.963
24241DOPA   C1B 5619  20.153   4.951  13.033
24241DOPA   D2B 5620  19.883   5.281  12.833
24241DOPA   C3B 5621  19.583   5.241  12.423
24241DOPA   C4B 5622  19.273   4.951  12.173
24242DOPA   PO4 5623   0.367   6.571   7.583
24242DOPA   GL1 5624   0.557   6.551   7.163
24242DOPA   GL2 5625   0.387   6.281   7.143
24242DOPA   C1A 5626   0.647   6.601   6.683
24242DOPA   D2A 5627   0.727   6.371   6.213
24242DOPA   C3A 5628   0.647   6.721   5.963
24242DOPA   C4A 5629   0.637   7.091   5.673
24242DOPA   C1B 5630   0.377   6.131   6.783
24242DOPA   D2B 5631   0.497   5.861   6.333
24242DOPA   C3B 5632   0.817   5.621   6.133
24242DOPA   C4B 5633   1.207   5.431   5.843
24243DOPA   PO4 5634   9.417   4.161  14.273
24243DOPA   GL1 5635   9.557   4.031  13.893
24243DOPA   GL2 5636   9.587   4.331  13.863
24243DOPA   C1A 5637   9.857   3.741  13.803
24243DOPA   D2A 5638  10.177   3.931  13.453
24243DOPA   C3A 5639  10.443   3.751  13.123
24243DOPA   C4A 5640  10.683   3.431  12.843
24243DOPA   C1B 5641   9.997   4.351  13.593
24243DOPA   D2B 5642  10.187   4.391  13.213
24243DOPA   C3B 5643  10.473   4.261  12.873
24243DOPA   C4B 5644  10.633   3.881  12.563
24244DOPA   PO4 5645  23.153   4.331   9.263
24244DOPA   GL1 5646  22.913   4.701   9.143
24244DOPA   GL2 5647  23.033   4.611   8.883
24244DOPA   C1A 5648  22.473   4.741   9.033
24244DOPA   D2A 5649  21.983   4.841   9.063
24244DOPA   C3A 5650  21.573   4.941   8.843
24244DOPA   C4A 5651  21.173   5.031   8.573
24244DOPA   C1B 5652  22.783   4.621   8.573
24244DOPA   D2B 5653  22.483   4.581   8.173
24244DOPA   C3B 5654  22.283   4.281   7.873
24244DOPA   C4B 5655  21.863   4.011   7.863
24245DOPA   PO4 5656   5.817   7.602   9.783
24245DOPA   GL1 5657   6.097   7.422   9.463
24245DOPA   GL2 5658   5.987   7.612   9.263
24245DOPA   C1A 5659   6.557   7.242   9.483
24245DOPA   D2A 5660   7.017   7.242   9.413
24245DOPA   C3A 5661   7.347   7.001   9.393
24245DOPA   C4A 5662   7.767   6.841   9.603
24245DOPA   C1B 5663   5.987   7.552   8.843
24245DOPA   D2B 5664   6.287   7.652   8.483
24245DOPA   C3B 5665   6.507   0.201   8.293
24245DOPA   C4B 5666   6.817   0.521   8.053
24246DOPA   PO4 5667  16.073   5.961  16.013
24246DOPA   GL1 5668  15.893   5.891  15.673
24246DOPA   GL2 5669  16.183   5.821  15.593
24246DOPA   C1A 5670  15.753   5.551  15.323
24246DOPA   D2A 5671  15.673   5.121  15.033
24246DOPA   C3A 5672  15.783   4.741  14.743
24246DOPA   C4A 5673  15.883   4.321  14.503
24246DOPA   C1B 5674  16.033   5.981  15.223
24246DOPA   D2B 5675  15.653   5.951  14.943
24246DOPA   C3B 5676  15.373   6.111  14.603
24246DOPA   C4B 5677  15.073   6.241  14.213
24247DOPA   PO4 5678   5.097   4.901   9.153
24247DOPA   GL1 5679   5.317   4.921   8.753
24247DOPA   GL2 5680   5.487   5.101   8.823
24247DOPA   C1A 5681   5.487   4.841   8.363
24247DOPA   D2A 5682   5.357   4.741   7.843
24247DOPA   C3A 5683   5.507   4.481   7.443
24247DOPA   C4A 5684   5.237   4.321   7.033
24247DOPA   C1B 5685   5.647   5.321   8.483
24247DOPA   D2B 5686   5.737   5.611   8.123
24247DOPA   C3B 5687   5.797   5.381   7.713
24247DOPA   C4B 5688   5.937   5.261   7.253
24248DOPA   PO4 5689   7.107   2.531  10.703
24248DOPA   GL1 5690   7.517   2.661  10.563
24248DOPA   GL2 5691   7.517   2.381  10.423
24248DOPA   C1A 5692   7.837   2.761  10.893
24248DOPA   D2A 5693   8.377   2.641  10.863
24248DOPA   C3A 5694   8.817   2.551  10.733
24248DOPA   C4A 5695   9.117   2.241  10.973
24248DOPA   C1B 5696   7.867   2.101  10.393
24248DOPA   D2B 5697   8.197   1.801  10.613
24248DOPA   C3B 5698   8.627   1.641  10.463
24248DOPA   C4B 5699   9.027   1.411  10.423
24249DOPA   PO4 5700  23.863   1.191   9.023
24249DOPA   GL1 5701  23.503   1.011   8.893
24249DOPA   GL2 5702  23.503   1.071   8.673
24249DOPA   C1A 5703  23.193   0.731   8.963
24249DOPA   D2A 5704  22.873   0.441   8.753
24249DOPA   C3A 5705  22.643   0.221   8.403
24249DOPA   C4A 5706  22.493   7.682   8.003
24249DOPA   C1B 5707  23.093   1.071   8.523
24249DOPA   D2B 5708  22.613   1.171   8.383
24249DOPA   C3B 5709  22.213   0.981   8.323
24249DOPA   C4B 5710  21.923   0.631   8.143
24250DOPA   PO4 5711   3.907   3.951   7.963
24250DOPA   GL1 5712   4.167   3.871   7.593
24250DOPA   GL2 5713   3.927   3.751   7.523
24250DOPA   C1A 5714   4.557   3.891   7.533
24250DOPA   D2A 5715   4.957   4.041   7.293
24250DOPA   C3A 5716   5.127   3.801   6.943
24250DOPA   C4A 5717   5.147   3.461   6.613
24250DOPA   C1B 5718   3.837   3.891   7.063
24250DOPA   D2B 5719   3.607   3.951   6.703
24250DOPA   C3B 5720   3.697   4.001   6.223
24250DOPA   C4B 5721   3.597   3.911   5.733
24251DOPA   PO4 5722   8.177   3.171  12.713
24251DOPA   GL1 5723   8.537   3.311  12.703
24251DOPA   GL2 5724   8.497   3.441  12.373
24251DOPA   C1A 5725   8.937   3.241  12.593
24251DOPA   D2A 5726   9.367   3.341  12.343
24251DOPA   C3A 5727   9.497   3.211  11.943
24251DOPA   C4A 5728   9.677   3.161  11.533
24251DOPA   C1B 5729   8.807   3.741  12.283
24251DOPA   D2B 5730   9.257   3.771  12.043
24251DOPA   C3B 5731   9.717   3.731  12.213
24251DOPA   C4B 5732  10.127   3.701  11.933
24252DOPA   PO4 5733   0.827   3.531   7.333
24252DOPA   GL1 5734   0.917   3.281   7.003
24252DOPA   GL2 5735   0.957   3.531   6.873
24252DOPA   C1A 5736   0.597   3.121   6.713
24252DOPA   D2A 5737   0.617   2.771   6.293
24252DOPA   C3A 5738   0.407   2.381   6.113
24252DOPA   C4A 5739   0.227   1.961   6.013
24252DOPA   C1B 5740   0.917   3.531   6.413
24252DOPA   D2B 5741   0.837   3.571   5.933
24252DOPA   C3B 5742   0.387   3.501   5.853
24252DOPA   C4B 5743  24.863   3.581   5.733
24253DOPA   PO4 5744  24.253   0.451   8.173
24253DOPA   GL1 5745  24.043   0.621   7.803
24253DOPA   GL2 5746  24.203   0.471   7.693
24253DOPA   C1A 5747  23.723   0.801   7.603
24253DOPA   D2A 5748  23.623   1.071   7.233
24253DOPA   C3A 5749  23.923   1.131   6.873
24253DOPA   C4A 5750  24.403   1.051   7.003
24253DOPA   C1B 5751  24.003   0.121   7.493
24253DOPA   D2B 5752  23.593   7.652   7.333
24253DOPA   C3B 5753  23.303   7.372   7.323
24253DOPA   C4B 5754  22.973   6.981   7.403
24254DOPA   PO4 5755  17.503   1.371  15.233
24254DOPA   GL1 5756  17.563   1.591  14.833
24254DOPA   GL2 5757  17.403   1.721  14.773
24254DOPA   C1A 5758  17.833   1.471  14.493
24254DOPA   D2A 5759  18.163   1.321  14.113
24254DOPA   C3A 5760  17.873   1.281  13.783
24254DOPA   C4A 5761  17.493   1.071  13.473
24254DOPA   C1B 5762  17.263   1.731  14.353
24254DOPA   D2B 5763  16.903   1.801  14.003
24254DOPA   C3B 5764  16.863   1.981  13.633
24254DOPA   C4B 5765  16.763   1.901  13.223
24255DOPA   PO4 5766  21.953   2.231  11.793
24255DOPA   GL1 5767  21.633   2.361  11.593
24255DOPA   GL2 5768  21.603   2.521  11.453
24255DOPA   C1A 5769  21.343   2.141  11.383
24255DOPA   D2A 5770  21.313   1.821  11.053
24255DOPA   C3A 5771  21.103   1.421  10.973
24255DOPA   C4A 5772  20.913   1.031  10.913
24255DOPA   C1B 5773  21.203   2.591  11.443
24255DOPA   D2B 5774  20.773   2.771  11.303
24255DOPA   C3B 5775  20.323   2.941  11.263
24255DOPA   C4B 5776  19.883   3.141  11.333
24256DOPA   PO4 5777   6.647   3.221  10.363
24256DOPA   GL1 5778   6.727   2.841  10.083
24256DOPA   GL2 5779   6.947   2.891  10.293
24256DOPA   C1A 5780   6.957   2.691   9.823
24256DOPA   D2A 5781   7.397   2.521   9.593
24256DOPA   C3A 5782   7.567   2.301   9.223
24256DOPA   C4A 5783   8.097   2.281   9.223
24256DOPA   C1B 5784   7.337   2.821  10.183
24256DOPA   D2B 5785   7.687   2.881   9.833
24256DOPA   C3B 5786   7.837   2.741   9.453
24256DOPA   C4B 5787   8.047   2.851   8.993
24257DOPA   PO4 5788  13.693   6.861  16.493
24257DOPA   GL1 5789  13.483   6.761  16.153
24257DOPA   GL2 5790  13.713   6.871  15.973
24257DOPA   C1A 5791  13.373   6.471  15.813
24257DOPA   D2A 5792  13.083   6.241  15.513
24257DOPA   C3A 5793  13.033   6.151  15.073
24257DOPA   C4A 5794  13.003   5.911  14.623
24257DOPA   C1B 5795  13.653   6.731  15.493
24257DOPA   D2B 5796  13.883   6.761  15.073
24257DOPA   C3B 5797  13.933   6.681  14.613
24257DOPA   C4B 5798  13.743   6.411  14.253
24258DOPA   PO4 5799  18.673   3.081  14.553
24258DOPA   GL1 5800  18.453   3.231  14.213
24258DOPA   GL2 5801  18.693   3.231  14.013
24258DOPA   C1A 5802  18.043   3.221  14.033
24258DOPA   D2A 5803  17.593   3.161  13.793
24258DOPA   C3A 5804  17.893   3.381  13.563
24258DOPA   C4A 5805  18.153   3.731  13.333
24258DOPA   C1B 5806  18.593   3.291  13.583
24258DOPA   D2B 5807  18.273   3.251  13.253
24258DOPA   C3B 5808  18.033   3.161  12.883
24258DOPA   C4B 5809  17.833   3.231  12.443
24259DOPA   PO4 5810  24.613   0.021   7.813
24259DOPA   GL1 5811  24.783   0.021   7.503
24259DOPA   GL2 5812  24.643   7.572   7.453
24259DOPA   C1A 5813  24.473   0.221   7.213
24259DOPA   D2A 5814  24.193   0.331   6.803
24259DOPA   C3A 5815  23.733   0.231   6.933
24259DOPA   C4A 5816  23.353   7.712   6.933
24259DOPA   C1B 5817  24.633   7.522   7.003
24259DOPA   D2B 5818  24.473   7.262   6.593
24259DOPA   C3B 5819  24.223   7.121   6.223
24259DOPA   C4B 5820  24.033   6.961   5.863
24260DOPA   PO4 5821   2.707   6.201   8.123
24260DOPA   GL1 5822   2.787   6.191   7.743
24260DOPA   GL2 5823   2.567   6.371   7.693
24260DOPA   C1A 5824   2.857   5.921   7.383
24260DOPA   D2A 5825   3.017   5.801   6.913
24260DOPA   C3A 5826   3.387   5.751   6.593
24260DOPA   C4A 5827   3.817   5.681   6.343
24260DOPA   C1B 5828   2.417   6.321   7.293
24260DOPA   D2B 5829   2.157   6.301   6.873
24260DOPA   C3B 5830   2.197   6.151   6.423
24260DOPA   C4B 5831   2.337   6.311   6.013
24261DOPA   PO4 5832  12.563   5.511  15.683
24261DOPA   GL1 5833  12.563   5.441  15.333
24261DOPA   GL2 5834  12.463   5.721  15.253
24261DOPA   C1A 5835  12.673   5.251  14.913
24261DOPA   D2A 5836  13.043   5.001  14.663
24261DOPA   C3A 5837  12.743   4.791  14.363
24261DOPA   C4A 5838  12.413   4.571  14.083
24261DOPA   C1B 5839  12.183   5.451  15.013
24261DOPA   D2B 5840  11.873   5.191  14.633
24261DOPA   C3B 5841  11.673   5.161  14.203
24261DOPA   C4B 5842  11.543   5.451  13.863
24262DOPA   PO4 5843  19.843   5.361  13.843
24262DOPA   GL1 5844  19.483   5.671  13.583
24262DOPA   GL2 5845  19.713   5.781  13.563
24262DOPA   C1A 5846  19.533   5.521  13.183
24262DOPA   D2A 5847  19.443   5.551  12.713
24262DOPA   C3A 5848  19.073   5.721  12.433
24262DOPA   C4A 5849  18.683   6.011  12.353
24262DOPA   C1B 5850  19.663   6.021  13.143
24262DOPA   D2B 5851  19.293   6.011  12.803
24262DOPA   C3B 5852  18.853   6.231  12.803
24262DOPA   C4B 5853  18.333   6.151  12.743
24263DOPA   PO4 5854   8.097   7.762  12.563
24263DOPA   GL1 5855   8.277   0.031  12.283
24263DOPA   GL2 5856   8.437   7.672  12.163
24263DOPA   C1A 5857   8.327   0.401  11.883
24263DOPA   D2A 5858   8.397   0.761  11.533
24263DOPA   C3A 5859   8.597   1.081  11.233
24263DOPA   C4A 5860   8.727   1.231  10.833
24263DOPA   C1B 5861   8.747   0.061  11.913
24263DOPA   D2B 5862   9.117   0.131  11.553
24263DOPA   C3B 5863   9.237   0.381  11.163
24263DOPA   C4B 5864   9.487   0.621  10.803
24264DOPA   PO4 5865   1.737   3.451   7.763
24264DOPA   GL1 5866   1.847   3.591   7.453
24264DOPA   GL2 5867   1.657   3.801   7.323
24264DOPA   C1A 5868   1.967   3.541   6.993
24264DOPA   D2A 5869   1.847   3.431   6.513
24264DOPA   C3A 5870   2.007   3.411   6.063
24264DOPA   C4A 5871   2.017   3.361   5.633
24264DOPA   C1B 5872   1.717   3.961   6.953
24264DOPA   D2B 5873   1.697   3.921   6.443
24264DOPA   C3B 5874   1.327   3.891   6.123
24264DOPA   C4B 5875   1.107   3.971   5.683
24265DOPC   NC3 5876  21.663   3.171   5.133
24265DOPC   PO4 5877  21.923   3.121   4.863
24265DOPC   GL1 5878  22.353   3.191   4.953
24265DOPC   GL2 5879  22.323   3.221   5.253
24265DOPC   C1A 5880  22.853   3.131   5.013
24265DOPC   D2A 5881  23.333   3.041   4.923
24265DOPC   C3A 5882  23.573   2.691   5.123
24265DOPC   C4A 5883  23.563   2.261   5.303
24265DOPC   C1B 5884  22.673   3.111   5.513
24265DOPC   D2B 5885  23.163   3.021   5.423
24265DOPC   C3B 5886  23.463   2.731   5.603
24265DOPC   C4B 5887  23.643   2.571   6.073
24266DOPC   NC3 5888  18.823   3.111   9.653
24266DOPC   PO4 5889  18.813   3.401   9.403
24266DOPC   GL1 5890  19.113   3.511   9.203
24266DOPC   GL2 5891  19.273   3.271   9.113
24266DOPC   C1A 5892  19.403   3.661   9.443
24266DOPC   D2A 5893  19.703   3.871   9.753
24266DOPC   C3A 5894  19.803   4.011  10.183
24266DOPC   C4A 5895  19.763   4.221  10.593
24266DOPC   C1B 5896  19.683   3.151   9.243
24266DOPC   D2B 5897  20.023   3.531   9.423
24266DOPC   C3B 5898  20.133   3.591   9.843
24266DOPC   C4B 5899  20.533   3.621  10.033
24267DOPC   NC3 5900  10.813   2.661   8.653
24267DOPC   PO4 5901  10.513   2.601   8.853
24267DOPC   GL1 5902  10.313   2.351   9.093
24267DOPC   GL2 5903  10.197   2.521   9.293
24267DOPC   C1A 5904  10.403   2.071   9.463
24267DOPC   D2A 5905  10.217   1.651   9.683
24267DOPC   C3A 5906   9.867   1.551  10.033
24267DOPC   C4A 5907   9.487   1.381  10.323
24267DOPC   C1B 5908  10.263   2.411   9.763
24267DOPC   D2B 5909  10.087   2.521  10.213
24267DOPC   C3B 5910   9.627   2.671  10.333
24267DOPC   C4B 5911   9.327   2.921  10.663
24268DOPC   NC3 5912  10.167   6.531   8.853
24268DOPC   PO4 5913  10.107   6.691   8.483
24268DOPC   GL1 5914   9.687   6.781   8.513
24268DOPC   GL2 5915   9.577   6.521   8.533
24268DOPC   C1A 5916   9.497   7.031   8.803
24268DOPC   D2A 5917   9.097   7.312   9.043
24268DOPC   C3A 5918   8.667   7.151   8.913
24268DOPC   C4A 5919   8.337   7.202   8.533
24268DOPC   C1B 5920   9.417   6.491   9.003
24268DOPC   D2B 5921   9.117   6.511   9.463
24268DOPC   C3B 5922   8.747   6.751   9.703
24268DOPC   C4B 5923   8.267   6.741   9.783
24269DOPC   NC3 5924  14.433   5.421  11.663
24269DOPC   PO4 5925  14.613   5.751  11.733
24269DOPC   GL1 5926  14.613   5.851  12.173
24269DOPC   GL2 5927  14.463   5.571  12.163
24269DOPC   C1A 5928  14.703   6.021  12.603
24269DOPC   D2A 5929  14.653   6.221  13.003
24269DOPC   C3A 5930  14.813   6.091  13.423
24269DOPC   C4A 5931  14.743   6.041  13.893
24269DOPC   C1B 5932  14.173   5.701  12.503
24269DOPC   D2B 5933  13.673   5.881  12.573
24269DOPC   C3B 5934  13.763   5.821  13.013
24269DOPC   C4B 5935  13.813   6.101  13.383
24270DOPC   NC3 5936  11.533   1.871  10.453
24270DOPC   PO4 5937  11.293   1.811  10.133
24270DOPC   GL1 5938  10.923   1.791   9.973
24270DOPC   GL2 5939  10.883   1.701  10.323
24270DOPC   C1A 5940  10.543   2.021   9.953
24270DOPC   D2A 5941  10.027   2.051   9.993
24270DOPC   C3A 5942   9.757   1.901  10.323
24270DOPC   C4A 5943   9.457   1.881  10.713
24270DOPC   C1B 5944  10.533   1.621  10.453
24270DOPC   D2B 5945  10.067   1.421  10.483
24270DOPC   C3B 5946   9.717   1.451  10.763
24270DOPC   C4B 5947   9.507   1.621  11.143
24271DOPC   NC3 5948   9.777   3.311   8.323
24271DOPC   PO4 5949   9.847   2.861   8.283
24271DOPC   GL1 5950   9.627   2.631   8.423
24271DOPC   GL2 5951   9.427   2.701   8.203
24271DOPC   C1A 5952   9.507   2.431   8.753
24271DOPC   D2A 5953   9.477   2.131   9.133
24271DOPC   C3A 5954   9.227   2.211   9.523
24271DOPC   C4A 5955   8.917   2.151   9.813
24271DOPC   C1B 5956   9.297   2.281   8.383
24271DOPC   D2B 5957   9.397   1.881   8.683
24271DOPC   C3B 5958   9.047   1.821   8.993
24271DOPC   C4B 5959   8.817   1.621   9.433
24272DOPC   NC3 5960  18.193   6.081   9.373
24272DOPC   PO4 5961  18.153   5.971   9.743
24272DOPC   GL1 5962  18.503   5.671   9.863
24272DOPC   GL2 5963  18.623   5.921   9.643
24272DOPC   C1A 5964  18.863   5.641  10.093
24272DOPC   D2A 5965  19.303   5.791  10.153
24272DOPC   C3A 5966  19.573   5.961  10.533
24272DOPC   C4A 5967  19.893   6.161  10.833
24272DOPC   C1B 5968  19.003   6.011   9.833
24272DOPC   D2B 5969  19.143   6.271  10.193
24272DOPC   C3B 5970  19.093   6.341  10.673
24272DOPC   C4B 5971  19.393   6.401  11.083
24273DOPC   NC3 5972   0.397   5.131   2.973
24273DOPC   PO4 5973   0.327   4.831   3.243
24273DOPC   GL1 5974   0.217   5.001   3.583
24273DOPC   GL2 5975   0.167   5.251   3.453
24273DOPC   C1A 5976   0.447   5.121   3.963
24273DOPC   D2A 5977   0.587   5.221   4.373
24273DOPC   C3A 5978   0.827   5.081   4.813
24273DOPC   C4A 5979   1.187   5.441   4.863
24273DOPC   C1B 5980   0.337   5.621   3.653
24273DOPC   D2B 5981   0.417   6.021   3.873
24273DOPC   C3B 5982   0.737   6.131   4.143
24273DOPC   C4B 5983   0.847   6.541   4.233
24274DOPC   NC3 5984  13.593   2.961  11.683
24274DOPC   PO4 5985  13.473   3.031  12.053
24274DOPC   GL1 5986  13.193   2.851  12.153
24274DOPC   GL2 5987  13.333   2.931  12.443
24274DOPC   C1A 5988  12.853   2.731  12.243
24274DOPC   D2A 5989  12.363   2.631  12.323
24274DOPC   C3A 5990  12.123   2.391  12.593
24274DOPC   C4A 5991  12.013   2.061  12.913
24274DOPC   C1B 5992  13.283   2.841  12.843
24274DOPC   D2B 5993  12.923   2.831  13.233
24274DOPC   C3B 5994  12.523   2.811  13.483
24274DOPC   C4B 5995  12.043   2.771  13.513
24275DOPC   NC3 5996  19.123   6.991   8.623
24275DOPC   PO4 5997  19.353   6.641   8.703
24275DOPC   GL1 5998  19.583   6.621   8.953
24275DOPC   GL2 5999  19.843   6.701   8.793
24275DOPC   C1A 6000  19.753   6.561   9.413
24275DOPC   D2A 6001  20.053   6.531   9.833
24275DOPC   C3A 6002  20.333   6.291  10.143
24275DOPC   C4A 6003  20.693   6.061  10.393
24275DOPC   C1B 6004  20.113   6.581   9.043
24275DOPC   D2B 6005  20.443   6.461   9.393
24275DOPC   C3B 6006  20.803   6.141   9.533
24275DOPC   C4B 6007  20.883   5.691   9.493
24276DOPC   NC3 6008   1.957   1.291   3.513
24276DOPC   PO4 6009   1.847   0.911   3.513
24276DOPC   GL1 6010   1.777   0.871   4.023
24276DOPC   GL2 6011   1.897   1.171   4.063
24276DOPC   C1A 6012   1.417   0.681   4.273
24276DOPC   D2A 6013   0.967   0.501   4.123
24276DOPC   C3A 6014   0.627   0.591   4.363
24276DOPC   C4A 6015   0.387   0.761   4.803
24276DOPC   C1B 6016   2.027   1.081   4.473
24276DOPC   D2B 6017   2.377   0.851   4.673
24276DOPC   C3B 6018   2.537   0.681   5.133
24276DOPC   C4B 6019   2.637   0.501   5.583
24277DOPC   NC3 6020  14.143   7.632  11.933
24277DOPC   PO4 6021  13.793   7.752  11.763
24277DOPC   GL1 6022  13.583   0.021  12.093
24277DOPC   GL2 6023  13.763   0.061  12.333
24277DOPC   C1A 6024  13.213   7.752  12.333
24277DOPC   D2A 6025  12.813   0.211  12.423
24277DOPC   C3A 6026  12.743   0.601  12.163
24277DOPC   C4A 6027  12.363   0.911  12.163
24277DOPC   C1B 6028  13.723   0.281  12.733
24277DOPC   D2B 6029  13.593   0.431  13.213
24277DOPC   C3B 6030  13.583   0.671  13.593
24277DOPC   C4B 6031  13.263   1.021  13.793
24278DOPC   NC3 6032  20.643   2.621   5.783
24278DOPC   PO4 6033  21.033   2.741   5.813
24278DOPC   GL1 6034  21.293   2.531   6.103
24278DOPC   GL2 6035  21.203   2.311   6.263
24278DOPC   C1A 6036  21.583   2.491   6.493
24278DOPC   D2A 6037  21.803   2.461   6.983
24278DOPC   C3A 6038  22.253   2.471   6.793
24278DOPC   C4A 6039  22.723   2.381   6.873
24278DOPC   C1B 6040  21.123   2.621   6.633
24278DOPC   D2B 6041  21.113   2.861   7.103
24278DOPC   C3B 6042  21.263   3.051   7.503
24278DOPC   C4B 6043  21.653   3.131   7.823
24279DOPC   NC3 6044  19.783   3.251   7.193
24279DOPC   PO4 6045  19.933   3.341   6.843
24279DOPC   GL1 6046  20.343   3.331   6.753
24279DOPC   GL2 6047  20.423   3.621   6.643
24279DOPC   C1A 6048  20.713   3.181   7.033
24279DOPC   D2A 6049  21.153   3.431   7.033
24279DOPC   C3A 6050  21.563   3.341   7.243
24279DOPC   C4A 6051  21.933   3.271   7.353
24279DOPC   C1B 6052  20.683   3.981   6.713
24279DOPC   D2B 6053  21.113   4.211   6.503
24279DOPC   C3B 6054  21.533   4.141   6.693
24279DOPC   C4B 6055  22.043   4.181   6.913
24280DOPC   NC3 6056  22.193   3.501   4.553
24280DOPC   PO4 6057  21.963   3.721   4.783
24280DOPC   GL1 6058  22.303   3.891   4.903
24280DOPC   GL2 6059  22.353   3.651   5.013
24280DOPC   C1A 6060  22.603   4.061   5.223
24280DOPC   D2A 6061  22.933   4.181   5.543
24280DOPC   C3A 6062  23.273   4.301   5.853
24280DOPC   C4A 6063  23.523   4.461   6.143
24280DOPC   C1B 6064  22.613   3.591   5.343
24280DOPC   D2B 6065  23.013   3.401   5.703
24280DOPC   C3B 6066  23.333   3.461   6.083
24280DOPC   C4B 6067  23.683   3.521   6.433
24281DOPC   NC3 6068   8.577   4.861   6.483
24281DOPC   PO4 6069   8.597   4.631   6.813
24281DOPC   GL1 6070   8.517   4.381   7.193
24281DOPC   GL2 6071   8.587   4.741   7.253
24281DOPC   C1A 6072   8.077   4.391   7.403
24281DOPC   D2A 6073   7.617   4.381   7.583
24281DOPC   C3A 6074   7.347   4.421   7.933
24281DOPC   C4A 6075   7.217   4.381   8.383
24281DOPC   C1B 6076   8.367   4.791   7.603
24281DOPC   D2B 6077   7.927   4.811   7.913
24281DOPC   C3B 6078   7.817   5.131   8.273
24281DOPC   C4B 6079   7.437   5.291   8.483
24282DOPC   NC3 6080   9.367   7.151   7.273
24282DOPC   PO4 6081   9.087   6.941   7.473
24282DOPC   GL1 6082   8.727   7.021   7.713
24282DOPC   GL2 6083   8.737   6.751   7.733
24282DOPC   C1A 6084   8.647   7.031   8.123
24282DOPC   D2A 6085   8.647   6.791   8.543
24282DOPC   C3A 6086   8.367   6.781   8.913
24282DOPC   C4A 6087   8.107   6.611   9.253
24282DOPC   C1B 6088   8.567   6.531   8.053
24282DOPC   D2B 6089   8.617   6.261   8.473
24282DOPC   C3B 6090   8.277   6.171   8.853
24282DOPC   C4B 6091   8.157   6.061   9.313
24283DOPC   NC3 6092   7.597   1.011   5.663
24283DOPC   PO4 6093   7.837   1.111   5.923
24283DOPC   GL1 6094   7.847   1.091   6.373
24283DOPC   GL2 6095   7.567   0.981   6.213
24283DOPC   C1A 6096   7.777   1.041   6.823
24283DOPC   D2A 6097   7.577   1.141   7.243
24283DOPC   C3A 6098   7.527   1.291   7.733
24283DOPC   C4A 6099   7.157   1.451   8.023
24283DOPC   C1B 6100   7.177   1.051   6.313
24283DOPC   D2B 6101   6.797   1.271   6.633
24283DOPC   C3B 6102   6.457   1.081   6.883
24283DOPC   C4B 6103   6.077   0.891   7.163
24284DOPC   NC3 6104  23.973   1.321   3.433
24284DOPC   PO4 6105  24.273   1.571   3.423
24284DOPC   GL1 6106  24.153   1.661   3.753
24284DOPC   GL2 6107  24.013   1.891   3.783
24284DOPC   C1A 6108  23.983   1.641   4.153
24284DOPC   D2A 6109  24.073   1.931   4.563
24284DOPC   C3A 6110  24.333   1.791   4.903
24284DOPC   C4A 6111  24.233   1.461   5.233
24284DOPC   C1B 6112  24.003   2.171   4.083
24284DOPC   D2B 6113  23.853   2.441   4.493
24284DOPC   C3B 6114  23.903   2.391   4.913
24284DOPC   C4B 6115  23.993   2.481   5.353
24285DOPC   NC3 6116  23.693   0.441   4.353
24285DOPC   PO4 6117  23.893   0.151   4.193
24285DOPC   GL1 6118  24.033   0.141   4.523
24285DOPC   GL2 6119  24.143   0.401   4.403
24285DOPC   C1A 6120  24.373   7.652   4.643
24285DOPC   D2A 6121  24.733   7.592   4.963
24285DOPC   C3A 6122  24.963   7.772   5.323
24285DOPC   C4A 6123   0.447   0.021   5.573
24285DOPC   C1B 6124  24.413   0.701   4.633
24285DOPC   D2B 6125  24.823   0.851   4.853
24285DOPC   C3B 6126  24.923   0.931   5.303
24285DOPC   C4B 6127   0.077   1.141   5.753
24286DOPC   NC3 6128  11.553   6.191  10.243
24286DOPC   PO4 6129  11.273   5.921  10.123
24286DOPC   GL1 6130  10.823   6.041  10.163
24286DOPC   GL2 6131  10.813   5.721  10.173
24286DOPC   C1A 6132  10.663   6.161  10.533
24286DOPC   D2A 6133  10.503   5.901  10.943
24286DOPC   C3A 6134  10.097   6.011  11.173
24286DOPC   C4A 6135   9.767   6.111  11.533
24286DOPC   C1B 6136  10.553   5.671  10.503
24286DOPC   D2B 6137  10.087   5.631  10.723
24286DOPC   C3B 6138   9.627   5.441  10.683
24286DOPC   C4B 6139   9.157   5.301  10.673
24287DOPC   NC3 6140  17.473   4.161  10.913
24287DOPC   PO4 6141  17.383   3.811  11.043
24287DOPC   GL1 6142  17.633   3.861  11.363
24287DOPC   GL2 6143  17.773   4.041  11.263
24287DOPC   C1A 6144  17.753   3.681  11.803
24287DOPC   D2A 6145  18.083   3.741  12.193
24287DOPC   C3A 6146  18.393   3.541  12.453
24287DOPC   C4A 6147  18.563   3.081  12.633
24287DOPC   C1B 6148  18.083   3.881  11.543
24287DOPC   D2B 6149  18.393   3.641  11.823
24287DOPC   C3B 6150  18.713   3.281  11.953
24287DOPC   C4B 6151  18.313   3.101  12.223
24288DOPC   NC3 6152  16.993   0.021  10.823
24288DOPC   PO4 6153  17.383   0.101  10.733
24288DOPC   GL1 6154  17.533   7.672  11.043
24288DOPC   GL2 6155  17.763   7.732  11.003
24288DOPC   C1A 6156  17.593   7.722  11.423
24288DOPC   D2A 6157  17.913   7.702  11.823
24288DOPC   C3A 6158  18.343   7.702  11.843
24288DOPC   C4A 6159  18.833   7.652  11.783
24288DOPC   C1B 6160  18.063   7.712  11.333
24288DOPC   D2B 6161  18.553   7.572  11.403
24288DOPC   C3B 6162  18.603   7.141  11.553
24288DOPC   C4B 6163  18.783   6.761  11.823
24289DOPC   NC3 6164   3.327   3.471   3.433
24289DOPC   PO4 6165   2.947   3.591   3.493
24289DOPC   GL1 6166   2.837   3.631   3.873
24289DOPC   GL2 6167   2.897   3.301   3.943
24289DOPC   C1A 6168   2.837   3.771   4.293
24289DOPC   D2A 6169   2.717   4.091   4.703
24289DOPC   C3A 6170   2.387   3.881   4.903
24289DOPC   C4A 6171   2.137   3.661   5.273
24289DOPC   C1B 6172   3.047   3.331   4.353
24289DOPC   D2B 6173   2.877   3.621   4.763
24289DOPC   C3B 6174   2.567   3.431   5.043
24289DOPC   C4B 6175   2.277   3.091   5.183
24290DOPC   NC3 6176  21.713   4.861   4.643
24290DOPC   PO4 6177  22.063   4.881   4.773
24290DOPC   GL1 6178  22.053   4.901   5.143
24290DOPC   GL2 6179  21.943   4.541   5.143
24290DOPC   C1A 6180  22.443   5.011   5.293
24290DOPC   D2A 6181  22.893   5.151   5.423
24290DOPC   C3A 6182  23.063   5.571   5.463
24290DOPC   C4A 6183  23.293   5.801   5.753
24290DOPC   C1B 6184  22.113   4.171   5.313
24290DOPC   D2B 6185  22.213   3.821   5.603
24290DOPC   C3B 6186  22.653   3.841   5.793
24290DOPC   C4B 6187  23.043   3.881   5.983
24291DOPC   NC3 6188  13.713   0.441  11.793
24291DOPC   PO4 6189  14.003   0.361  12.033
24291DOPC   GL1 6190  13.733   0.521  12.283
24291DOPC   GL2 6191  13.923   0.661  12.483
24291DOPC   C1A 6192  13.383   0.501  12.433
24291DOPC   D2A 6193  13.213   0.311  12.823
24291DOPC   C3A 6194  13.113   0.331  13.273
24291DOPC   C4A 6195  12.803   0.201  13.613
24291DOPC   C1B 6196  14.053   0.611  12.893
24291DOPC   D2B 6197  14.093   0.531  13.373
24291DOPC   C3B 6198  13.783   0.191  13.613
24291DOPC   C4B 6199  13.333   0.251  13.793
24292DOPC   NC3 6200  18.403   6.491   8.533
24292DOPC   PO4 6201  18.653   6.211   8.633
24292DOPC   GL1 6202  18.943   6.151   8.933
24292DOPC   GL2 6203  19.183   6.231   8.873
24292DOPC   C1A 6204  18.983   5.911   9.293
24292DOPC   D2A 6205  19.343   5.791   9.603
24292DOPC   C3A 6206  19.713   6.031   9.443
24292DOPC   C4A 6207  20.163   6.081   9.663
24292DOPC   C1B 6208  19.353   6.361   9.263
24292DOPC   D2B 6209  19.443   6.321   9.733
24292DOPC   C3B 6210  19.733   6.121  10.023
24292DOPC   C4B 6211  20.033   5.931  10.323
24293DOPC   NC3 6212  20.813   7.302   5.703
24293DOPC   PO4 6213  20.963   7.652   5.743
24293DOPC   GL1 6214  21.253   7.502   6.043
24293DOPC   GL2 6215  21.083   7.292   6.123
24293DOPC   C1A 6216  21.643   7.342   6.063
24293DOPC   D2A 6217  21.963   7.071   6.273
24293DOPC   C3A 6218  22.023   6.671   6.463
24293DOPC   C4A 6219  21.863   6.221   6.463
24293DOPC   C1B 6220  21.403   7.121   6.403
24293DOPC   D2B 6221  21.753   6.991   6.793
24293DOPC   C3B 6222  22.153   6.791   6.973
24293DOPC   C4B 6223  22.543   6.461   7.183
24294DOPC   NC3 6224   3.447   0.581   4.093
24294DOPC   PO4 6225   3.857   0.531   4.203
24294DOPC   GL1 6226   3.757   0.651   4.563
24294DOPC   GL2 6227   3.567   0.401   4.503
24294DOPC   C1A 6228   3.827   1.021   4.823
24294DOPC   D2A 6229   3.797   1.221   5.273
24294DOPC   C3A 6230   3.797   1.001   5.633
24294DOPC   C4A 6231   3.597   0.881   6.033
24294DOPC   C1B 6232   3.547   0.051   4.813
24294DOPC   D2B 6233   3.527   7.562   5.253
24294DOPC   C3B 6234   3.637   7.772   5.703
24294DOPC   C4B 6235   3.967   0.251   5.973
24295DOPC   NC3 6236  21.313   5.201   5.273
24295DOPC   PO4 6237  21.253   4.931   5.533
24295DOPC   GL1 6238  21.483   5.021   5.893
24295DOPC   GL2 6239  21.573   4.701   5.903
24295DOPC   C1A 6240  21.543   5.161   6.303
24295DOPC   D2A 6241  21.263   5.471   6.573
24295DOPC   C3A 6242  21.683   5.611   6.793
24295DOPC   C4A 6243  22.083   5.921   6.803
24295DOPC   C1B 6244  21.943   4.711   6.063
24295DOPC   D2B 6245  22.393   4.711   6.123
24295DOPC   C3B 6246  22.643   5.001   6.393
24295DOPC   C4B 6247  22.763   5.171   6.823
24296DOPC   NC3 6248   4.137   1.191   4.123
24296DOPC   PO4 6249   3.877   1.411   3.983
24296DOPC   GL1 6250   3.687   1.521   4.353
24296DOPC   GL2 6251   3.947   1.501   4.443
24296DOPC   C1A 6252   3.467   1.351   4.703
24296DOPC   D2A 6253   3.297   1.031   5.033
24296DOPC   C3A 6254   3.377   0.811   5.423
24296DOPC   C4A 6255   3.637   0.491   5.683
24296DOPC   C1B 6256   3.827   1.721   4.763
24296DOPC   D2B 6257   3.857   1.781   5.253
24296DOPC   C3B 6258   3.697   1.701   5.703
24296DOPC   C4B 6259   3.627   1.941   6.123
24297DOPC   NC3 6260  10.217   5.481   9.043
24297DOPC   PO4 6261  10.473   5.601   9.353
24297DOPC   GL1 6262  10.237   5.491   9.673
24297DOPC   GL2 6263  10.313   5.481   9.963
24297DOPC   C1A 6264   9.887   5.331   9.513
24297DOPC   D2A 6265   9.567   5.071   9.713
24297DOPC   C3A 6266   9.487   4.631   9.573
24297DOPC   C4A 6267   9.467   4.231   9.333
24297DOPC   C1B 6268  10.157   5.421  10.323
24297DOPC   D2B 6269   9.977   5.071  10.653
24297DOPC   C3B 6270   9.997   4.631  10.393
24297DOPC   C4B 6271  10.197   4.251  10.063
24298DOPC   NC3 6272  14.313   0.641  12.283
24298DOPC   PO4 6273  14.323   1.031  12.203
24298DOPC   GL1 6274  14.123   1.181  12.443
24298DOPC   GL2 6275  13.893   1.381  12.293
24298DOPC   C1A 6276  13.963   1.141  12.853
24298DOPC   D2A 6277  13.773   0.931  13.213
24298DOPC   C3A 6278  14.153   1.091  13.493
24298DOPC   C4A 6279  14.343   1.401  13.793
24298DOPC   C1B 6280  13.673   1.541  12.603
24298DOPC   D2B 6281  13.823   1.921  12.953
24298DOPC   C3B 6282  13.673   1.841  13.433
24298DOPC   C4B 6283  13.403   1.771  13.783
24299DOPC   NC3 6284   1.817   3.731   3.043
24299DOPC   PO4 6285   2.137   3.701   3.263
24299DOPC   GL1 6286   2.057   3.641   3.643
24299DOPC   GL2 6287   1.977   3.871   3.773
24299DOPC   C1A 6288   2.057   3.351   3.913
24299DOPC   D2A 6289   1.917   3.351   4.373
24299DOPC   C3A 6290   1.937   3.451   4.853
24299DOPC   C4A 6291   1.647   3.341   5.323
24299DOPC   C1B 6292   1.867   3.931   4.133
24299DOPC   D2B 6293   2.067   3.911   4.533
24299DOPC   C3B 6294   2.367   3.531   4.583
24299DOPC   C4B 6295   2.687   3.161   4.633
24300DOPC   NC3 6296  16.643   2.471  11.323
24300DOPC   PO4 6297  16.993   2.371  11.233
24300DOPC   GL1 6298  17.373   2.501  11.263
24300DOPC   GL2 6299  17.373   2.831  11.223
24300DOPC   C1A 6300  17.553   2.241  11.573
24300DOPC   D2A 6301  17.903   1.961  11.833
24300DOPC   C3A 6302  18.183   2.011  12.253
24300DOPC   C4A 6303  18.413   1.841  12.673
24300DOPC   C1B 6304  17.783   2.951  11.413
24300DOPC   D2B 6305  18.213   2.891  11.513
24300DOPC   C3B 6306  18.533   3.171  11.543
24300DOPC   C4B 6307  19.023   3.351  11.553
24301DOPC   NC3 6308  10.443   4.691   9.533
24301DOPC   PO4 6309  10.653   4.361   9.483
24301DOPC   GL1 6310  10.523   4.071   9.773
24301DOPC   GL2 6311  10.493   3.821   9.603
24301DOPC   C1A 6312  10.157   3.831   9.843
24301DOPC   D2A 6313   9.717   3.761   9.883
24301DOPC   C3A 6314   9.347   3.741  10.183
24301DOPC   C4A 6315   8.987   4.031  10.363
24301DOPC   C1B 6316  10.333   3.401   9.693
24301DOPC   D2B 6317  10.343   2.951   9.743
24301DOPC   C3B 6318  10.007   2.971  10.043
24301DOPC   C4B 6319   9.677   3.321  10.253
24302DOPC   NC3 6320  15.983   4.941  11.913
24302DOPC   PO4 6321  15.913   4.541  11.683
24302DOPC   GL1 6322  16.113   4.371  11.953
24302DOPC   GL2 6323  16.333   4.501  12.023
24302DOPC   C1A 6324  16.063   4.131  12.263
24302DOPC   D2A 6325  15.923   3.891  12.653
24302DOPC   C3A 6326  15.963   3.651  13.083
24302DOPC   C4A 6327  15.763   3.741  13.493
24302DOPC   C1B 6328  16.503   4.461  12.473
24302DOPC   D2B 6329  16.523   4.851  12.843
24302DOPC   C3B 6330  16.833   5.121  12.993
24302DOPC   C4B 6331  17.283   5.371  13.023
24303DOPC   NC3 6332  10.433   0.551   7.823
24303DOPC   PO4 6333  10.137   0.721   7.973
24303DOPC   GL1 6334   9.817   0.961   7.873
24303DOPC   GL2 6335   9.657   0.831   8.133
24303DOPC   C1A 6336   9.427   0.951   7.653
24303DOPC   D2A 6337   8.977   0.901   7.873
24303DOPC   C3A 6338   8.897   0.621   8.263
24303DOPC   C4A 6339   9.037   0.301   8.643
24303DOPC   C1B 6340   9.317   0.981   8.263
24303DOPC   D2B 6341   8.967   0.961   8.653
24303DOPC   C3B 6342   9.277   0.791   8.963
24303DOPC   C4B 6343   9.777   0.731   9.143
24304DOPC   NC3 6344  10.623   0.181   8.543
24304DOPC   PO4 6345  10.373   0.431   8.393
24304DOPC   GL1 6346   9.957   0.491   8.623
24304DOPC   GL2 6347  10.017   0.311   8.833
24304DOPC   C1A 6348   9.637   0.881   8.613
24304DOPC   D2A 6349   9.697   1.391   8.703
24304DOPC   C3A 6350   9.447   1.481   9.043
24304DOPC   C4A 6351   9.267   1.561   9.463
24304DOPC   C1B 6352   9.767   0.181   9.163
24304DOPC   D2B 6353   9.467   0.411   9.403
24304DOPC   C3B 6354   9.027   0.491   9.403
24304DOPC   C4B 6355   8.657   0.761   9.323
24305DOPC   NC3 6356  19.563   5.331   8.683
24305DOPC   PO4 6357  19.163   5.201   8.723
24305DOPC   GL1 6358  19.243   5.431   9.003
24305DOPC   GL2 6359  19.163   5.581   9.063
24305DOPC   C1A 6360  19.583   5.411   9.343
24305DOPC   D2A 6361  19.783   5.581   9.753
24305DOPC   C3A 6362  19.763   5.491  10.223
24305DOPC   C4A 6363  19.903   5.621  10.683
24305DOPC   C1B 6364  19.463   5.871   9.033
24305DOPC   D2B 6365  19.853   6.161   8.983
24305DOPC   C3B 6366  20.303   6.001   9.123
24305DOPC   C4B 6367  20.763   5.811   9.073
24306DOPC   NC3 6368   6.867   6.471   4.513
24306DOPC   PO4 6369   6.607   6.351   4.823
24306DOPC   GL1 6370   6.287   6.111   4.903
24306DOPC   GL2 6371   6.117   6.461   4.853
24306DOPC   C1A 6372   6.117   5.921   5.263
24306DOPC   D2A 6373   5.817   5.971   5.643
24306DOPC   C3A 6374   5.557   5.581   5.613
24306DOPC   C4A 6375   5.397   5.121   5.583
24306DOPC   C1B 6376   5.967   6.811   5.173
24306DOPC   D2B 6377   5.677   6.881   5.533
24306DOPC   C3B 6378   5.417   6.741   5.833
24306DOPC   C4B 6379   5.057   6.501   6.113
24307DOPC   NC3 6380  17.343   5.081  10.993
24307DOPC   PO4 6381  17.573   5.241  10.733
24307DOPC   GL1 6382  17.943   5.501  10.743
24307DOPC   GL2 6383  17.743   5.741  10.753
24307DOPC   C1A 6384  18.213   5.511  10.983
24307DOPC   D2A 6385  18.703   5.591  11.243
24307DOPC   C3A 6386  18.933   6.021  11.413
24307DOPC   C4A 6387  19.003   6.531  11.443
24307DOPC   C1B 6388  17.813   5.761  11.203
24307DOPC   D2B 6389  17.883   5.991  11.663
24307DOPC   C3B 6390  17.793   5.621  11.923
24307DOPC   C4B 6391  17.893   5.501  12.413
24308DOPC   NC3 6392   6.437   0.951   4.763
24308DOPC   PO4 6393   6.087   1.161   4.693
24308DOPC   GL1 6394   5.747   1.321   4.953
24308DOPC   GL2 6395   5.577   1.041   4.813
24308DOPC   C1A 6396   5.747   1.311   5.393
24308DOPC   D2A 6397   5.867   1.411   5.803
24308DOPC   C3A 6398   5.797   1.331   6.243
24308DOPC   C4A 6399   5.977   1.191   6.653
24308DOPC   C1B 6400   5.457   0.901   5.223
24308DOPC   D2B 6401   5.507   0.961   5.673
24308DOPC   C3B 6402   5.467   0.951   6.133
24308DOPC   C4B 6403   5.657   0.811   6.523
24309DOPC   NC3 6404  10.543   6.361   9.753
24309DOPC   PO4 6405  10.533   6.081   9.473
24309DOPC   GL1 6406  10.313   5.891   9.763
24309DOPC   GL2 6407  10.443   5.881   9.993
24309DOPC   C1A 6408   9.947   5.851   9.913
24309DOPC   D2A 6409   9.697   5.721  10.243
24309DOPC   C3A 6410   9.277   5.701  10.313
24309DOPC   C4A 6411   8.817   5.481  10.293
24309DOPC   C1B 6412  10.127   5.981  10.353
24309DOPC   D2B 6413   9.787   6.011  10.703
24309DOPC   C3B 6414   9.357   6.161  10.583
24309DOPC   C4B 6415   8.867   6.181  10.703
24310DOPC   NC3 6416  16.213   2.921  11.193
24310DOPC   PO4 6417  16.543   2.901  11.483
24310DOPC   GL1 6418  16.843   2.771  11.793
24310DOPC   GL2 6419  17.003   2.791  11.493
24310DOPC   C1A 6420  17.113   3.021  11.993
24310DOPC   D2A 6421  17.373   3.041  12.363
24310DOPC   C3A 6422  17.513   2.761  12.663
24310DOPC   C4A 6423  17.833   2.571  13.033
24310DOPC   C1B 6424  17.373   2.711  11.663
24310DOPC   D2B 6425  17.833   2.601  11.803
24310DOPC   C3B 6426  18.213   2.611  12.053
24310DOPC   C4B 6427  18.533   2.561  12.463
24311DOPC   NC3 6428  15.863   4.061  11.753
24311DOPC   PO4 6429  16.013   3.791  11.513
24311DOPC   GL1 6430  16.173   3.681  11.903
24311DOPC   GL2 6431  16.333   3.841  11.863
24311DOPC   C1A 6432  16.163   3.611  12.293
24311DOPC   D2A 6433  16.493   3.721  12.733
24311DOPC   C3A 6434  16.363   4.151  12.863
24311DOPC   C4A 6435  16.253   4.591  13.153
24311DOPC   C1B 6436  16.543   3.981  12.243
24311DOPC   D2B 6437  16.883   4.121  12.703
24311DOPC   C3B 6438  17.183   4.141  13.033
24311DOPC   C4B 6439  17.303   4.151  13.443
24312DOPC   NC3 6440  18.503   4.291   9.443
24312DOPC   PO4 6441  18.673   3.931   9.313
24312DOPC   GL1 6442  19.003   3.791   9.613
24312DOPC   GL2 6443  18.803   4.071   9.773
24312DOPC   C1A 6444  19.283   3.561   9.913
24312DOPC   D2A 6445  19.663   3.471  10.173
24312DOPC   C3A 6446  19.593   3.331  10.643
24312DOPC   C4A 6447  19.583   2.961  10.993
24312DOPC   C1B 6448  18.853   3.781  10.103
24312DOPC   D2B 6449  18.753   3.371  10.363
24312DOPC   C3B 6450  19.003   3.271  10.763
24312DOPC   C4B 6451  19.313   3.401  11.153
24313DOPC   NC3 6452   3.467   1.651   3.763
24313DOPC   PO4 6453   3.077   1.601   3.883
24313DOPC   GL1 6454   3.167   1.941   4.113
24313DOPC   GL2 6455   2.897   2.041   4.133
24313DOPC   C1A 6456   3.257   1.911   4.503
24313DOPC   D2A 6457   3.327   1.741   4.953
24313DOPC   C3A 6458   3.397   1.461   5.303
24313DOPC   C4A 6459   3.397   1.221   5.723
24313DOPC   C1B 6460   2.617   1.761   4.383
24313DOPC   D2B 6461   2.417   1.361   4.753
24313DOPC   C3B 6462   2.437   1.241   5.223
24313DOPC   C4B 6463   2.177   1.461   5.613
24314DOPC   NC3 6464  12.803   4.481  11.733
24314DOPC   PO4 6465  13.153   4.711  11.873
24314DOPC   GL1 6466  12.993   4.971  12.083
24314DOPC   GL2 6467  13.063   5.221  11.963
24314DOPC   C1A 6468  12.703   4.981  12.483
24314DOPC   D2A 6469  12.363   5.011  12.823
24314DOPC   C3A 6470  12.253   5.431  12.833
24314DOPC   C4A 6471  12.373   5.881  12.983
24314DOPC   C1B 6472  12.873   5.501  12.233
24314DOPC   D2B 6473  12.483   5.711  12.493
24314DOPC   C3B 6474  12.113   6.041  12.543
24314DOPC   C4B 6475  11.753   6.341  12.663
24315DOPC   NC3 6476  13.833   6.371  11.803
24315DOPC   PO4 6477  13.553   6.221  11.583
24315DOPC   GL1 6478  13.333   6.041  11.863
24315DOPC   GL2 6479  13.423   6.181  12.133
24315DOPC   C1A 6480  12.943   5.901  11.963
24315DOPC   D2A 6481  12.383   5.881  11.973
24315DOPC   C3A 6482  12.073   5.691  11.663
24315DOPC   C4A 6483  11.873   5.491  11.193
24315DOPC   C1B 6484  13.153   6.401  12.513
24315DOPC   D2B 6485  13.063   6.461  13.003
24315DOPC   C3B 6486  13.273   6.321  13.423
24315DOPC   C4B 6487  13.273   5.851  13.603
24316DOPC   NC3 6488   3.437   5.751   3.583
24316DOPC   PO4 6489   3.777   5.941   3.483
24316DOPC   GL1 6490   3.907   5.901   3.903
24316DOPC   GL2 6491   3.687   5.781   4.023
24316DOPC   C1A 6492   3.797   6.221   4.223
24316DOPC   D2A 6493   3.727   6.481   4.593
24316DOPC   C3A 6494   3.567   6.531   5.023
24316DOPC   C4A 6495   3.477   6.291   5.443
24316DOPC   C1B 6496   3.577   5.701   4.403
24316DOPC   D2B 6497   3.427   5.471   4.793
24316DOPC   C3B 6498   3.267   5.171   5.133
24316DOPC   C4B 6499   2.867   4.941   5.403
24317DOPC   NC3 6500  14.793   3.531  11.713
24317DOPC   PO4 6501  14.483   3.651  11.943
24317DOPC   GL1 6502  14.393   3.681  12.363
24317DOPC   GL2 6503  14.423   3.381  12.403
24317DOPC   C1A 6504  14.463   4.031  12.773
24317DOPC   D2A 6505  14.533   4.431  13.033
24317DOPC   C3A 6506  14.463   4.761  13.333
24317DOPC   C4A 6507  14.543   5.151  13.703
24317DOPC   C1B 6508  14.153   3.471  12.733
24317DOPC   D2B 6509  13.973   3.821  13.083
24317DOPC   C3B 6510  13.973   3.911  13.513
24317DOPC   C4B 6511  14.053   4.041  13.993
24318DOPC   NC3 6512  19.643   1.751   6.413
24318DOPC   PO4 6513  19.963   1.631   6.593
24318DOPC   GL1 6514  20.033   1.861   7.013
24318DOPC   GL2 6515  20.263   1.611   6.973
24318DOPC   C1A 6516  20.203   2.151   7.303
24318DOPC   D2A 6517  20.423   2.491   7.573
24318DOPC   C3A 6518  20.553   2.941   7.523
24318DOPC   C4A 6519  20.863   3.311   7.553
24318DOPC   C1B 6520  20.463   1.391   7.223
24318DOPC   D2B 6521  20.913   1.441   7.473
24318DOPC   C3B 6522  21.103   1.741   7.203
24318DOPC   C4B 6523  21.533   1.921   7.003
24319DOPC   NC3 6524  21.223   4.471   4.973
24319DOPC   PO4 6525  21.423   4.791   5.083
24319DOPC   GL1 6526  21.703   4.761   5.423
24319DOPC   GL2 6527  21.693   5.041   5.523
24319DOPC   C1A 6528  22.173   4.691   5.553
24319DOPC   D2A 6529  22.663   4.721   5.683
24319DOPC   C3A 6530  22.943   4.851   5.993
24319DOPC   C4A 6531  23.073   4.641   6.343
24319DOPC   C1B 6532  22.113   5.181   5.653
24319DOPC   D2B 6533  22.593   5.181   5.833
24319DOPC   C3B 6534  23.023   5.421   6.013
24319DOPC   C4B 6535  23.383   5.681   6.233
24320DOPC   NC3 6536  11.853   1.341  11.113
24320DOPC   PO4 6537  11.683   1.501  10.833
24320DOPC   GL1 6538  11.323   1.581  10.903
24320DOPC   GL2 6539  11.343   1.431  11.143
24320DOPC   C1A 6540  10.953   1.651  10.813
24320DOPC   D2A 6541  10.503   1.851  10.893
24320DOPC   C3A 6542   9.997   1.851  10.863
24320DOPC   C4A 6543   9.627   2.091  11.093
24320DOPC   C1B 6544  10.943   1.511  11.353
24320DOPC   D2B 6545  10.523   1.661  11.403
24320DOPC   C3B 6546  10.197   2.021  11.303
24320DOPC   C4B 6547   9.877   2.371  11.443
24321DOPC   NC3 6548  12.943   6.441  11.113
24321DOPC   PO4 6549  12.543   6.531  11.063
24321DOPC   GL1 6550  12.233   6.691  11.253
24321DOPC   GL2 6551  12.393   6.551  11.583
24321DOPC   C1A 6552  11.873   6.501  11.353
24321DOPC   D2A 6553  11.413   6.381  11.173
24321DOPC   C3A 6554  11.233   6.141  11.593
24321DOPC   C4A 6555  11.033   5.791  11.863
24321DOPC   C1B 6556  12.613   6.351  11.883
24321DOPC   D2B 6557  12.713   6.131  12.303
24321DOPC   C3B 6558  12.543   6.351  12.703
24321DOPC   C4B 6559  12.353   6.451  13.133
24322DOPC   NC3 6560   3.037   7.782   3.943
24322DOPC   PO4 6561   3.037   0.331   3.793
24322DOPC   GL1 6562   2.967   0.441   4.193
24322DOPC   GL2 6563   2.717   0.201   4.123
24322DOPC   C1A 6564   3.127   0.231   4.533
24322DOPC   D2A 6565   3.107   0.051   4.973
24322DOPC   C3A 6566   3.397   0.201   5.333
24322DOPC   C4A 6567   3.867   0.141   5.273
24322DOPC   C1B 6568   2.687   7.732   4.503
24322DOPC   D2B 6569   2.767   7.522   4.953
24322DOPC   C3B 6570   3.017   7.492   5.343
24322DOPC   C4B 6571   3.277   7.332   5.673
24323DOPC   NC3 6572  19.973   4.991   6.683
24323DOPC   PO4 6573  20.323   4.791   6.523
24323DOPC   GL1 6574  20.673   4.721   6.753
24323DOPC   GL2 6575  20.703   4.451   6.743
24323DOPC   C1A 6576  20.993   5.021   6.883
24323DOPC   D2A 6577  21.343   5.361   7.043
24323DOPC   C3A 6578  21.393   5.241   7.523
24323DOPC   C4A 6579  21.733   5.111   7.863
24323DOPC   C1B 6580  21.123   4.521   6.843
24323DOPC   D2B 6581  21.573   4.431   7.093
24323DOPC   C3B 6582  22.003   4.671   7.063
24323DOPC   C4B 6583  22.403   4.791   6.873
24324DOPC   NC3 6584  10.403   7.161   8.083
24324DOPC   PO4 6585  10.353   7.292   8.463
24324DOPC   GL1 6586   9.977   7.121   8.683
24324DOPC   GL2 6587   9.817   7.342   8.523
24324DOPC   C1A 6588   9.887   6.991   9.063
24324DOPC   D2A 6589   9.827   6.991   9.533
24324DOPC   C3A 6590   9.667   7.332   9.813
24324DOPC   C4A 6591   9.217   7.472  10.003
24324DOPC   C1B 6592   9.537   7.552   8.783
24324DOPC   D2B 6593   9.267   0.081   9.083
24324DOPC   C3B 6594   8.837   0.021   9.143
24324DOPC   C4B 6595   8.397   0.251   9.343
24325DOPC   NC3 6596  18.623   0.151   9.073
24325DOPC   PO4 6597  18.913   0.411   9.053
24325DOPC   GL1 6598  19.283   0.491   8.933
24325DOPC   GL2 6599  19.383   0.401   9.253
24325DOPC   C1A 6600  19.513   0.891   8.883
24325DOPC   D2A 6601  19.963   1.001   9.013
24325DOPC   C3A 6602  20.063   1.111   9.453
24325DOPC   C4A 6603  20.053   1.021   9.913
24325DOPC   C1B 6604  19.743   0.171   9.423
24325DOPC   D2B 6605  20.143   0.071   9.693
24325DOPC   C3B 6606  20.623   0.091   9.613
24325DOPC   C4B 6607  21.013   0.101   9.363
24326DOPC   NC3 6608  17.113   1.331  11.153
24326DOPC   PO4 6609  16.963   1.161  11.483
24326DOPC   GL1 6610  17.103   1.081  11.813
24326DOPC   GL2 6611  17.323   0.911  11.723
24326DOPC   C1A 6612  17.103   1.391  12.133
24326DOPC   D2A 6613  17.283   1.681  12.513
24326DOPC   C3A 6614  17.183   2.071  12.303
24326DOPC   C4A 6615  17.283   2.451  12.073
24326DOPC   C1B 6616  17.413   0.661  12.123
24326DOPC   D2B 6617  17.543   0.731  12.603
24326DOPC   C3B 6618  17.733   0.901  12.973
24326DOPC   C4B 6619  17.993   1.071  13.353
24327DOPC   NC3 6620   6.397   6.841   4.583
24327DOPC   PO4 6621   6.487   7.212   4.713
24327DOPC   GL1 6622   6.407   7.222   5.133
24327DOPC   GL2 6623   6.157   7.161   4.983
24327DOPC   C1A 6624   6.377   7.592   5.423
24327DOPC   D2A 6625   6.007   0.031   5.523
24327DOPC   C3A 6626   5.797   0.081   5.933
24327DOPC   C4A 6627   5.707   0.121   6.403
24327DOPC   C1B 6628   5.937   7.292   5.333
24327DOPC   D2B 6629   5.697   7.432   5.733
24327DOPC   C3B 6630   5.917   7.472   6.193
24327DOPC   C4B 6631   6.087   7.382   6.653
24328DOPC   NC3 6632  17.113   1.851  11.243
24328DOPC   PO4 6633  17.473   1.731  11.093
24328DOPC   GL1 6634  17.613   1.591  11.453
24328DOPC   GL2 6635  17.373   1.491  11.533
24328DOPC   C1A 6636  18.003   1.421  11.593
24328DOPC   D2A 6637  18.373   1.271  11.873
24328DOPC   C3A 6638  18.563   1.021  12.233
24328DOPC   C4A 6639  18.573   0.831  12.683
24328DOPC   C1B 6640  17.533   1.271  11.863
24328DOPC   D2B 6641  17.603   1.111  12.263
24328DOPC   C3B 6642  17.733   1.381  12.613
24328DOPC   C4B 6643  17.683   1.801  12.933
24329DOPC   NC3 6644   6.547   7.622   4.953
24329DOPC   PO4 6645   6.377   0.121   4.763
24329DOPC   GL1 6646   6.417   0.381   5.033
24329DOPC   GL2 6647   6.057   0.341   5.083
24329DOPC   C1A 6648   6.707   0.241   5.383
24329DOPC   D2A 6649   6.927   0.281   5.813
24329DOPC   C3A 6650   6.747   0.101   6.183
24329DOPC   C4A 6651   6.357   7.692   6.313
24329DOPC   C1B 6652   5.687   0.421   5.383
24329DOPC   D2B 6653   5.397   0.341   5.813
24329DOPC   C3B 6654   4.987   0.181   6.053
24329DOPC   C4B 6655   4.657   7.742   6.283
24330DOPC   NC3 6656  11.783   0.121   9.193
24330DOPC   PO4 6657  11.393   0.251   9.263
24330DOPC   GL1 6658  11.063   0.151   9.563
24330DOPC   GL2 6659  10.953   7.772   9.413
24330DOPC   C1A 6660  10.773   0.131   9.873
24330DOPC   D2A 6661  10.393   7.692  10.133
24330DOPC   C3A 6662  10.137   7.792  10.513
24330DOPC   C4A 6663   9.727   0.081  10.663
24330DOPC   C1B 6664  10.603   7.482   9.673
24330DOPC   D2B 6665  10.147   7.302   9.853
24330DOPC   C3B 6666   9.887   7.452  10.193
24330DOPC   C4B 6667   9.537   7.362  10.483
24331DOPC   NC3 6668  22.493   2.151   4.353
24331DOPC   PO4 6669  22.543   2.531   4.363
24331DOPC   GL1 6670  22.753   2.731   4.683
24331DOPC   GL2 6671  23.043   2.601   4.673
24331DOPC   C1A 6672  22.523   2.771   5.093
24331DOPC   D2A 6673  22.273   2.681   5.543
24331DOPC   C3A 6674  22.263   2.321   5.853
24331DOPC   C4A 6675  22.253   1.881   6.063
24331DOPC   C1B 6676  23.073   2.541   5.163
24331DOPC   D2B 6677  23.163   2.341   5.633
24331DOPC   C3B 6678  23.153   2.381   6.153
24331DOPC   C4B 6679  22.893   2.641   6.443
24332DOPC   NC3 6680  18.473   5.051   9.693
24332DOPC   PO4 6681  18.553   4.681   9.753
24332DOPC   GL1 6682  18.863   4.681  10.003
24332DOPC   GL2 6683  19.053   4.501   9.823
24332DOPC   C1A 6684  19.003   4.721  10.393
24332DOPC   D2A 6685  19.223   4.871  10.833
24332DOPC   C3A 6686  19.623   4.681  10.913
24332DOPC   C4A 6687  20.053   4.641  10.753
24332DOPC   C1B 6688  19.373   4.811   9.923
24332DOPC   D2B 6689  19.853   5.001   9.903
24332DOPC   C3B 6690  20.013   5.151   9.483
24332DOPC   C4B 6691  20.003   5.271   8.983
24333DOPC   NC3 6692  10.823   6.161   9.103
24333DOPC   PO4 6693  10.593   6.511   9.143
24333DOPC   GL1 6694  10.187   6.691   9.333
24333DOPC   GL2 6695  10.207   6.391   9.393
24333DOPC   C1A 6696   9.757   6.571   9.353
24333DOPC   D2A 6697   9.397   6.881   9.273
24333DOPC   C3A 6698   9.237   7.101   9.653
24333DOPC   C4A 6699   9.427   7.001  10.113
24333DOPC   C1B 6700  10.017   6.351   9.753
24333DOPC   D2B 6701   9.627   6.581   9.823
24333DOPC   C3B 6702   9.167   6.501   9.973
24333DOPC   C4B 6703   8.817   6.571  10.343
24334DOPC   NC3 6704  17.303   7.051  10.933
24334DOPC   PO4 6705  17.113   7.402  11.043
24334DOPC   GL1 6706  17.263   7.472  11.383
24334DOPC   GL2 6707  17.353   7.192  11.423
24334DOPC   C1A 6708  17.323   7.552  11.813
24334DOPC   D2A 6709  17.203   0.051  12.143
24334DOPC   C3A 6710  17.413   0.081  12.533
24334DOPC   C4A 6711  17.693   7.662  12.913
24334DOPC   C1B 6712  17.143   7.091  11.813
24334DOPC   D2B 6713  17.173   6.891  12.283
24334DOPC   C3B 6714  17.173   7.051  12.723
24334DOPC   C4B 6715  17.043   7.131  13.193
24335DOPC   NC3 6716  23.353   6.691   4.153
24335DOPC   PO4 6717  23.603   6.641   3.923
24335DOPC   GL1 6718  23.813   6.581   4.283
24335DOPC   GL2 6719  24.073   6.461   4.093
24335DOPC   C1A 6720  23.823   6.491   4.733
24335DOPC   D2A 6721  23.723   6.231   5.103
24335DOPC   C3A 6722  23.573   6.131   5.543
24335DOPC   C4A 6723  23.383   6.261   5.983
24335DOPC   C1B 6724  24.333   6.211   4.323
24335DOPC   D2B 6725  24.693   5.931   4.593
24335DOPC   C3B 6726  24.863   6.121   5.003
24335DOPC   C4B 6727  24.623   6.251   5.363
24336DOPC   NC3 6728  19.013   4.761   8.943
24336DOPC   PO4 6729  19.103   4.411   8.743
24336DOPC   GL1 6730  19.463   4.301   8.903
24336DOPC   GL2 6731  19.393   4.531   9.073
24336DOPC   C1A 6732  19.883   4.351   8.953
24336DOPC   D2A 6733  20.373   4.391   9.103
24336DOPC   C3A 6734  20.733   4.231   9.303
24336DOPC   C4A 6735  21.123   3.981   9.403
24336DOPC   C1B 6736  19.613   4.661   9.383
24336DOPC   D2B 6737  20.003   4.591   9.643
24336DOPC   C3B 6738  20.383   4.801   9.653
24336DOPC   C4B 6739  20.673   5.151   9.573
24337DOPC   NC3 6740  14.343   4.081  11.803
24337DOPC   PO4 6741  14.123   4.101  12.133
24337DOPC   GL1 6742  14.313   4.361  12.433
24337DOPC   GL2 6743  14.053   4.291  12.653
24337DOPC   C1A 6744  14.793   4.461  12.523
24337DOPC   D2A 6745  15.253   4.541  12.683
24337DOPC   C3A 6746  15.463   4.521  13.133
24337DOPC   C4A 6747  15.833   4.791  13.343
24337DOPC   C1B 6748  14.073   4.331  13.063
24337DOPC   D2B 6749  14.223   4.361  13.523
24337DOPC   C3B 6750  14.583   4.041  13.533
24337DOPC   C4B 6751  14.993   3.751  13.593
24338DOPC   NC3 6752  20.613   4.241   6.273
24338DOPC   PO4 6753  20.793   4.601   6.223
24338DOPC   GL1 6754  21.223   4.611   6.253
24338DOPC   GL2 6755  21.213   4.861   6.403
24338DOPC   C1A 6756  21.633   4.401   6.223
24338DOPC   D2A 6757  22.113   4.201   6.253
24338DOPC   C3A 6758  22.503   4.311   6.493
24338DOPC   C4A 6759  22.793   4.381   6.873
24338DOPC   C1B 6760  21.503   4.951   6.693
24338DOPC   D2B 6761  21.813   5.111   7.023
24338DOPC   C3B 6762  22.253   5.281   7.093
24338DOPC   C4B 6763  22.603   5.461   7.373
24339DOPC   NC3 6764  20.253   1.051   5.953
24339DOPC   PO4 6765  20.063   0.841   6.183
24339DOPC   GL1 6766  20.213   1.051   6.533
24339DOPC   GL2 6767  20.333   1.261   6.453
24339DOPC   C1A 6768  20.403   0.901   6.963
24339DOPC   D2A 6769  20.703   0.861   7.353
24339DOPC   C3A 6770  20.923   0.481   7.513
24339DOPC   C4A 6771  21.383   0.341   7.543
24339DOPC   C1B 6772  20.723   1.281   6.673
24339DOPC   D2B 6773  21.123   1.401   6.883
24339DOPC   C3B 6774  21.303   1.221   7.213
24339DOPC   C4B 6775  21.503   1.321   7.653
24340DOPA   PO4 6776  12.233   4.101  10.783
24340DOPA   GL1 6777  12.093   4.281  11.263
24340DOPA   GL2 6778  11.953   4.021  11.233
24340DOPA   C1A 6779  11.823   4.621  11.313
24340DOPA   D2A 6780  11.583   5.091  11.273
24340DOPA   C3A 6781  11.693   5.341  11.663
24340DOPA   C4A 6782  11.693   5.611  12.043
24340DOPA   C1B 6783  11.693   3.841  11.563
24340DOPA   D2B 6784  11.443   3.411  11.613
24340DOPA   C3B 6785  10.923   3.431  11.493
24340DOPA   C4B 6786  10.573   3.401  11.153
24341DOPA   PO4 6787  10.077   5.281   8.573
24341DOPA   GL1 6788  10.007   5.021   8.973
24341DOPA   GL2 6789   9.827   5.211   8.993
24341DOPA   C1A 6790   9.927   4.851   9.423
24341DOPA   D2A 6791   9.947   4.611   9.803
24341DOPA   C3A 6792   9.567   4.711  10.073
24341DOPA   C4A 6793   9.397   4.891  10.513
24341DOPA   C1B 6794   9.447   5.041   9.223
24341DOPA   D2B 6795   9.117   4.971   9.513
24341DOPA   C3B 6796   9.107   4.731   9.903
24341DOPA   C4B 6797   9.187   4.511  10.293
24342DOPA   PO4 6798  21.023   4.051   6.043
24342DOPA   GL1 6799  21.253   3.711   6.243
24342DOPA   GL2 6800  21.453   3.941   6.273
24342DOPA   C1A 6801  21.543   3.471   6.123
24342DOPA   D2A 6802  21.983   3.221   6.083
24342DOPA   C3A 6803  22.343   3.281   6.383
24342DOPA   C4A 6804  22.523   3.371   6.843
24342DOPA   C1B 6805  21.853   3.821   6.453
24342DOPA   D2B 6806  22.353   3.781   6.653
24342DOPA   C3B 6807  22.473   3.821   7.093
24342DOPA   C4B 6808  22.593   3.911   7.573
24343DOPA   PO4 6809  19.803   5.541   8.173
24343DOPA   GL1 6810  20.043   5.191   8.283
24343DOPA   GL2 6811  19.983   5.281   8.483
24343DOPA   C1A 6812  20.443   5.001   8.203
24343DOPA   D2A 6813  20.793   4.661   8.293
24343DOPA   C3A 6814  21.153   4.441   8.083
24343DOPA   C4A 6815  21.243   3.961   7.983
24343DOPA   C1B 6816  20.363   5.141   8.663
24343DOPA   D2B 6817  20.833   5.371   8.743
24343DOPA   C3B 6818  20.913   5.761   8.603
24343DOPA   C4B 6819  21.273   6.141   8.613
24344DOPA   PO4 6820   5.457   0.361   4.413
24344DOPA   GL1 6821   5.327   0.201   4.783
24344DOPA   GL2 6822   5.537   0.111   4.923
24344DOPA   C1A 6823   5.217   0.331   5.203
24344DOPA   D2A 6824   4.957   0.381   5.553
24344DOPA   C3A 6825   4.997   0.661   5.953
24344DOPA   C4A 6826   4.707   0.621   6.343
24344DOPA   C1B 6827   5.467   7.752   5.413
24344DOPA   D2B 6828   5.187   7.572   5.853
24344DOPA   C3B 6829   5.127   7.382   6.253
24344DOPA   C4B 6830   5.347   7.652   6.623
24345DOPA   PO4 6831  13.863   0.861  11.493
24345DOPA   GL1 6832  13.543   1.001  11.773
24345DOPA   GL2 6833  13.633   1.191  11.973
24345DOPA   C1A 6834  13.203   0.831  12.123
24345DOPA   D2A 6835  12.923   0.871  12.553
24345DOPA   C3A 6836  12.753   0.651  12.933
24345DOPA   C4A 6837  12.553   0.561  13.383
24345DOPA   C1B 6838  13.663   1.011  12.433
24345DOPA   D2B 6839  13.483   0.751  12.833
24345DOPA   C3B 6840  13.263   0.881  13.213
24345DOPA   C4B 6841  12.793   0.981  13.423
24346DOPA   PO4 6842  11.933   2.661  10.863
24346DOPA   GL1 6843  11.793   2.651  11.223
24346DOPA   GL2 6844  11.553   2.501  11.293
24346DOPA   C1A 6845  11.633   2.981  11.493
24346DOPA   D2A 6846  11.503   3.091  11.943
24346DOPA   C3A 6847  11.053   3.241  11.943
24346DOPA   C4A 6848  10.583   3.351  11.903
24346DOPA   C1B 6849  11.203   2.671  11.143
24346DOPA   D2B 6850  10.793   2.931  11.023
24346DOPA   C3B 6851  10.613   2.941  11.423
24346DOPA   C4B 6852  10.227   3.181  11.543
24347DOPA   PO4 6853  16.353   7.222  11.483
24347DOPA   GL1 6854  16.613   7.222  11.673
24347DOPA   GL2 6855  16.803   7.362  11.693
24347DOPA   C1A 6856  16.553   7.051  12.093
24347DOPA   D2A 6857  16.303   6.951  12.493
24347DOPA   C3A 6858  16.483   7.001  12.923
24347DOPA   C4A 6859  16.583   7.101  13.413
24347DOPA   C1B 6860  16.913   7.372  12.113
24347DOPA   D2B 6861  17.033   7.642  12.543
24347DOPA   C3B 6862  17.163   7.702  12.993
24347DOPA   C4B 6863  16.973   7.532  13.463
24348DOPA   PO4 6864  12.623   2.841  11.493
24348DOPA   GL1 6865  12.633   3.091  11.753
24348DOPA   GL2 6866  12.293   3.141  11.703
24348DOPA   C1A 6867  12.463   3.081  12.153
24348DOPA   D2A 6868  12.103   3.101  12.463
24348DOPA   C3A 6869  11.683   3.301  12.373
24348DOPA   C4A 6870  11.273   3.531  12.233
24348DOPA   C1B 6871  12.003   2.931  12.013
24348DOPA   D2B 6872  11.703   2.781  12.383
24348DOPA   C3B 6873  11.663   2.521  12.783
24348DOPA   C4B 6874  11.463   2.181  13.063
24349DOPA   PO4 6875  19.653   0.331   7.443
24349DOPA   GL1 6876  19.983   0.171   7.453
24349DOPA   GL2 6877  20.083   0.411   7.633
24349DOPA   C1A 6878  20.133   7.622   7.593
24349DOPA   D2A 6879  20.253   7.312   8.023
24349DOPA   C3A 6880  20.583   7.151   8.343
24349DOPA   C4A 6881  21.033   7.101   8.413
24349DOPA   C1B 6882  20.523   0.551   7.823
24349DOPA   D2B 6883  20.873   0.691   8.163
24349DOPA   C3B 6884  21.093   0.601   8.553
24349DOPA   C4B 6885  21.333   0.601   8.963
24350DOPA   PO4 6886  21.503   0.751   5.163
24350DOPA   GL1 6887  21.533   0.801   5.603
24350DOPA   GL2 6888  21.733   1.021   5.493
24350DOPA   C1A 6889  21.723   0.471   5.823
24350DOPA   D2A 6890  21.723   0.011   6.033
24350DOPA   C3A 6891  22.023   7.602   6.193
24350DOPA   C4A 6892  22.493   7.552   6.333
24350DOPA   C1B 6893  21.843   0.951   5.903
24350DOPA   D2B 6894  21.923   0.581   6.283
24350DOPA   C3B 6895  21.953   0.601   6.743
24350DOPA   C4B 6896  22.203   0.621   7.263
24351DOPA   PO4 6897  14.053   4.771  11.963
24351DOPA   GL1 6898  13.923   4.561  12.263
24351DOPA   GL2 6899  13.773   4.331  12.303
24351DOPA   C1A 6900  14.113   4.711  12.653
24351DOPA   D2A 6901  13.933   4.901  13.053
24351DOPA   C3A 6902  13.883   4.801  13.463
24351DOPA   C4A 6903  13.723   4.841  13.953
24351DOPA   C1B 6904  13.613   4.441  12.663
24351DOPA   D2B 6905  13.633   4.161  13.033
24351DOPA   C3B 6906  13.543   3.691  13.243
24351DOPA   C4B 6907  13.513   3.271  13.513
24352DOPA   PO4 6908   4.627   6.051   3.423
24352DOPA   GL1 6909   4.707   5.971   3.823
24352DOPA   GL2 6910   4.407   6.111   3.913
24352DOPA   C1A 6911   4.707   5.641   4.063
24352DOPA   D2A 6912   4.797   5.681   4.593
24352DOPA   C3A 6913   4.467   5.621   4.893
24352DOPA   C4A 6914   4.257   5.591   5.353
24352DOPA   C1B 6915   4.257   5.881   4.233
24352DOPA   D2B 6916   4.087   5.501   4.583
24352DOPA   C3B 6917   3.927   5.631   5.003
24352DOPA   C4B 6918   3.527   5.781   5.333
24353DOPA   PO4 6919  19.193   0.981   8.193
24353DOPA   GL1 6920  19.653   1.161   8.143
24353DOPA   GL2 6921  19.663   0.851   8.343
24353DOPA   C1A 6922  20.023   1.481   8.213
24353DOPA   D2A 6923  20.413   1.781   8.343
24353DOPA   C3A 6924  20.593   1.561   8.653
24353DOPA   C4A 6925  20.973   1.321   8.813
24353DOPA   C1B 6926  19.973   0.711   8.593
24353DOPA   D2B 6927  20.213   0.591   8.973
24353DOPA   C3B 6928  20.173   0.091   9.123
24353DOPA   C4B 6929  20.023   7.482   9.333
24354DOPA   PO4 6930  19.253   7.412   8.493
24354DOPA   GL1 6931  19.633   7.312   8.663
24354DOPA   GL2 6932  19.543   7.071   8.833
24354DOPA   C1A 6933  20.043   7.492   8.623
24354DOPA   D2A 6934  20.523   7.582   8.633
24354DOPA   C3A 6935  20.563   7.582   9.093
24354DOPA   C4A 6936  20.533   7.432   9.583
24354DOPA   C1B 6937  19.623   7.131   9.323
24354DOPA   D2B 6938  19.813   6.971   9.763
24354DOPA   C3B 6939  20.033   6.931  10.143
24354DOPA   C4B 6940  20.133   6.921  10.583
24355DOPA   PO4 6941  11.683   4.031  10.833
24355DOPA   GL1 6942  11.493   4.261  11.143
24355DOPA   GL2 6943  11.233   4.161  11.043
24355DOPA   C1A 6944  11.353   4.261  11.593
24355DOPA   D2A 6945  11.173   4.501  11.983
24355DOPA   C3A 6946  10.723   4.551  12.203
24355DOPA   C4A 6947  10.293   4.521  12.373
24355DOPA   C1B 6948  10.883   3.961  11.193
24355DOPA   D2B 6949  10.473   3.801  11.463
24355DOPA   C3B 6950  10.077   3.571  11.263
24355DOPA   C4B 6951   9.597   3.621  11.253
24356DOPA   PO4 6952  12.773   6.831  11.413
24356DOPA   GL1 6953  12.663   7.182  11.753
24356DOPA   GL2 6954  12.533   6.921  11.793
24356DOPA   C1A 6955  12.963   7.071  12.073
24356DOPA   D2A 6956  12.943   6.921  12.543
24356DOPA   C3A 6957  12.553   6.901  12.753
24356DOPA   C4A 6958  12.133   7.182  12.743
24356DOPA   C1B 6959  12.073   6.741  11.873
24356DOPA   D2B 6960  11.663   6.621  12.173
24356DOPA   C3B 6961  11.623   6.981  12.543
24356DOPA   C4B 6962  11.623   7.462  12.513
24357DOPA   PO4 6963   9.517   3.641   8.033
24357DOPA   GL1 6964   9.197   3.791   8.343
24357DOPA   GL2 6965   9.197   3.501   8.373
24357DOPA   C1A 6966   8.957   3.881   8.723
24357DOPA   D2A 6967   8.967   3.991   9.233
24357DOPA   C3A 6968   8.547   4.081   9.033
24357DOPA   C4A 6969   8.207   4.501   8.963
24357DOPA   C1B 6970   8.847   3.391   8.583
24357DOPA   D2B 6971   8.367   3.231   8.823
24357DOPA   C3B 6972   7.967   3.441   8.663
24357DOPA   C4B 6973   7.607   3.711   8.883
24358DOPA   PO4 6974   3.237   5.271   3.303
24358DOPA   GL1 6975   3.187   5.401   3.703
24358DOPA   GL2 6976   3.427   5.311   3.893
24358DOPA   C1A 6977   2.867   5.511   3.933
24358DOPA   D2A 6978   2.587   5.541   4.263
24358DOPA   C3A 6979   2.487   5.541   4.703
24358DOPA   C4A 6980   2.387   5.711   5.133
24358DOPA   C1B 6981   3.257   5.361   4.233
24358DOPA   D2B 6982   3.017   5.631   4.513
24358DOPA   C3B 6983   2.947   5.611   4.973
24358DOPA   C4B 6984   2.897   5.461   5.423
24359DOPA   PO4 6985  23.523   4.131   3.743
24359DOPA   GL1 6986  23.783   4.001   4.063
24359DOPA   GL2 6987  23.773   4.351   4.073
24359DOPA   C1A 6988  24.093   3.761   4.303
24359DOPA   D2A 6989  24.293   3.371   4.533
24359DOPA   C3A 6990  24.383   3.331   4.983
24359DOPA   C4A 6991  24.513   3.331   5.443
24359DOPA   C1B 6992  23.913   4.571   4.373
24359DOPA   D2B 6993  23.893   4.731   4.813
24359DOPA   C3B 6994  24.113   4.831   5.223
24359DOPA   C4B 6995  24.403   4.971   5.553
24360DOPA   PO4 6996  10.433   2.961   9.193
24360DOPA   GL1 6997  10.097   3.121   9.373
24360DOPA   GL2 6998  10.057   3.361   9.093
24360DOPA   C1A 6999   9.817   2.821   9.573
24360DOPA   D2A 7000   9.407   2.761   9.813
24360DOPA   C3A 7001   8.957   2.671   9.763
24360DOPA   C4A 7002   8.437   2.731   9.713
24360DOPA   C1B 7003   9.637   3.231   9.223
24360DOPA   D2B 7004   9.177   3.111   9.413
24360DOPA   C3B 7005   8.927   3.531   9.453
24360DOPA   C4B 7006   8.637   3.851   9.523
24361DOPA   PO4 7007  11.133   6.381   9.973
24361DOPA   GL1 7008  10.863   6.671   9.993
24361DOPA   GL2 7009  10.763   6.521  10.233
24361DOPA   C1A 7010  10.653   7.041  10.163
24361DOPA   D2A 7011  10.323   7.282  10.433
24361DOPA   C3A 7012   9.977   7.362  10.703
24361DOPA   C4A 7013   9.637   7.312  11.063
24361DOPA   C1B 7014  10.237   6.471  10.163
24361DOPA   D2B 7015   9.767   6.271  10.203
24361DOPA   C3B 7016   9.607   6.611  10.453
24361DOPA   C4B 7017   9.547   6.911  10.833
24362DOPA   PO4 7018   7.257   7.041   5.373
24362DOPA   GL1 7019   6.727   7.001   5.433
24362DOPA   GL2 7020   6.807   7.212   5.553
24362DOPA   C1A 7021   6.297   7.031   5.563
24362DOPA   D2A 7022   5.977   7.041   5.933
24362DOPA   C3A 7023   5.587   7.101   6.143
24362DOPA   C4A 7024   5.177   6.941   6.473
24362DOPA   C1B 7025   6.827   7.412   5.973
24362DOPA   D2B 7026   6.687   7.292   6.443
24362DOPA   C3B 7027   6.597   7.632   6.793
24362DOPA   C4B 7028   6.307   0.111   6.983
24363DOPA   PO4 7029  10.743   7.522   8.653
24363DOPA   GL1 7030  10.433   7.752   8.863
24363DOPA   GL2 7031  10.363   7.502   8.903
24363DOPA   C1A 7032  10.313   0.061   9.243
24363DOPA   D2A 7033  10.353   0.141   9.663
24363DOPA   C3A 7034   9.957   0.101   9.943
24363DOPA   C4A 7035   9.547   7.782  10.133
24363DOPA   C1B 7036   9.977   7.542   9.003
24363DOPA   D2B 7037   9.527   7.462   9.293
24363DOPA   C3B 7038   9.107   7.532   9.503
24363DOPA   C4B 7039   8.807   0.061   9.643
24364DOPA   PO4 7040   4.697   1.861   4.033
24364DOPA   GL1 7041   4.627   1.981   4.333
24364DOPA   GL2 7042   4.757   2.251   4.373
24364DOPA   C1A 7043   4.347   1.971   4.713
24364DOPA   D2A 7044   4.167   2.261   5.083
24364DOPA   C3A 7045   4.297   2.301   5.523
24364DOPA   C4A 7046   4.577   2.351   5.943
24364DOPA   C1B 7047   4.487   2.491   4.693
24364DOPA   D2B 7048   4.067   2.721   4.903
24364DOPA   C3B 7049   3.787   3.071   4.843
24364DOPA   C4B 7050   3.257   3.211   4.813
36247DOPC   NC3 7051  23.933   6.851   9.043
36247DOPC   PO4 7052  23.683   7.111   9.043
36247DOPC   GL1 7053  23.513   6.991   8.683
36247DOPC   GL2 7054  23.623   6.711   8.713
36247DOPC   C1A 7055  23.503   7.101   8.183
36247DOPC   D2A 7056  23.663   7.182   7.703
36247DOPC   C3A 7057  23.833   7.192   7.313
36247DOPC   C4A 7058  24.233   7.111   6.993
36247DOPC   C1B 7059  23.323   6.481   8.453
36247DOPC   D2B 7060  23.223   6.241   8.053
36247DOPC   C3B 7061  22.753   6.251   8.023
36247DOPC   C4B 7062  22.343   6.361   8.253
36248DOPC   NC3 7063  18.073   0.871  15.303
36248DOPC   PO4 7064  17.913   1.141  15.043
36248DOPC   GL1 7065  17.553   1.131  14.823
36248DOPC   GL2 7066  17.403   0.941  14.963
36248DOPC   C1A 7067  17.323   1.231  14.503
36248DOPC   D2A 7068  17.103   1.161  14.073
36248DOPC   C3A 7069  16.773   1.011  13.833
36248DOPC   C4A 7070  16.423   0.991  13.553
36248DOPC   C1B 7071  17.243   0.581  14.883
36248DOPC   D2B 7072  17.123   0.121  14.763
36248DOPC   C3B 7073  16.813   7.702  14.863
36248DOPC   C4B 7074  16.333   7.762  14.973
36249DOPC   NC3 7075   6.927   3.671  10.723
36249DOPC   PO4 7076   7.047   4.011  10.833
36249DOPC   GL1 7077   7.537   3.991  10.643
36249DOPC   GL2 7078   7.327   4.071  10.503
36249DOPC   C1A 7079   7.957   3.831  10.553
36249DOPC   D2A 7080   8.297   3.521  10.523
36249DOPC   C3A 7081   8.497   3.351  10.183
36249DOPC   C4A 7082   8.737   3.151   9.773
36249DOPC   C1B 7083   7.327   4.311  10.123
36249DOPC   D2B 7084   7.187   4.631   9.733
36249DOPC   C3B 7085   7.327   4.481   9.353
36249DOPC   C4B 7086   7.397   4.391   8.843
36250DOPC   NC3 7087   5.997   4.271  10.123
36250DOPC   PO4 7088   6.157   4.011  10.353
36250DOPC   GL1 7089   6.447   3.771  10.183
36250DOPC   GL2 7090   6.717   3.911  10.393
36250DOPC   C1A 7091   6.627   3.681   9.773
36250DOPC   D2A 7092   6.897   3.511   9.333
36250DOPC   C3A 7093   7.327   3.461   9.173
36250DOPC   C4A 7094   7.837   3.251   9.133
36250DOPC   C1B 7095   7.087   3.751  10.163
36250DOPC   D2B 7096   7.367   3.641   9.693
36250DOPC   C3B 7097   7.567   4.071   9.623
36250DOPC   C4B 7098   7.897   4.451   9.563
36251DOPC   NC3 7099  11.473   2.091  15.573
36251DOPC   PO4 7100  11.823   2.121  15.383
36251DOPC   GL1 7101  11.963   2.341  14.963
36251DOPC   GL2 7102  11.993   2.051  14.933
36251DOPC   C1A 7103  11.843   2.601  14.633
36251DOPC   D2A 7104  11.533   2.901  14.413
36251DOPC   C3A 7105  11.253   2.881  14.073
36251DOPC   C4A 7106  11.533   2.851  13.663
36251DOPC   C1B 7107  12.193   2.041  14.583
36251DOPC   D2B 7108  12.263   2.301  14.153
36251DOPC   C3B 7109  12.583   2.331  13.833
36251DOPC   C4B 7110  12.803   2.361  13.333
36252DOPC   NC3 7111  23.623   1.641   8.923
36252DOPC   PO4 7112  23.433   1.911   9.133
36252DOPC   GL1 7113  23.133   1.871   8.913
36252DOPC   GL2 7114  22.983   1.661   9.053
36252DOPC   C1A 7115  22.983   2.081   8.593
36252DOPC   D2A 7116  22.693   2.101   8.173
36252DOPC   C3A 7117  22.633   2.051   7.723
36252DOPC   C4A 7118  22.663   1.931   7.253
36252DOPC   C1B 7119  22.613   1.381   9.163
36252DOPC   D2B 7120  22.343   0.941   9.203
36252DOPC   C3B 7121  22.003   0.551   9.103
36252DOPC   C4B 7122  21.653   0.191   9.083
36253DOPC   NC3 7123   7.257   5.371  11.983
36253DOPC   PO4 7124   7.157   5.641  11.683
36253DOPC   GL1 7125   7.267   5.461  11.343
36253DOPC   GL2 7126   7.427   5.331  11.523
36253DOPC   C1A 7127   7.467   5.751  11.063
36253DOPC   D2A 7128   7.927   6.011  11.123
36253DOPC   C3A 7129   8.367   5.941  10.983
36253DOPC   C4A 7130   8.747   5.661  10.803
36253DOPC   C1B 7131   7.677   5.161  11.263
36253DOPC   D2B 7132   8.067   5.001  10.943
36253DOPC   C3B 7133   8.397   4.621  11.023
36253DOPC   C4B 7134   8.787   4.451  10.763
36254DOPC   NC3 7135   8.087   4.111  12.283
36254DOPC   PO4 7136   7.967   4.451  12.453
36254DOPC   GL1 7137   8.337   4.551  12.183
36254DOPC   GL2 7138   8.197   4.471  11.943
36254DOPC   C1A 7139   8.607   4.251  12.103
36254DOPC   D2A 7140   8.907   3.981  11.803
36254DOPC   C3A 7141   9.277   3.871  11.573
36254DOPC   C4A 7142   9.707   3.641  11.703
36254DOPC   C1B 7143   8.497   4.631  11.623
36254DOPC   D2B 7144   8.807   4.711  11.283
36254DOPC   C3B 7145   9.197   4.761  10.993
36254DOPC   C4B 7146   9.657   4.581  10.833
36255DOPC   NC3 7147   0.017   5.331   7.493
36255DOPC   PO4 7148   0.307   5.621   7.383
36255DOPC   GL1 7149   0.207   5.771   6.993
36255DOPC   GL2 7150   0.427   5.621   6.893
36255DOPC   C1A 7151   0.077   5.751   6.563
36255DOPC   D2A 7152   0.007   5.641   6.083
36255DOPC   C3A 7153  24.853   5.931   5.723
36255DOPC   C4A 7154  24.413   5.901   5.743
36255DOPC   C1B 7155   0.327   5.371   6.533
36255DOPC   D2B 7156   0.417   5.291   6.033
36255DOPC   C3B 7157   0.727   5.241   5.673
36255DOPC   C4B 7158   1.057   5.281   5.413
36256DOPC   NC3 7159  24.083   1.861   8.273
36256DOPC   PO4 7160  23.853   1.931   8.583
36256DOPC   GL1 7161  23.353   1.831   8.583
36256DOPC   GL2 7162  23.473   1.531   8.463
36256DOPC   C1A 7163  23.123   1.861   8.163
36256DOPC   D2A 7164  22.953   1.661   7.753
36256DOPC   C3A 7165  22.473   1.501   7.683
36256DOPC   C4A 7166  22.133   1.381   8.023
36256DOPC   C1B 7167  23.163   1.371   8.153
36256DOPC   D2B 7168  22.813   1.061   7.863
36256DOPC   C3B 7169  22.333   0.901   7.823
36256DOPC   C4B 7170  21.813   0.991   7.843
36257DOPC   NC3 7171  10.017   7.402  14.263
36257DOPC   PO4 7172  10.373   7.292  14.093
36257DOPC   GL1 7173  10.493   7.322  13.693
36257DOPC   GL2 7174  10.523   7.071  13.633
36257DOPC   C1A 7175  10.333   7.462  13.293
36257DOPC   D2A 7176  10.147   7.782  12.943
36257DOPC   C3A 7177  10.423   0.301  12.763
36257DOPC   C4A 7178  10.503   0.481  12.313
36257DOPC   C1B 7179  10.733   7.151  13.223
36257DOPC   D2B 7180  10.973   6.841  12.903
36257DOPC   C3B 7181  10.733   6.451  12.983
36257DOPC   C4B 7182  10.513   6.161  13.363
36258DOPC   NC3 7183  22.193   1.941  12.083
36258DOPC   PO4 7184  22.153   1.751  11.743
36258DOPC   GL1 7185  21.843   1.691  11.493
36258DOPC   GL2 7186  22.023   1.651  11.193
36258DOPC   C1A 7187  21.503   1.471  11.383
36258DOPC   D2A 7188  21.163   1.041  11.363
36258DOPC   C3A 7189  21.113   0.691  11.653
36258DOPC   C4A 7190  20.733   0.491  11.913
36258DOPC   C1B 7191  21.723   1.501  10.873
36258DOPC   D2B 7192  21.353   1.391  10.583
36258DOPC   C3B 7193  20.923   1.271  10.523
36258DOPC   C4B 7194  20.473   1.031  10.573
36259DOPC   NC3 7195   2.477   4.991   7.533
36259DOPC   PO4 7196   2.327   5.301   7.303
36259DOPC   GL1 7197   2.647   5.561   7.163
36259DOPC   GL2 7198   2.437   5.781   7.213
36259DOPC   C1A 7199   2.677   5.471   6.683
36259DOPC   D2A 7200   2.937   5.531   6.303
36259DOPC   C3A 7201   3.347   5.461   6.123
36259DOPC   C4A 7202   3.647   5.151   5.933
36259DOPC   C1B 7203   2.627   6.061   6.883
36259DOPC   D2B 7204   2.787   5.981   6.433
36259DOPC   C3B 7205   3.107   6.001   6.053
36259DOPC   C4B 7206   3.597   6.061   5.833
36260DOPC   NC3 7207   8.167   6.401  13.143
36260DOPC   PO4 7208   8.307   6.711  12.943
36260DOPC   GL1 7209   8.597   6.831  12.693
36260DOPC   GL2 7210   8.827   6.731  12.883
36260DOPC   C1A 7211   8.577   6.621  12.303
36260DOPC   D2A 7212   8.477   6.491  11.843
36260DOPC   C3A 7213   8.867   6.581  11.573
36260DOPC   C4A 7214   9.287   6.731  11.323
36260DOPC   C1B 7215   8.937   6.321  12.733
36260DOPC   D2B 7216   9.247   6.091  12.463
36260DOPC   C3B 7217   9.667   5.871  12.413
36260DOPC   C4B 7218   9.947   5.471  12.263
36261DOPC   NC3 7219   9.667   6.581  13.593
36261DOPC   PO4 7220   9.507   6.921  13.533
36261DOPC   GL1 7221   9.547   7.061  13.163
36261DOPC   GL2 7222   9.477   6.841  12.943
36261DOPC   C1A 7223   9.897   7.212  12.943
36261DOPC   D2A 7224  10.403   7.312  12.743
36261DOPC   C3A 7225  10.473   7.682  12.383
36261DOPC   C4A 7226  10.593   0.121  11.913
36261DOPC   C1B 7227   9.167   6.841  12.623
36261DOPC   D2B 7228   8.947   6.951  12.193
36261DOPC   C3B 7229   9.237   6.891  11.823
36261DOPC   C4B 7230   9.567   6.521  11.763
36262DOPC   NC3 7231   8.287   1.001  12.843
36262DOPC   PO4 7232   8.477   1.351  12.963
36262DOPC   GL1 7233   8.867   1.321  12.963
36262DOPC   GL2 7234   8.827   1.601  12.843
36262DOPC   C1A 7235   9.057   0.961  12.873
36262DOPC   D2A 7236   9.417   0.541  12.843
36262DOPC   C3A 7237   9.437   0.211  12.533
36262DOPC   C4A 7238   9.607   7.772  12.113
36262DOPC   C1B 7239   9.087   1.531  12.443
36262DOPC   D2B 7240   9.387   1.431  12.083
36262DOPC   C3B 7241   9.697   1.121  12.183
36262DOPC   C4B 7242  10.067   0.811  12.223
36263DOPC   NC3 7243  12.123   3.301  15.323
36263DOPC   PO4 7244  12.133   3.701  15.353
36263DOPC   GL1 7245  12.123   3.691  14.913
36263DOPC   GL2 7246  12.163   3.981  14.823
36263DOPC   C1A 7247  12.443   3.521  14.653
36263DOPC   D2A 7248  12.413   3.311  14.153
36263DOPC   C3A 7249  12.763   3.341  13.863
36263DOPC   C4A 7250  13.033   3.091  13.603
36263DOPC   C1B 7251  12.233   3.921  14.403
36263DOPC   D2B 7252  12.463   4.001  13.983
36263DOPC   C3B 7253  12.753   4.331  13.843
36263DOPC   C4B 7254  12.863   4.841  13.833
36264DOPC   NC3 7255  24.093   0.861   8.143
36264DOPC   PO4 7256  23.923   0.941   8.503
36264DOPC   GL1 7257  23.683   0.651   8.423
36264DOPC   GL2 7258  23.773   0.501   8.303
36264DOPC   C1A 7259  23.253   0.591   8.453
36264DOPC   D2A 7260  22.813   0.701   8.313
36264DOPC   C3A 7261  22.563   0.541   7.993
36264DOPC   C4A 7262  22.333   0.281   7.763
36264DOPC   C1B 7263  23.583   0.451   7.913
36264DOPC   D2B 7264  23.613   0.391   7.413
36264DOPC   C3B 7265  23.323   0.491   7.013
36264DOPC   C4B 7266  23.023   0.671   6.673
36265DOPC   NC3 7267   4.977   7.292   9.003
36265DOPC   PO4 7268   5.097   7.652   9.143
36265DOPC   GL1 7269   5.037   7.682   8.713
36265DOPC   GL2 7270   4.987   0.161   8.663
36265DOPC   C1A 7271   5.327   7.602   8.413
36265DOPC   D2A 7272   5.837   7.592   8.263
36265DOPC   C3A 7273   6.177   7.302   8.103
36265DOPC   C4A 7274   6.487   7.001   7.893
36265DOPC   C1B 7275   5.037   0.191   8.243
36265DOPC   D2B 7276   5.287   0.061   7.853
36265DOPC   C3B 7277   5.577   0.151   7.493
36265DOPC   C4B 7278   5.817   0.171   7.123
36266DOPC   NC3 7279  21.963   2.731  11.613
36266DOPC   PO4 7280  22.073   2.531  11.303
36266DOPC   GL1 7281  21.863   2.491  10.953
36266DOPC   GL2 7282  21.903   2.861  10.853
36266DOPC   C1A 7283  21.473   2.351  10.903
36266DOPC   D2A 7284  21.003   2.281  11.053
36266DOPC   C3A 7285  20.793   1.851  11.063
36266DOPC   C4A 7286  20.523   1.601  10.753
36266DOPC   C1B 7287  21.503   2.961  10.673
36266DOPC   D2B 7288  21.303   3.161  10.313
36266DOPC   C3B 7289  21.473   3.511  10.083
36266DOPC   C4B 7290  21.793   3.791   9.983
36267DOPC   NC3 7291   0.867   4.791   7.413
36267DOPC   PO4 7292   1.147   5.031   7.183
36267DOPC   GL1 7293   1.107   4.911   6.723
36267DOPC   GL2 7294   1.307   5.131   6.663
36267DOPC   C1A 7295   0.977   4.581   6.433
36267DOPC   D2A 7296   0.777   4.171   6.303
36267DOPC   C3A 7297   0.647   4.461   5.943
36267DOPC   C4A 7298   0.397   4.401   5.493
36267DOPC   C1B 7299   1.587   4.821   6.473
36267DOPC   D2B 7300   1.857   4.601   6.093
36267DOPC   C3B 7301   1.747   4.141   5.973
36267DOPC   C4B 7302   1.697   3.781   5.583
36268DOPC   NC3 7303  22.543   2.131  10.133
36268DOPC   PO4 7304  22.293   2.171  10.463
36268DOPC   GL1 7305  21.893   2.251  10.573
36268DOPC   GL2 7306  21.873   2.371  10.263
36268DOPC   C1A 7307  21.553   1.981  10.633
36268DOPC   D2A 7308  21.053   1.851  10.603
36268DOPC   C3A 7309  20.673   1.811  10.293
36268DOPC   C4A 7310  20.443   1.901   9.903
36268DOPC   C1B 7311  21.513   2.181  10.033
36268DOPC   D2B 7312  21.363   1.941   9.673
36268DOPC   C3B 7313  21.393   2.251   9.343
36268DOPC   C4B 7314  21.563   2.401   8.893
36269DOPC   NC3 7315  13.713   5.111  15.873
36269DOPC   PO4 7316  13.873   4.741  15.763
36269DOPC   GL1 7317  14.113   4.601  15.433
36269DOPC   GL2 7318  14.103   4.321  15.373
36269DOPC   C1A 7319  14.243   4.921  15.183
36269DOPC   D2A 7320  14.193   5.261  14.823
36269DOPC   C3A 7321  14.293   5.461  14.363
36269DOPC   C4A 7322  14.343   5.751  13.933
36269DOPC   C1B 7323  14.173   4.251  14.993
36269DOPC   D2B 7324  13.993   4.091  14.523
36269DOPC   C3B 7325  13.723   3.751  14.323
36269DOPC   C4B 7326  13.603   3.761  13.843
36270DOPC   NC3 7327  18.203   5.941  15.133
36270DOPC   PO4 7328  18.353   6.261  15.003
36270DOPC   GL1 7329  18.113   6.341  14.703
36270DOPC   GL2 7330  18.273   6.561  14.613
36270DOPC   C1A 7331  17.773   6.471  14.473
36270DOPC   D2A 7332  17.563   6.311  14.103
36270DOPC   C3A 7333  17.433   6.561  13.783
36270DOPC   C4A 7334  17.373   6.641  13.273
36270DOPC   C1B 7335  18.113   6.891  14.373
36270DOPC   D2B 7336  17.863   6.751  13.943
36270DOPC   C3B 7337  17.673   6.921  13.503
36270DOPC   C4B 7338  17.603   7.141  13.003
36271DOPC   NC3 7339  19.033   4.841  13.953
36271DOPC   PO4 7340  19.103   5.161  14.183
36271DOPC   GL1 7341  18.873   5.631  14.123
36271DOPC   GL2 7342  19.083   5.611  13.843
36271DOPC   C1A 7343  18.553   5.941  14.053
36271DOPC   D2A 7344  18.393   6.201  13.613
36271DOPC   C3A 7345  18.103   6.511  13.463
36271DOPC   C4A 7346  17.873   6.591  13.023
36271DOPC   C1B 7347  18.823   5.741  13.493
36271DOPC   D2B 7348  18.563   5.941  13.173
36271DOPC   C3B 7349  18.103   6.021  13.253
36271DOPC   C4B 7350  17.663   6.221  13.233
36272DOPC   NC3 7351  24.753   4.481   7.403
36272DOPC   PO4 7352  24.683   4.351   7.763
36272DOPC   GL1 7353  24.413   4.051   7.583
36272DOPC   GL2 7354  24.353   4.231   7.313
36272DOPC   C1A 7355  23.953   4.041   7.473
36272DOPC   D2A 7356  23.763   4.201   7.033
36272DOPC   C3A 7357  23.383   4.401   6.803
36272DOPC   C4A 7358  23.103   4.791   6.823
36272DOPC   C1B 7359  24.283   4.251   6.893
36272DOPC   D2B 7360  24.433   4.361   6.443
36272DOPC   C3B 7361  24.563   4.541   6.043
36272DOPC   C4B 7362  24.843   4.641   5.653
36273DOPC   NC3 7363   9.957   5.551  14.443
36273DOPC   PO4 7364   9.857   5.531  14.073
36273DOPC   GL1 7365   9.997   5.391  13.703
36273DOPC   GL2 7366   9.747   5.431  13.663
36273DOPC   C1A 7367  10.303   5.311  13.403
36273DOPC   D2A 7368  10.513   5.261  13.003
36273DOPC   C3A 7369  10.813   5.521  12.683
36273DOPC   C4A 7370  11.233   5.631  12.323
36273DOPC   C1B 7371   9.667   5.131  13.273
36273DOPC   D2B 7372   9.527   4.861  12.893
36273DOPC   C3B 7373   9.747   4.981  12.483
36273DOPC   C4B 7374  10.097   4.981  12.143
36274DOPC   NC3 7375   4.057   4.151   8.353
36274DOPC   PO4 7376   3.987   4.451   8.123
36274DOPC   GL1 7377   4.047   4.481   7.683
36274DOPC   GL2 7378   4.357   4.371   7.713
36274DOPC   C1A 7379   4.037   4.221   7.283
36274DOPC   D2A 7380   4.307   4.301   6.873
36274DOPC   C3A 7381   4.527   4.261   6.423
36274DOPC   C4A 7382   4.737   4.461   5.913
36274DOPC   C1B 7383   4.507   4.341   7.323
36274DOPC   D2B 7384   4.817   4.391   6.863
36274DOPC   C3B 7385   4.987   4.341   6.403
36274DOPC   C4B 7386   5.187   4.281   5.933
36275DOPC   NC3 7387  14.173   1.721  15.723
36275DOPC   PO4 7388  13.793   1.581  15.653
36275DOPC   GL1 7389  13.783   1.581  15.273
36275DOPC   GL2 7390  13.953   1.901  15.313
36275DOPC   C1A 7391  13.983   1.391  14.873
36275DOPC   D2A 7392  14.123   0.941  14.813
36275DOPC   C3A 7393  14.303   0.721  14.423
36275DOPC   C4A 7394  14.333   0.301  14.143
36275DOPC   C1B 7395  13.693   2.141  15.063
36275DOPC   D2B 7396  13.593   2.191  14.573
36275DOPC   C3B 7397  13.793   2.111  14.173
36275DOPC   C4B 7398  13.923   1.711  13.913
36276DOPC   NC3 7399  23.143   0.581  11.083
36276DOPC   PO4 7400  22.803   0.691  10.913
36276DOPC   GL1 7401  22.563   0.421  10.653
36276DOPC   GL2 7402  22.333   0.301  10.773
36276DOPC   C1A 7403  22.583   0.271  10.243
36276DOPC   D2A 7404  22.403   0.341   9.793
36276DOPC   C3A 7405  21.973   0.521   9.673
36276DOPC   C4A 7406  21.493   0.431   9.563
36276DOPC   C1B 7407  21.963   0.211  10.573
36276DOPC   D2B 7408  21.663   7.622  10.473
36276DOPC   C3B 7409  21.403   7.472  10.093
36276DOPC   C4B 7410  21.073   7.552   9.713
36277DOPC   NC3 7411   4.827   6.781   8.633
36277DOPC   PO4 7412   4.467   6.661   8.613
36277DOPC   GL1 7413   4.497   6.701   8.223
36277DOPC   GL2 7414   4.627   6.961   8.273
36277DOPC   C1A 7415   4.677   6.611   7.873
36277DOPC   D2A 7416   4.807   6.411   7.403
36277DOPC   C3A 7417   5.047   6.031   7.453
36277DOPC   C4A 7418   4.987   5.591   7.633
36277DOPC   C1B 7419   4.967   7.021   8.043
36277DOPC   D2B 7420   5.367   7.302   8.033
36277DOPC   C3B 7421   5.657   7.272   7.723
36277DOPC   C4B 7422   6.107   7.182   7.563
36278DOPC   NC3 7423   6.657   0.011  11.303
36278DOPC   PO4 7424   7.007   0.241  11.303
36278DOPC   GL1 7425   7.327   0.031  11.233
36278DOPC   GL2 7426   7.477   0.201  11.433
36278DOPC   C1A 7427   7.477   7.762  10.833
36278DOPC   D2A 7428   7.847   7.702  10.573
36278DOPC   C3A 7429   7.997   0.151  10.253
36278DOPC   C4A 7430   8.217   0.191   9.803
36278DOPC   C1B 7431   7.737   0.341  11.213
36278DOPC   D2B 7432   8.207   0.491  11.193
36278DOPC   C3B 7433   8.597   0.571  10.963
36278DOPC   C4B 7434   8.947   0.721  10.703
36279DOPC   NC3 7435  23.673   3.391   8.793
36279DOPC   PO4 7436  23.323   3.201   8.753
36279DOPC   GL1 7437  23.183   3.111   8.403
36279DOPC   GL2 7438  22.913   2.961   8.503
36279DOPC   C1A 7439  23.173   3.151   7.963
36279DOPC   D2A 7440  23.343   3.301   7.503
36279DOPC   C3A 7441  23.213   3.521   7.153
36279DOPC   C4A 7442  22.853   3.731   6.883
36279DOPC   C1B 7443  22.693   2.991   8.143
36279DOPC   D2B 7444  22.493   2.971   7.733
36279DOPC   C3B 7445  22.053   2.861   7.683
36279DOPC   C4B 7446  21.683   2.761   7.383
36280DOPC   NC3 7447   7.327   2.721  11.103
36280DOPC   PO4 7448   7.187   3.031  10.903
36280DOPC   GL1 7449   7.377   3.091  10.583
36280DOPC   GL2 7450   7.167   3.271  10.453
36280DOPC   C1A 7451   7.737   2.981  10.373
36280DOPC   D2A 7452   8.147   2.951  10.053
36280DOPC   C3A 7453   8.517   2.771  10.213
36280DOPC   C4A 7454   8.887   2.441  10.203
36280DOPC   C1B 7455   7.367   3.281  10.023
36280DOPC   D2B 7456   7.787   3.361   9.693
36280DOPC   C3B 7457   7.727   3.711   9.353
36280DOPC   C4B 7458   7.657   4.131   9.133
36281DOPC   NC3 7459   3.497   3.811   7.713
36281DOPC   PO4 7460   3.217   3.801   7.433
36281DOPC   GL1 7461   3.327   4.151   7.263
36281DOPC   GL2 7462   3.577   4.211   7.333
36281DOPC   C1A 7463   3.207   4.201   6.863
36281DOPC   D2A 7464   3.317   4.281   6.383
36281DOPC   C3A 7465   3.207   4.101   5.983
36281DOPC   C4A 7466   3.137   3.871   5.563
36281DOPC   C1B 7467   3.667   4.421   6.953
36281DOPC   D2B 7468   3.557   4.701   6.543
36281DOPC   C3B 7469   3.557   4.601   6.073
36281DOPC   C4B 7470   3.867   4.301   5.893
36282DOPC   NC3 7471  18.213   6.831  15.043
36282DOPC   PO4 7472  18.183   7.222  15.023
36282DOPC   GL1 7473  18.113   7.352  14.653
36282DOPC   GL2 7474  18.233   7.592  14.613
36282DOPC   C1A 7475  18.093   7.332  14.183
36282DOPC   D2A 7476  18.033   7.602  13.783
36282DOPC   C3A 7477  18.143   0.221  13.673
36282DOPC   C4A 7478  18.333   0.611  13.373
36282DOPC   C1B 7479  17.893   7.732  14.383
36282DOPC   D2B 7480  17.583   7.572  14.063
36282DOPC   C3B 7481  17.103   7.462  13.923
36282DOPC   C4B 7482  16.683   7.362  13.843
36283DOPC   NC3 7483   8.007   5.431  12.323
36283DOPC   PO4 7484   7.697   5.541  12.203
36283DOPC   GL1 7485   7.617   5.691  11.793
36283DOPC   GL2 7486   7.787   5.861  11.883
36283DOPC   C1A 7487   7.827   5.601  11.433
36283DOPC   D2A 7488   8.047   5.541  11.003
36283DOPC   C3A 7489   8.367   5.411  10.663
36283DOPC   C4A 7490   8.447   5.091  10.243
36283DOPC   C1B 7491   8.087   6.091  11.603
36283DOPC   D2B 7492   8.507   6.231  11.403
36283DOPC   C3B 7493   8.767   6.491  11.123
36283DOPC   C4B 7494   9.097   6.701  10.823
36284DOPC   NC3 7495   6.207   4.671   9.593
36284DOPC   PO4 7496   6.137   4.731   9.973
36284DOPC   GL1 7497   6.567   4.611  10.013
36284DOPC   GL2 7498   6.637   4.721   9.793
36284DOPC   C1A 7499   6.847   4.321  10.023
36284DOPC   D2A 7500   7.067   4.041   9.663
36284DOPC   C3A 7501   7.077   4.041   9.213
36284DOPC   C4A 7502   7.157   3.971   8.683
36284DOPC   C1B 7503   6.717   4.431   9.563
36284DOPC   D2B 7504   6.577   3.931   9.313
36284DOPC   C3B 7505   6.677   3.861   8.893
36284DOPC   C4B 7506   6.657   3.961   8.393
36285DOPC   NC3 7507  13.193   2.331  15.953
36285DOPC   PO4 7508  13.033   2.601  15.703
36285DOPC   GL1 7509  13.143   2.641  15.313
36285DOPC   GL2 7510  13.193   2.951  15.333
36285DOPC   C1A 7511  13.203   2.451  14.923
36285DOPC   D2A 7512  13.103   2.221  14.443
36285DOPC   C3A 7513  12.823   2.531  14.243
36285DOPC   C4A 7514  12.633   2.881  13.983
36285DOPC   C1B 7515  13.333   3.041  14.933
36285DOPC   D2B 7516  13.323   3.081  14.473
36285DOPC   C3B 7517  13.093   2.951  14.093
36285DOPC   C4B 7518  13.053   2.611  13.703
36286DOPC   NC3 7519  22.213   5.171  11.873
36286DOPC   PO4 7520  22.033   4.911  11.653
36286DOPC   GL1 7521  21.613   4.911  11.443
36286DOPC   GL2 7522  21.533   4.831  11.703
36286DOPC   C1A 7523  21.483   5.011  11.003
36286DOPC   D2A 7524  21.073   5.121  10.723
36286DOPC   C3A 7525  20.733   5.201  10.363
36286DOPC   C4A 7526  20.413   5.161  10.023
36286DOPC   C1B 7527  21.153   4.591  11.723
36286DOPC   D2B 7528  20.653   4.601  11.863
36286DOPC   C3B 7529  20.393   4.871  11.573
36286DOPC   C4B 7530  19.973   4.701  11.403
36287DOPC   NC3 7531  23.713   2.531   9.383
36287DOPC   PO4 7532  23.453   2.741   9.203
36287DOPC   GL1 7533  23.213   2.751   8.863
36287DOPC   GL2 7534  22.993   2.981   8.943
36287DOPC   C1A 7535  23.003   2.541   8.383
36287DOPC   D2A 7536  22.793   2.561   7.883
36287DOPC   C3A 7537  22.393   2.461   7.753
36287DOPC   C4A 7538  21.963   2.321   7.563
36287DOPC   C1B 7539  22.693   3.291   8.863
36287DOPC   D2B 7540  22.363   3.341   8.443
36287DOPC   C3B 7541  22.243   3.331   7.963
36287DOPC   C4B 7542  22.443   3.421   7.533
36288DOPC   NC3 7543  24.793   6.721   7.863
36288DOPC   PO4 7544   0.017   6.961   7.553
36288DOPC   GL1 7545  24.883   7.192   7.213
36288DOPC   GL2 7546  24.623   7.061   7.283
36288DOPC   C1A 7547  24.863   6.971   6.763
36288DOPC   D2A 7548  24.663   6.831   6.303
36288DOPC   C3A 7549  24.333   6.621   6.153
36288DOPC   C4A 7550  23.903   6.411   5.953
36288DOPC   C1B 7551  24.273   7.001   7.553
36288DOPC   D2B 7552  23.893   6.691   7.693
36288DOPC   C3B 7553  23.593   6.781   7.383
36288DOPC   C4B 7554  23.383   6.941   6.883
36289DOPC   NC3 7555  17.143   1.371  14.933
36289DOPC   PO4 7556  17.003   1.161  15.233
36289DOPC   GL1 7557  16.713   0.961  14.993
36289DOPC   GL2 7558  16.763   1.161  14.773
36289DOPC   C1A 7559  16.723   0.561  14.863
36289DOPC   D2A 7560  16.753   0.201  14.473
36289DOPC   C3A 7561  16.823   7.562  14.323
36289DOPC   C4A 7562  16.913   7.091  14.323
36289DOPC   C1B 7563  16.383   1.311  14.673
36289DOPC   D2B 7564  15.913   1.311  14.803
36289DOPC   C3B 7565  15.913   0.941  14.463
36289DOPC   C4B 7566  15.773   0.591  14.153
36290DOPC   NC3 7567  19.173   1.191  14.333
36290DOPC   PO4 7568  19.533   1.001  14.343
36290DOPC   GL1 7569  19.393   0.891  13.923
36290DOPC   GL2 7570  19.603   1.131  13.873
36290DOPC   C1A 7571  19.353   0.531  13.623
36290DOPC   D2A 7572  19.143   0.601  13.183
36290DOPC   C3A 7573  18.663   0.521  13.013
36290DOPC   C4A 7574  18.363   0.321  12.623
36290DOPC   C1B 7575  19.653   0.971  13.503
36290DOPC   D2B 7576  19.443   0.981  12.983
36290DOPC   C3B 7577  19.103   0.761  12.733
36290DOPC   C4B 7578  19.263   0.501  12.373
36291DOPC   NC3 7579  20.273   7.232  13.983
36291DOPC   PO4 7580  20.293   6.911  13.743
36291DOPC   GL1 7581  20.033   6.991  13.473
36291DOPC   GL2 7582  19.983   7.252  13.563
36291DOPC   C1A 7583  19.993   6.771  13.143
36291DOPC   D2A 7584  19.793   6.761  12.693
36291DOPC   C3A 7585  19.823   6.781  12.213
36291DOPC   C4A 7586  19.653   7.091  11.863
36291DOPC   C1B 7587  19.743   7.532  13.233
36291DOPC   D2B 7588  19.393   7.662  12.903
36291DOPC   C3B 7589  19.053   7.592  12.583
36291DOPC   C4B 7590  18.673   7.732  12.273
36292DOPC   NC3 7591  11.873   5.171  16.033
36292DOPC   PO4 7592  11.833   4.781  15.903
36292DOPC   GL1 7593  12.033   4.811  15.503
36292DOPC   GL2 7594  12.053   5.151  15.563
36292DOPC   C1A 7595  12.253   4.561  15.213
36292DOPC   D2A 7596  12.583   4.231  15.043
36292DOPC   C3A 7597  12.643   3.911  14.713
36292DOPC   C4A 7598  12.763   3.641  14.323
36292DOPC   C1B 7599  12.373   5.031  15.323
36292DOPC   D2B 7600  12.793   4.711  15.163
36292DOPC   C3B 7601  13.103   5.111  15.223
36292DOPC   C4B 7602  13.353   5.491  15.413
36293DOPC   NC3 7603   6.947   7.001  11.353
36293DOPC   PO4 7604   7.257   7.091  11.573
36293DOPC   GL1 7605   7.577   6.881  11.413
36293DOPC   GL2 7606   7.537   6.681  11.623
36293DOPC   C1A 7607   7.967   6.921  11.193
36293DOPC   D2A 7608   8.377   6.881  10.953
36293DOPC   C3A 7609   8.737   6.981  10.673
36293DOPC   C4A 7610   9.007   7.192  10.373
36293DOPC   C1B 7611   7.987   6.541  11.573
36293DOPC   D2B 7612   8.407   6.811  11.463
36293DOPC   C3B 7613   8.857   6.981  11.293
36293DOPC   C4B 7614   9.137   7.202  10.943
36294DOPC   NC3 7615  24.663   2.631   7.973
36294DOPC   PO4 7616  24.843   2.441   7.663
36294DOPC   GL1 7617  24.503   2.431   7.353
36294DOPC   GL2 7618  24.753   2.231   7.263
36294DOPC   C1A 7619  24.473   2.431   6.943
36294DOPC   D2A 7620  24.553   2.301   6.503
36294DOPC   C3A 7621  24.773   2.491   6.123
36294DOPC   C4A 7622   0.187   2.831   6.053
36294DOPC   C1B 7623  24.733   2.011   6.893
36294DOPC   D2B 7624  24.683   1.711   6.553
36294DOPC   C3B 7625  24.903   1.551   6.163
36294DOPC   C4B 7626  24.603   1.431   5.783
36295DOPC   NC3 7627  24.433   5.621   8.083
36295DOPC   PO4 7628  24.213   5.781   7.813
36295DOPC   GL1 7629  24.093   6.101   7.453
36295DOPC   GL2 7630  24.393   6.031   7.393
36295DOPC   C1A 7631  23.693   6.041   7.213
36295DOPC   D2A 7632  23.313   5.961   6.843
36295DOPC   C3A 7633  23.633   5.601   6.703
36295DOPC   C4A 7634  23.753   5.181   6.423
36295DOPC   C1B 7635  24.283   5.941   6.933
36295DOPC   D2B 7636  24.013   6.041   6.523
36295DOPC   C3B 7637  23.653   6.351   6.393
36295DOPC   C4B 7638  23.293   6.681   6.533
36296DOPC   NC3 7639   9.817   2.931  14.703
36296DOPC   PO4 7640  10.117   2.691  14.623
36296DOPC   GL1 7641  10.353   2.811  14.343
36296DOPC   GL2 7642  10.453   2.521  14.463
36296DOPC   C1A 7643  10.423   2.611  14.023
36296DOPC   D2A 7644  10.703   2.681  13.663
36296DOPC   C3A 7645  11.043   2.791  13.483
36296DOPC   C4A 7646  11.393   2.701  13.213
36296DOPC   C1B 7647  10.863   2.591  14.323
36296DOPC   D2B 7648  11.293   2.381  14.283
36296DOPC   C3B 7649  11.693   2.591  14.053
36296DOPC   C4B 7650  12.163   2.781  14.003
36297DOPC   NC3 7651  20.953   2.711  13.043
36297DOPC   PO4 7652  21.163   2.471  12.853
36297DOPC   GL1 7653  20.873   2.191  12.733
36297DOPC   GL2 7654  20.633   2.371  12.703
36297DOPC   C1A 7655  20.923   1.811  12.663
36297DOPC   D2A 7656  21.073   1.311  12.583
36297DOPC   C3A 7657  21.053   0.891  12.623
36297DOPC   C4A 7658  20.893   0.381  12.443
36297DOPC   C1B 7659  20.183   2.211  12.553
36297DOPC   D2B 7660  20.133   1.921  12.213
36297DOPC   C3B 7661  19.943   1.681  11.863
36297DOPC   C4B 7662  19.763   1.461  11.413
36298DOPC   NC3 7663  18.813   6.431  15.183
36298DOPC   PO4 7664  18.903   6.301  14.823
36298DOPC   GL1 7665  18.663   6.431  14.533
36298DOPC   GL2 7666  18.533   6.301  14.373
36298DOPC   C1A 7667  18.603   6.791  14.323
36298DOPC   D2A 7668  18.493   7.192  13.983
36298DOPC   C3A 7669  18.523   7.532  14.253
36298DOPC   C4A 7670  18.473   0.131  14.423
36298DOPC   C1B 7671  18.213   6.291  14.103
36298DOPC   D2B 7672  17.893   6.021  13.793
36298DOPC   C3B 7673  17.443   6.041  13.683
36298DOPC   C4B 7674  17.093   6.111  13.293
36299DOPC   NC3 7675  17.463   7.322  15.913
36299DOPC   PO4 7676  17.573   7.051  15.663
36299DOPC   GL1 7677  17.313   6.801  15.403
36299DOPC   GL2 7678  17.343   7.101  15.293
36299DOPC   C1A 7679  16.983   6.711  15.073
36299DOPC   D2A 7680  16.713   6.811  14.693
36299DOPC   C3A 7681  16.383   6.701  14.343
36299DOPC   C4A 7682  16.093   6.521  14.013
36299DOPC   C1B 7683  17.403   7.041  14.863
36299DOPC   D2B 7684  17.553   6.981  14.413
36299DOPC   C3B 7685  17.433   7.061  14.003
36299DOPC   C4B 7686  17.093   6.941  13.643
36300DOPC   NC3 7687   3.687   2.911   7.763
36300DOPC   PO4 7688   3.357   2.741   7.623
36300DOPC   GL1 7689   3.447   2.491   7.313
36300DOPC   GL2 7690   3.687   2.631   7.293
36300DOPC   C1A 7691   3.247   2.461   6.953
36300DOPC   D2A 7692   3.067   2.331   6.453
36300DOPC   C3A 7693   3.357   2.331   6.163
36300DOPC   C4A 7694   3.667   2.341   5.763
36300DOPC   C1B 7695   3.767   2.651   6.883
36300DOPC   D2B 7696   3.677   2.881   6.493
36300DOPC   C3B 7697   3.527   2.821   6.053
36300DOPC   C4B 7698   3.327   2.681   5.643
36301DOPC   NC3 7699   9.887   1.001  14.793
36301DOPC   PO4 7700  10.007   1.191  14.453
36301DOPC   GL1 7701  10.333   1.241  14.243
36301DOPC   GL2 7702  10.247   1.371  14.103
36301DOPC   C1A 7703  10.733   1.151  14.303
36301DOPC   D2A 7704  11.243   1.091  14.273
36301DOPC   C3A 7705  11.523   1.081  13.893
36301DOPC   C4A 7706  11.833   1.161  13.543
36301DOPC   C1B 7707  10.227   1.351  13.683
36301DOPC   D2B 7708  10.293   1.481  13.323
36301DOPC   C3B 7709  10.483   1.341  12.933
36301DOPC   C4B 7710  10.683   1.271  12.553
36302DOPC   NC3 7711  24.283   3.121   8.013
36302DOPC   PO4 7712  24.313   2.811   8.253
36302DOPC   GL1 7713  24.243   2.671   7.763
36302DOPC   GL2 7714  24.433   2.841   7.623
36302DOPC   C1A 7715  23.853   2.641   7.543
36302DOPC   D2A 7716  23.443   2.471   7.323
36302DOPC   C3A 7717  23.193   2.521   6.893
36302DOPC   C4A 7718  23.383   2.801   6.523
36302DOPC   C1B 7719  24.123   2.871   7.253
36302DOPC   D2B 7720  23.713   2.871   6.953
36302DOPC   C3B 7721  23.283   2.951   7.133
36302DOPC   C4B 7722  22.853   3.211   7.403
36303DOPC   NC3 7723  23.163   0.971   9.933
36303DOPC   PO4 7724  23.423   0.761   9.703
36303DOPC   GL1 7725  23.233   0.581   9.373
36303DOPC   GL2 7726  22.973   0.691   9.343
36303DOPC   C1A 7727  23.213   0.241   9.043
36303DOPC   D2A 7728  23.173   0.001   8.583
36303DOPC   C3A 7729  22.743   7.572   8.573
36303DOPC   C4A 7730  22.303   7.402   8.383
36303DOPC   C1B 7731  22.573   0.461   9.273
36303DOPC   D2B 7732  22.183   0.121   9.233
36303DOPC   C3B 7733  21.913   7.542   9.143
36303DOPC   C4B 7734  21.653   7.121   8.933
36304DOPC   NC3 7735  23.063   0.221  10.063
36304DOPC   PO4 7736  23.233   0.331   9.743
36304DOPC   GL1 7737  22.853   0.281   9.653
36304DOPC   GL2 7738  22.843   0.581   9.823
36304DOPC   C1A 7739  22.543   7.702   9.473
36304DOPC   D2A 7740  22.443   7.362   9.133
36304DOPC   C3A 7741  22.173   7.232   8.853
36304DOPC   C4A 7742  21.883   7.262   8.503
36304DOPC   C1B 7743  22.503   0.811   9.663
36304DOPC   D2B 7744  22.003   1.011   9.653
36304DOPC   C3B 7745  21.693   1.041   9.343
36304DOPC   C4B 7746  21.413   1.111   8.973
36305DOPC   NC3 7747   6.007   0.671   9.563
36305DOPC   PO4 7748   6.037   0.251   9.463
36305DOPC   GL1 7749   6.247   0.111   9.083
36305DOPC   GL2 7750   6.407   7.772   9.333
36305DOPC   C1A 7751   6.547   0.221   8.783
36305DOPC   D2A 7752   6.937   0.341   8.513
36305DOPC   C3A 7753   7.207   0.701   8.363
36305DOPC   C4A 7754   7.477   1.061   8.153
36305DOPC   C1B 7755   6.867   7.672   9.193
36305DOPC   D2B 7756   7.227   7.582   8.923
36305DOPC   C3B 7757   7.317   7.512   8.453
36305DOPC   C4B 7758   7.367   7.612   7.963
36306DOPC   NC3 7759   7.477   0.581  12.493
36306DOPC   PO4 7760   7.797   0.581  12.713
36306DOPC   GL1 7761   8.177   0.501  12.573
36306DOPC   GL2 7762   8.097   0.671  12.493
36306DOPC   C1A 7763   8.567   0.401  12.323
36306DOPC   D2A 7764   8.827   0.581  11.953
36306DOPC   C3A 7765   8.897   0.581  11.473
36306DOPC   C4A 7766   9.117   0.851  11.153
36306DOPC   C1B 7767   8.527   0.871  12.443
36306DOPC   D2B 7768   8.887   1.141  12.193
36306DOPC   C3B 7769   8.897   1.531  11.963
36306DOPC   C4B 7770   9.187   1.701  11.623
36307DOPC   NC3 7771   2.087   6.421   7.693
36307DOPC   PO4 7772   1.787   6.171   7.573
36307DOPC   GL1 7773   1.797   6.141   7.163
36307DOPC   GL2 7774   2.047   5.961   7.143
36307DOPC   C1A 7775   1.767   6.111   6.673
36307DOPC   D2A 7776   1.717   6.311   6.203
36307DOPC   C3A 7777   1.867   6.281   5.743
36307DOPC   C4A 7778   2.177   6.511   5.433
36307DOPC   C1B 7779   2.237   5.771   6.783
36307DOPC   D2B 7780   2.397   5.731   6.253
36307DOPC   C3B 7781   2.217   5.831   5.803
36307DOPC   C4B 7782   2.007   6.011   5.343
36308DOPC   NC3 7783   9.857   4.971  13.893
36308DOPC   PO4 7784   9.867   4.721  14.203
36308DOPC   GL1 7785  10.177   4.461  14.193
36308DOPC   GL2 7786  10.047   4.231  14.053
36308DOPC   C1A 7787  10.513   4.351  13.883
36308DOPC   D2A 7788  10.623   4.211  13.413
36308DOPC   C3A 7789  10.943   4.501  13.233
36308DOPC   C4A 7790  10.863   4.981  13.303
36308DOPC   C1B 7791  10.343   3.861  13.953
36308DOPC   D2B 7792  10.513   3.461  13.613
36308DOPC   C3B 7793  10.653   3.071  13.323
36308DOPC   C4B 7794  11.013   3.061  13.023
36309DOPC   NC3 7795  15.633   1.261  15.853
36309DOPC   PO4 7796  15.973   1.451  15.933
36309DOPC   GL1 7797  16.063   1.381  15.553
36309DOPC   GL2 7798  15.913   1.591  15.463
36309DOPC   C1A 7799  15.873   1.031  15.263
36309DOPC   D2A 7800  15.623   0.841  14.823
36309DOPC   C3A 7801  15.793   0.481  14.633
36309DOPC   C4A 7802  15.843   0.021  14.463
36309DOPC   C1B 7803  15.533   1.741  15.243
36309DOPC   D2B 7804  15.453   2.161  14.943
36309DOPC   C3B 7805  15.493   2.161  14.503
36309DOPC   C4B 7806  15.623   2.241  14.013
36310DOPC   NC3 7807  15.813   0.481  15.983
36310DOPC   PO4 7808  15.453   0.701  15.963
36310DOPC   GL1 7809  15.233   0.521  15.683
36310DOPC   GL2 7810  15.013   0.711  15.593
36310DOPC   C1A 7811  15.223   0.291  15.323
36310DOPC   D2A 7812  15.003   7.762  14.953
36310DOPC   C3A 7813  15.073   7.612  14.503
36310DOPC   C4A 7814  15.573   7.422  14.383
36310DOPC   C1B 7815  14.953   0.811  15.203
36310DOPC   D2B 7816  14.673   0.881  14.723
36310DOPC   C3B 7817  14.823   0.851  14.303
36310DOPC   C4B 7818  14.913   0.581  13.883
36311DOPC   NC3 7819  10.763   2.511  15.253
36311DOPC   PO4 7820  11.103   2.331  15.273
36311DOPC   GL1 7821  11.303   2.131  14.973
36311DOPC   GL2 7822  11.513   2.041  15.063
36311DOPC   C1A 7823  11.123   1.961  14.593
36311DOPC   D2A 7824  11.023   1.581  14.303
36311DOPC   C3A 7825  11.143   1.421  13.883
36311DOPC   C4A 7826  11.353   1.331  13.473
36311DOPC   C1B 7827  11.633   2.101  14.633
36311DOPC   D2B 7828  11.783   2.151  14.163
36311DOPC   C3B 7829  11.973   2.341  13.723
36311DOPC   C4B 7830  12.263   2.121  13.403
36312DOPC   NC3 7831   4.017   3.511   8.473
36312DOPC   PO4 7832   4.387   3.331   8.533
36312DOPC   GL1 7833   4.707   3.211   8.233
36312DOPC   GL2 7834   4.517   3.121   8.053
36312DOPC   C1A 7835   4.817   3.441   7.873
36312DOPC   D2A 7836   4.837   3.531   7.423
36312DOPC   C3A 7837   4.767   3.431   7.003
36312DOPC   C4A 7838   4.577   3.211   6.583
36312DOPC   C1B 7839   4.587   3.161   7.513
36312DOPC   D2B 7840   4.537   3.001   7.043
36312DOPC   C3B 7841   4.797   2.781   6.733
36312DOPC   C4B 7842   4.817   2.671   6.273
36313DOPC   NC3 7843  24.273   1.241   8.723
36313DOPC   PO4 7844  23.983   1.461   8.533
36313DOPC   GL1 7845  23.893   1.291   8.203
36313DOPC   GL2 7846  23.613   1.191   8.283
36313DOPC   C1A 7847  24.063   1.271   7.813
36313DOPC   D2A 7848  24.063   1.411   7.353
36313DOPC   C3A 7849  23.863   1.691   7.053
36313DOPC   C4A 7850  23.653   2.061   6.853
36313DOPC   C1B 7851  23.363   0.901   8.073
36313DOPC   D2B 7852  23.213   0.691   7.633
36313DOPC   C3B 7853  23.103   0.911   7.203
36313DOPC   C4B 7854  22.963   1.141   6.783
36314DOPC   NC3 7855  21.713   2.591  12.033
36314DOPC   PO4 7856  21.773   3.011  12.003
36314DOPC   GL1 7857  21.443   3.201  11.863
36314DOPC   GL2 7858  21.333   2.911  11.813
36314DOPC   C1A 7859  21.043   3.301  12.043
36314DOPC   D2A 7860  20.583   3.131  12.093
36314DOPC   C3A 7861  20.203   3.111  11.853
36314DOPC   C4A 7862  19.713   3.151  11.833
36314DOPC   C1B 7863  20.893   2.731  11.873
36314DOPC   D2B 7864  20.473   2.681  11.703
36314DOPC   C3B 7865  20.363   2.351  11.343
36314DOPC   C4B 7866  20.223   2.061  10.983
36315DOPC   NC3 7867  21.363   2.481  13.293
36315DOPC   PO4 7868  21.053   2.371  13.503
36315DOPC   GL1 7869  20.643   2.411  13.353
36315DOPC   GL2 7870  20.673   2.301  13.143
36315DOPC   C1A 7871  20.293   2.531  13.113
36315DOPC   D2A 7872  20.033   2.671  12.743
36315DOPC   C3A 7873  19.793   2.461  12.443
36315DOPC   C4A 7874  19.563   2.141  12.113
36315DOPC   C1B 7875  20.523   1.951  12.963
36315DOPC   D2B 7876  20.493   1.701  12.473
36315DOPC   C3B 7877  20.763   1.331  12.223
36315DOPC   C4B 7878  21.013   0.921  12.133
36316DOPC   NC3 7879  10.583   2.731  14.843
36316DOPC   PO4 7880  10.833   3.021  15.013
36316DOPC   GL1 7881  10.783   3.191  14.763
36316DOPC   GL2 7882  10.863   2.941  14.553
36316DOPC   C1A 7883  10.903   3.601  14.683
36316DOPC   D2A 7884  11.223   3.801  14.363
36316DOPC   C3A 7885  11.653   3.831  14.143
36316DOPC   C4A 7886  12.033   3.641  14.033
36316DOPC   C1B 7887  10.763   2.971  14.123
36316DOPC   D2B 7888  10.933   3.161  13.743
36316DOPC   C3B 7889  10.933   3.481  13.403
36316DOPC   C4B 7890  10.913   3.801  13.083
36317DOPC   NC3 7891   6.027   1.101  10.333
36317DOPC   PO4 7892   6.307   0.961  10.053
36317DOPC   GL1 7893   6.297   0.961   9.723
36317DOPC   GL2 7894   6.207   1.161   9.543
36317DOPC   C1A 7895   6.687   0.861   9.573
36317DOPC   D2A 7896   7.097   0.741   9.373
36317DOPC   C3A 7897   7.537   0.591   9.263
36317DOPC   C4A 7898   7.987   0.441   9.133
36317DOPC   C1B 7899   6.547   1.271   9.293
36317DOPC   D2B 7900   6.957   1.331   9.003
36317DOPC   C3B 7901   7.397   1.441   9.133
36317DOPC   C4B 7902   7.847   1.521   9.273
36318DOPC   NC3 7903  22.283   3.781   9.943
36318DOPC   PO4 7904  22.553   3.891   9.723
36318DOPC   GL1 7905  22.443   3.971   9.333
36318DOPC   GL2 7906  22.633   3.761   9.183
36318DOPC   C1A 7907  22.123   4.011   9.093
36318DOPC   D2A 7908  21.723   4.011   8.803
36318DOPC   C3A 7909  21.283   4.101   8.933
36318DOPC   C4A 7910  20.763   4.211   8.803
36318DOPC   C1B 7911  22.583   3.751   8.693
36318DOPC   D2B 7912  22.433   3.781   8.183
36318DOPC   C3B 7913  22.803   4.021   8.033
36318DOPC   C4B 7914  23.163   4.151   7.783
36319DOPC   NC3 7915  19.743   6.711  13.653
36319DOPC   PO4 7916  19.653   7.021  13.823
36319DOPC   GL1 7917  19.273   7.061  13.643
36319DOPC   GL2 7918  19.233   6.861  13.493
36319DOPC   C1A 7919  18.823   7.282  13.583
36319DOPC   D2A 7920  18.363   7.472  13.343
36319DOPC   C3A 7921  17.913   7.412  13.383
36319DOPC   C4A 7922  17.423   7.362  13.573
36319DOPC   C1B 7923  19.463   7.071  13.173
36319DOPC   D2B 7924  19.563   7.192  12.743
36319DOPC   C3B 7925  19.333   7.242  12.363
36319DOPC   C4B 7926  19.063   7.212  11.893
36320DOPC   NC3 7927  17.463   1.911  15.223
36320DOPC   PO4 7928  17.053   1.931  15.153
36320DOPC   GL1 7929  16.983   1.851  14.743
36320DOPC   GL2 7930  16.843   2.131  14.803
36320DOPC   C1A 7931  16.803   1.581  14.613
36320DOPC   D2A 7932  16.623   1.251  14.263
36320DOPC   C3A 7933  16.263   1.061  14.013
36320DOPC   C4A 7934  16.023   0.741  13.783
36320DOPC   C1B 7935  16.743   2.141  14.383
36320DOPC   D2B 7936  16.483   2.111  13.943
36320DOPC   C3B 7937  16.313   2.081  13.553
36320DOPC   C4B 7938  16.033   2.301  13.223
36321DOPC   NC3 7939  23.383   5.951  10.303
36321DOPC   PO4 7940  23.003   6.071  10.273
36321DOPC   GL1 7941  22.543   5.911  10.073
36321DOPC   GL2 7942  22.723   6.011   9.803
36321DOPC   C1A 7943  22.183   5.921  10.033
36321DOPC   D2A 7944  21.813   5.621   9.933
36321DOPC   C3A 7945  21.513   5.861   9.633
36321DOPC   C4A 7946  21.273   5.841   9.263
36321DOPC   C1B 7947  22.353   6.181   9.553
36321DOPC   D2B 7948  22.103   6.261   9.163
36321DOPC   C3B 7949  21.943   6.201   8.733
36321DOPC   C4B 7950  21.693   6.191   8.343
36322DOPA   PO4 7951  14.843   4.691  15.963
36322DOPA   GL1 7952  14.823   4.641  15.593
36322DOPA   GL2 7953  14.573   4.571  15.513
36322DOPA   C1A 7954  15.033   4.371  15.253
36322DOPA   D2A 7955  15.313   4.011  15.113
36322DOPA   C3A 7956  15.333   3.971  14.663
36322DOPA   C4A 7957  15.213   3.811  14.243
36322DOPA   C1B 7958  14.573   4.561  15.083
36322DOPA   D2B 7959  14.423   4.411  14.593
36322DOPA   C3B 7960  14.563   4.511  14.213
36322DOPA   C4B 7961  14.643   4.601  13.733
36323DOPA   PO4 7962  21.983   7.432  11.613
36323DOPA   GL1 7963  21.693   7.542  11.293
36323DOPA   GL2 7964  21.753   0.081  11.443
36323DOPA   C1A 7965  21.273   7.362  11.183
36323DOPA   D2A 7966  20.813   7.442  10.953
36323DOPA   C3A 7967  20.553   7.642  10.643
36323DOPA   C4A 7968  20.333   0.061  10.213
36323DOPA   C1B 7969  21.293   0.181  11.423
36323DOPA   D2B 7970  20.773   0.191  11.233
36323DOPA   C3B 7971  20.423   7.682  11.133
36323DOPA   C4B 7972  20.253   7.342  10.853
36324DOPA   PO4 7973   5.157   1.191   8.773
36324DOPA   GL1 7974   5.517   1.321   8.543
36324DOPA   GL2 7975   5.347   1.591   8.513
36324DOPA   C1A 7976   5.917   1.241   8.583
36324DOPA   D2A 7977   6.197   1.071   8.183
36324DOPA   C3A 7978   6.587   1.191   7.953
36324DOPA   C4A 7979   6.887   1.281   7.663
36324DOPA   C1B 7980   5.357   1.521   8.143
36324DOPA   D2B 7981   5.737   1.261   7.943
36324DOPA   C3B 7982   6.067   1.101   7.603
36324DOPA   C4B 7983   6.477   0.881   7.483
36325DOPA   PO4 7984   4.557   7.172   8.753
36325DOPA   GL1 7985   4.897   7.242   8.483
36325DOPA   GL2 7986   4.797   7.492   8.423
36325DOPA   C1A 7987   5.267   7.131   8.543
36325DOPA   D2A 7988   5.727   7.091   8.313
36325DOPA   C3A 7989   5.847   6.801   7.933
36325DOPA   C4A 7990   6.227   6.711   7.613
36325DOPA   C1B 7991   4.937   7.532   8.043
36325DOPA   D2B 7992   5.117   7.432   7.613
36325DOPA   C3B 7993   5.317   7.121   7.323
36325DOPA   C4B 7994   5.627   6.961   7.003
36326DOPA   PO4 7995   8.747   3.501  14.093
36326DOPA   GL1 7996   9.027   3.751  13.893
36326DOPA   GL2 7997   9.117   3.561  13.743
36326DOPA   C1A 7998   9.177   4.061  13.643
36326DOPA   D2A 7999   9.557   4.221  13.423
36326DOPA   C3A 8000   9.737   4.591  13.223
36326DOPA   C4A 8001  10.117   4.891  13.223
36326DOPA   C1B 8002   9.487   3.711  13.493
36326DOPA   D2B 8003   9.777   3.731  13.113
36326DOPA   C3B 8004  10.017   3.971  12.803
36326DOPA   C4B 8005  10.117   3.981  12.343
36327DOPA   PO4 8006  24.173   5.451   8.473
36327DOPA   GL1 8007  23.983   5.701   8.273
36327DOPA   GL2 8008  23.873   5.551   8.033
36327DOPA   C1A 8009  23.693   6.031   8.313
36327DOPA   D2A 8010  23.733   6.471   8.103
36327DOPA   C3A 8011  23.333   6.631   7.853
36327DOPA   C4A 8012  23.123   7.081   7.843
36327DOPA   C1B 8013  23.553   5.771   7.763
36327DOPA   D2B 8014  23.173   5.641   7.473
36327DOPA   C3B 8015  22.993   5.651   7.073
36327DOPA   C4B 8016  22.523   5.621   6.923
36328DOPA   PO4 8017   1.347   7.592   7.473
36328DOPA   GL1 8018   1.197   7.482   7.123
36328DOPA   GL2 8019   1.437   7.372   7.023
36328DOPA   C1A 8020   1.157   7.722   6.793
36328DOPA   D2A 8021   1.447   0.231   6.593
36328DOPA   C3A 8022   1.717   0.251   6.133
36328DOPA   C4A 8023   1.777   0.471   5.653
36328DOPA   C1B 8024   1.387   7.212   6.663
36328DOPA   D2B 8025   1.307   7.312   6.163
36328DOPA   C3B 8026   1.097   6.981   5.853
36328DOPA   C4B 8027   1.147   6.681   5.433
36329DOPA   PO4 8028  15.983   7.031  15.673
36329DOPA   GL1 8029  15.783   6.791  15.373
36329DOPA   GL2 8030  16.033   6.871  15.203
36329DOPA   C1A 8031  15.823   6.461  15.103
36329DOPA   D2A 8032  15.983   6.231  14.723
36329DOPA   C3A 8033  16.173   6.131  14.333
36329DOPA   C4A 8034  16.073   5.801  13.963
36329DOPA   C1B 8035  16.013   6.751  14.783
36329DOPA   D2B 8036  15.963   6.981  14.263
36329DOPA   C3B 8037  16.003   7.372  14.013
36329DOPA   C4B 8038  15.793   7.382  13.563
36330DOPA   PO4 8039  21.963   5.561  11.573
36330DOPA   GL1 8040  21.633   5.551  11.503
36330DOPA   GL2 8041  21.513   5.761  11.423
36330DOPA   C1A 8042  21.243   5.351  11.233
36330DOPA   D2A 8043  20.743   5.401  11.063
36330DOPA   C3A 8044  20.373   5.271  11.333
36330DOPA   C4A 8045  20.323   5.401  11.803
36330DOPA   C1B 8046  21.073   5.831  11.413
36330DOPA   D2B 8047  20.543   5.811  11.283
36330DOPA   C3B 8048  20.083   5.731  11.153
36330DOPA   C4B 8049  19.633   5.551  11.103
36331DOPA   PO4 8050   6.207   6.291   9.953
36331DOPA   GL1 8051   6.407   6.401   9.523
36331DOPA   GL2 8052   6.687   6.431   9.713
36331DOPA   C1A 8053   6.557   6.321   9.143
36331DOPA   D2A 8054   6.947   6.191   8.913
36331DOPA   C3A 8055   7.207   6.231   8.553
36331DOPA   C4A 8056   7.487   6.501   8.263
36331DOPA   C1B 8057   7.047   6.431   9.513
36331DOPA   D2B 8058   7.507   6.521   9.313
36331DOPA   C3B 8059   7.697   6.211   9.023
36331DOPA   C4B 8060   7.797   5.781   9.113
36332DOPA   PO4 8061   0.277   0.181   7.533
36332DOPA   GL1 8062   0.337   0.261   7.123
36332DOPA   GL2 8063   0.637   0.191   7.103
36332DOPA   C1A 8064  24.903   0.141   6.903
36332DOPA   D2A 8065  24.623   0.101   6.453
36332DOPA   C3A 8066  24.513   7.692   6.073
36332DOPA   C4A 8067  24.173   7.392   5.793
36332DOPA   C1B 8068   0.707   0.381   6.733
36332DOPA   D2B 8069   0.877   0.311   6.283
36332DOPA   C3B 8070   1.217   0.021   6.213
36332DOPA   C4B 8071   1.377   7.702   5.763
36333DOPA   PO4 8072  21.963   6.471  11.743
36333DOPA   GL1 8073  21.943   6.711  11.393
36333DOPA   GL2 8074  21.713   6.871  11.483
36333DOPA   C1A 8075  21.643   6.341  11.213
36333DOPA   D2A 8076  21.353   6.011  11.053
36333DOPA   C3A 8077  20.893   6.041  10.913
36333DOPA   C4A 8078  20.403   5.921  10.743
36333DOPA   C1B 8079  21.433   6.821  11.173
36333DOPA   D2B 8080  21.313   6.871  10.693
36333DOPA   C3B 8081  21.573   7.081  10.383
36333DOPA   C4B 8082  21.903   7.392  10.073
36334DOPA   PO4 8083  19.913   0.661  14.003
36334DOPA   GL1 8084  19.953   0.661  13.633
36334DOPA   GL2 8085  20.053   0.891  13.673
36334DOPA   C1A 8086  19.723   0.551  13.253
36334DOPA   D2A 8087  19.433   0.331  12.873
36334DOPA   C3A 8088  18.943   0.251  12.623
36334DOPA   C4A 8089  18.763   0.521  12.293
36334DOPA   C1B 8090  20.153   0.981  13.243
36334DOPA   D2B 8091  19.923   0.861  12.823
36334DOPA   C3B 8092  19.763   0.611  12.463
36334DOPA   C4B 8093  19.633   0.121  12.503
36335DOPA   PO4 8094  21.363   6.091  12.163
36335DOPA   GL1 8095  21.123   6.071  11.823
36335DOPA   GL2 8096  20.883   6.031  11.923
36335DOPA   C1A 8097  21.223   6.401  11.513
36335DOPA   D2A 8098  21.093   6.511  11.033
36335DOPA   C3A 8099  20.933   6.471  10.553
36335DOPA   C4A 8100  20.813   6.381  10.053
36335DOPA   C1B 8101  20.723   6.191  11.533
36335DOPA   D2B 8102  20.513   6.471  11.103
36335DOPA   C3B 8103  20.113   6.611  11.223
36335DOPA   C4B 8104  19.753   6.581  11.533
36336DOPA   PO4 8105  10.263   3.191  14.723
36336DOPA   GL1 8106  10.573   3.361  14.393
36336DOPA   GL2 8107  10.333   3.321  14.243
36336DOPA   C1A 8108  10.743   3.651  14.203
36336DOPA   D2A 8109  10.873   3.851  13.733
36336DOPA   C3A 8110  11.153   4.021  13.493
36336DOPA   C4A 8111  11.633   4.061  13.403
36336DOPA   C1B 8112  10.273   3.071  13.903
36336DOPA   D2B 8113  10.037   2.851  13.463
36336DOPA   C3B 8114  10.137   2.751  13.033
36336DOPA   C4B 8115  10.323   2.571  12.613
36337DOPA   PO4 8116  19.593   3.671  13.553
36337DOPA   GL1 8117  19.473   3.161  13.433
36337DOPA   GL2 8118  19.653   3.271  13.233
36337DOPA   C1A 8119  19.093   3.071  13.373
36337DOPA   D2A 8120  18.663   2.961  13.203
36337DOPA   C3A 8121  18.353   2.741  12.963
36337DOPA   C4A 8122  18.083   2.691  12.593
36337DOPA   C1B 8123  19.273   3.401  13.033
36337DOPA   D2B 8124  19.013   3.361  12.683
36337DOPA   C3B 8125  18.973   3.571  12.253
36337DOPA   C4B 8126  18.713   3.941  12.093
36338DOPA   PO4 8127  20.863   5.141  12.753
36338DOPA   GL1 8128  20.463   5.351  12.663
36338DOPA   GL2 8129  20.333   5.091  12.583
36338DOPA   C1A 8130  20.243   5.681  12.823
36338DOPA   D2A 8131  19.843   5.841  12.603
36338DOPA   C3A 8132  19.593   5.711  12.243
36338DOPA   C4A 8133  19.303   5.411  11.983
36338DOPA   C1B 8134  20.003   4.921  12.423
36338DOPA   D2B 8135  19.653   4.691  12.243
36338DOPA   C3B 8136  19.673   4.481  11.803
36338DOPA   C4B 8137  19.493   4.591  11.373
36339DOPA   PO4 8138  22.273   2.981  11.153
36339DOPA   GL1 8139  21.883   3.231  11.093
36339DOPA   GL2 8140  21.833   3.211  11.383
36339DOPA   C1A 8141  21.473   3.371  10.913
36339DOPA   D2A 8142  21.023   3.481  10.633
36339DOPA   C3A 8143  21.013   3.751  10.273
36339DOPA   C4A 8144  21.303   4.021   9.913
36339DOPA   C1B 8145  21.533   2.931  11.183
36339DOPA   D2B 8146  21.123   2.821  10.943
36339DOPA   C3B 8147  20.883   3.011  10.583
36339DOPA   C4B 8148  20.793   3.221  10.243
36340DOPA   PO4 8149   2.367   1.141   7.783
36340DOPA   GL1 8150   2.397   1.161   7.383
36340DOPA   GL2 8151   2.527   1.441   7.303
36340DOPA   C1A 8152   2.207   1.211   7.033
36340DOPA   D2A 8153   2.217   0.961   6.553
36340DOPA   C3A 8154   2.597   0.921   6.213
36340DOPA   C4A 8155   2.967   0.971   5.903
36340DOPA   C1B 8156   2.887   1.431   7.043
36340DOPA   D2B 8157   3.297   1.361   6.733
36340DOPA   C3B 8158   3.617   1.631   6.583
36340DOPA   C4B 8159   4.047   1.761   6.373
36341DOPA   PO4 8160  16.283   0.461  15.773
36341DOPA   GL1 8161  16.063   0.631  15.523
36341DOPA   GL2 8162  15.753   0.581  15.553
36341DOPA   C1A 8163  16.103   0.481  15.073
36341DOPA   D2A 8164  16.283   0.341  14.593
36341DOPA   C3A 8165  16.163   0.311  14.203
36341DOPA   C4A 8166  15.843   0.051  13.943
36341DOPA   C1B 8167  15.643   0.421  15.163
36341DOPA   D2B 8168  15.423   0.121  14.723
36341DOPA   C3B 8169  15.203   0.321  14.343
36341DOPA   C4B 8170  15.343   0.261  13.903
36342DOPA   PO4 8171   9.027   5.871  13.473
36342DOPA   GL1 8172   9.237   5.801  13.173
36342DOPA   GL2 8173   9.557   5.741  13.313
36342DOPA   C1A 8174   9.287   5.741  12.763
36342DOPA   D2A 8175   9.407   5.461  12.413
36342DOPA   C3A 8176   9.517   5.491  11.963
36342DOPA   C4A 8177   9.557   5.341  11.483
36342DOPA   C1B 8178   9.927   5.601  13.193
36342DOPA   D2B 8179  10.383   5.801  13.043
36342DOPA   C3B 8180  10.793   5.991  12.883
36342DOPA   C4B 8181  11.293   6.151  12.803
36343DOPA   PO4 8182   2.827   4.641   7.463
36343DOPA   GL1 8183   2.507   4.671   7.143
36343DOPA   GL2 8184   2.537   4.921   7.043
36343DOPA   C1A 8185   2.567   4.291   6.853
36343DOPA   D2A 8186   2.687   4.001   6.603
36343DOPA   C3A 8187   2.917   3.741   6.323
36343DOPA   C4A 8188   3.107   3.511   5.993
36343DOPA   C1B 8189   2.637   4.961   6.673
36343DOPA   D2B 8190   2.727   5.081   6.193
36343DOPA   C3B 8191   3.007   5.161   5.843
36343DOPA   C4B 8192   3.357   5.411   5.663
36344DOPA   PO4 8193  13.763   3.501  16.043
36344DOPA   GL1 8194  13.633   3.521  15.603
36344DOPA   GL2 8195  13.333   3.541  15.753
36344DOPA   C1A 8196  13.603   3.301  15.223
36344DOPA   D2A 8197  13.853   3.171  14.873
36344DOPA   C3A 8198  14.173   2.801  14.743
36344DOPA   C4A 8199  14.473   2.541  14.483
36344DOPA   C1B 8200  12.973   3.501  15.453
36344DOPA   D2B 8201  12.573   3.621  15.153
36344DOPA   C3B 8202  12.593   3.161  15.053
36344DOPA   C4B 8203  12.813   2.731  14.943
36345DOPA   PO4 8204  15.543   5.221  15.973
36345DOPA   GL1 8205  15.533   5.221  15.533
36345DOPA   GL2 8206  15.763   5.011  15.563
36345DOPA   C1A 8207  15.113   5.141  15.473
36345DOPA   D2A 8208  14.643   5.051  15.533
36345DOPA   C3A 8209  14.763   5.001  15.163
36345DOPA   C4A 8210  14.583   4.981  14.713
36345DOPA   C1B 8211  16.083   5.151  15.313
36345DOPA   D2B 8212  16.373   5.511  15.083
36345DOPA   C3B 8213  16.583   5.811  15.483
36345DOPA   C4B 8214  16.463   6.271  15.503
36346DOPA   PO4 8215  18.863   4.381  14.053
36346DOPA   GL1 8216  18.773   3.951  14.013
36346DOPA   GL2 8217  18.443   4.101  13.983
36346DOPA   C1A 8218  18.863   3.831  13.613
36346DOPA   D2A 8219  19.203   3.911  13.273
36346DOPA   C3A 8220  19.043   4.161  12.933
36346DOPA   C4A 8221  18.943   3.991  12.503
36346DOPA   C1B 8222  18.273   4.151  13.613
36346DOPA   D2B 8223  18.193   4.191  13.113
36346DOPA   C3B 8224  17.803   4.201  12.853
36346DOPA   C4B 8225  17.453   4.271  12.563
36347DOPC   NC3 8226  17.083   3.431  10.813
36347DOPC   PO4 8227  16.773   3.671  10.903
36347DOPC   GL1 8228  17.033   3.631  11.243
36347DOPC   GL2 8229  16.963   3.901  11.353
36347DOPC   C1A 8230  17.013   3.551  11.723
36347DOPC   D2A 8231  16.943   3.461  12.193
36347DOPC   C3A 8232  16.973   3.241  12.593
36347DOPC   C4A 8233  17.013   3.171  13.053
36347DOPC   C1B 8234  17.333   3.941  11.703
36347DOPC   D2B 8235  17.583   4.061  12.093
36347DOPC   C3B 8236  17.913   4.171  12.403
36347DOPC   C4B 8237  18.413   4.031  12.583
36348DOPC   NC3 8238  22.393   0.231   5.053
36348DOPC   PO4 8239  22.213   7.672   5.123
36348DOPC   GL1 8240  22.573   7.752   5.383
36348DOPC   GL2 8241  22.463   7.552   5.503
36348DOPC   C1A 8242  22.643   0.241   5.673
36348DOPC   D2A 8243  22.803   0.531   6.083
36348DOPC   C3A 8244  22.853   0.201   6.353
36348DOPC   C4A 8245  22.983   7.622   6.553
36348DOPC   C1B 8246  22.383   7.692   5.863
36348DOPC   D2B 8247  22.393   0.251   6.223
36348DOPC   C3B 8248  22.523   0.511   6.523
36348DOPC   C4B 8249  22.593   0.781   6.923
36349DOPC   NC3 8250   4.927   4.001   3.923
36349DOPC   PO4 8251   4.587   4.161   3.923
36349DOPC   GL1 8252   4.357   4.261   4.183
36349DOPC   GL2 8253   4.147   4.431   4.093
36349DOPC   C1A 8254   4.367   4.061   4.623
36349DOPC   D2A 8255   4.387   3.691   4.943
36349DOPC   C3A 8256   4.317   3.611   5.353
36349DOPC   C4A 8257   3.967   3.601   5.643
36349DOPC   C1B 8258   3.857   4.531   4.393
36349DOPC   D2B 8259   3.657   4.531   4.823
36349DOPC   C3B 8260   3.517   4.721   5.233
36349DOPC   C4B 8261   3.337   4.911   5.563
36350DOPC   NC3 8262  11.533   7.392  10.083
36350DOPC   PO4 8263  11.273   7.041  10.063
36350DOPC   GL1 8264  11.233   6.661  10.303
36350DOPC   GL2 8265  11.083   6.851  10.453
36350DOPC   C1A 8266  11.103   6.411  10.633
36350DOPC   D2A 8267  10.763   6.361  10.983
36350DOPC   C3A 8268  10.373   6.461  11.223
36350DOPC   C4A 8269  10.037   6.521  11.583
36350DOPC   C1B 8270  10.633   6.711  10.573
36350DOPC   D2B 8271  10.177   6.391  10.703
36350DOPC   C3B 8272   9.757   6.431  10.913
36350DOPC   C4B 8273   9.297   6.251  11.093
36351DOPC   NC3 8274   7.707   2.671   5.763
36351DOPC   PO4 8275   7.697   2.841   6.123
36351DOPC   GL1 8276   7.497   2.801   6.413
36351DOPC   GL2 8277   7.607   2.551   6.493
36351DOPC   C1A 8278   7.257   2.691   6.773
36351DOPC   D2A 8279   6.987   2.451   7.133
36351DOPC   C3A 8280   6.507   2.591   7.093
36351DOPC   C4A 8281   6.087   2.891   7.283
36351DOPC   C1B 8282   7.767   2.601   6.953
36351DOPC   D2B 8283   7.637   2.561   7.373
36351DOPC   C3B 8284   7.427   2.581   7.783
36351DOPC   C4B 8285   7.047   2.471   8.103
36352DOPC   NC3 8286  14.753   7.041  12.103
36352DOPC   PO4 8287  14.783   6.691  11.933
36352DOPC   GL1 8288  14.643   6.271  12.113
36352DOPC   GL2 8289  14.913   6.251  12.263
36352DOPC   C1A 8290  14.433   6.461  12.493
36352DOPC   D2A 8291  14.123   6.651  12.823
36352DOPC   C3A 8292  14.163   6.481  13.203
36352DOPC   C4A 8293  14.163   6.681  13.663
36352DOPC   C1B 8294  15.053   6.401  12.653
36352DOPC   D2B 8295  15.073   6.491  13.143
36352DOPC   C3B 8296  15.363   6.721  13.493
36352DOPC   C4B 8297  15.413   6.741  13.953
36353DOPC   NC3 8298   7.867   5.771   5.813
36353DOPC   PO4 8299   7.597   5.451   5.943
36353DOPC   GL1 8300   7.147   5.331   6.053
36353DOPC   GL2 8301   7.077   5.611   6.133
36353DOPC   C1A 8302   7.217   5.221   6.533
36353DOPC   D2A 8303   7.557   5.191   6.893
36353DOPC   C3A 8304   7.587   5.471   7.273
36353DOPC   C4A 8305   7.947   5.741   7.503
36353DOPC   C1B 8306   6.807   5.521   6.483
36353DOPC   D2B 8307   6.767   5.571   6.933
36353DOPC   C3B 8308   6.537   5.471   7.283
36353DOPC   C4B 8309   6.287   5.281   7.673
36354DOPC   NC3 8310  19.533   2.251   7.603
36354DOPC   PO4 8311  19.643   1.891   7.483
36354DOPC   GL1 8312  19.983   1.911   7.723
36354DOPC   GL2 8313  19.813   2.011   7.953
36354DOPC   C1A 8314  20.373   1.691   7.783
36354DOPC   D2A 8315  20.813   1.741   8.023
36354DOPC   C3A 8316  21.163   1.811   7.773
36354DOPC   C4A 8317  21.593   1.781   7.603
36354DOPC   C1B 8318  19.953   2.011   8.333
36354DOPC   D2B 8319  20.243   2.001   8.703
36354DOPC   C3B 8320  20.673   1.971   8.953
36354DOPC   C4B 8321  20.983   1.851   9.323
36355DOPC   NC3 8322   9.267   2.721   7.623
36355DOPC   PO4 8323   9.157   3.031   7.353
36355DOPC   GL1 8324   8.837   3.141   7.593
36355DOPC   GL2 8325   8.887   2.971   7.793
36355DOPC   C1A 8326   8.357   3.101   7.613
36355DOPC   D2A 8327   7.887   3.051   7.443
36355DOPC   C3A 8328   7.567   3.101   7.753
36355DOPC   C4A 8329   7.217   2.971   8.083
36355DOPC   C1B 8330   8.567   2.961   8.093
36355DOPC   D2B 8331   8.227   2.951   8.453
36355DOPC   C3B 8332   7.727   2.991   8.543
36355DOPC   C4B 8333   7.247   3.051   8.683
36356DOPC   NC3 8334  19.783   7.782   7.073
36356DOPC   PO4 8335  20.043   0.151   6.843
36356DOPC   GL1 8336  20.223   0.451   6.943
36356DOPC   GL2 8337  20.503   0.481   6.793
36356DOPC   C1A 8338  20.453   0.411   7.353
36356DOPC   D2A 8339  20.663   0.051   7.643
36356DOPC   C3A 8340  21.093   7.672   7.673
36356DOPC   C4A 8341  21.633   7.512   7.673
36356DOPC   C1B 8342  20.833   0.481   6.993
36356DOPC   D2B 8343  21.253   0.671   7.133
36356DOPC   C3B 8344  21.303   0.841   7.603
36356DOPC   C4B 8345  21.363   0.821   8.103
36357DOPC   NC3 8346  18.793   6.341   9.333
36357DOPC   PO4 8347  18.523   6.361   9.603
36357DOPC   GL1 8348  18.633   6.441  10.003
36357DOPC   GL2 8349  18.453   6.221  10.093
36357DOPC   C1A 8350  18.883   6.641  10.343
36357DOPC   D2A 8351  18.983   7.131  10.533
36357DOPC   C3A 8352  19.203   7.372  10.843
36357DOPC   C4A 8353  19.523   7.512  11.133
36357DOPC   C1B 8354  18.743   6.041  10.333
36357DOPC   D2B 8355  19.073   5.771  10.583
36357DOPC   C3B 8356  19.203   5.941  11.013
36357DOPC   C4B 8357  19.593   6.021  11.293
36358DOPC   NC3 8358   9.797   6.481   8.153
36358DOPC   PO4 8359   9.477   6.691   8.083
36358DOPC   GL1 8360   9.217   6.761   8.403
36358DOPC   GL2 8361   9.007   6.651   8.173
36358DOPC   C1A 8362   9.097   6.771   8.803
36358DOPC   D2A 8363   8.897   6.851   9.233
36358DOPC   C3A 8364   8.497   7.051   9.403
36358DOPC   C4A 8365   8.087   7.141   9.563
36358DOPC   C1B 8366   8.977   6.161   8.153
36358DOPC   D2B 8367   8.587   5.911   8.083
36358DOPC   C3B 8368   8.417   5.791   8.503
36358DOPC   C4B 8369   8.267   5.711   8.973
36359DOPC   NC3 8370   8.087   7.171   6.093
36359DOPC   PO4 8371   8.277   7.051   6.433
36359DOPC   GL1 8372   8.037   6.901   6.583
36359DOPC   GL2 8373   7.777   7.011   6.503
36359DOPC   C1A 8374   8.067   6.721   6.983
36359DOPC   D2A 8375   7.767   6.721   7.433
36359DOPC   C3A 8376   7.367   6.711   7.723
36359DOPC   C4A 8377   7.027   6.621   8.013
36359DOPC   C1B 8378   7.587   6.971   6.923
36359DOPC   D2B 8379   7.267   6.991   7.283
36359DOPC   C3B 8380   6.927   6.771   7.513
36359DOPC   C4B 8381   6.677   6.441   7.683
36360DOPC   NC3 8382   8.057   3.131   6.273
36360DOPC   PO4 8383   7.817   3.421   6.053
36360DOPC   GL1 8384   7.467   3.321   6.263
36360DOPC   GL2 8385   7.297   3.181   5.983
36360DOPC   C1A 8386   7.147   3.111   6.543
36360DOPC   D2A 8387   6.867   2.971   6.903
36360DOPC   C3A 8388   6.527   3.141   7.133
36360DOPC   C4A 8389   6.397   3.421   7.483
36360DOPC   C1B 8390   7.027   2.901   6.123
36360DOPC   D2B 8391   6.637   2.961   6.413
36360DOPC   C3B 8392   6.587   3.351   6.693
36360DOPC   C4B 8393   6.477   3.721   6.973
36361DOPC   NC3 8394  15.173   2.541  11.893
36361DOPC   PO4 8395  15.073   2.221  12.053
36361DOPC   GL1 8396  15.203   2.431  12.343
36361DOPC   GL2 8397  15.463   2.301  12.263
36361DOPC   C1A 8398  14.913   2.471  12.703
36361DOPC   D2A 8399  14.803   2.761  13.093
36361DOPC   C3A 8400  15.003   2.651  13.483
36361DOPC   C4A 8401  15.203   2.491  13.873
36361DOPC   C1B 8402  15.573   2.301  12.673
36361DOPC   D2B 8403  15.593   2.061  13.123
36361DOPC   C3B 8404  15.483   1.671  13.373
36361DOPC   C4B 8405  15.413   1.231  13.603
36362DOPC   NC3 8406   5.397   4.661   3.713
36362DOPC   PO4 8407   5.077   4.511   3.913
36362DOPC   GL1 8408   4.877   4.801   4.273
36362DOPC   GL2 8409   4.687   4.591   4.233
36362DOPC   C1A 8410   5.057   5.101   4.513
36362DOPC   D2A 8411   5.157   5.421   4.813
36362DOPC   C3A 8412   5.117   5.391   5.253
36362DOPC   C4A 8413   5.057   5.541   5.723
36362DOPC   C1B 8414   4.497   4.521   4.543
36362DOPC   D2B 8415   4.167   4.451   4.873
36362DOPC   C3B 8416   3.977   4.621   5.213
36362DOPC   C4B 8417   3.827   4.741   5.673
36363DOPC   NC3 8418  10.713   5.551   9.773
36363DOPC   PO4 8419  10.853   5.271   9.583
36363DOPC   GL1 8420  10.583   5.101   9.793
36363DOPC   GL2 8421  10.693   5.041  10.033
36363DOPC   C1A 8422  10.177   5.041   9.923
36363DOPC   D2A 8423   9.697   5.181  10.213
36363DOPC   C3A 8424   9.297   5.121  10.103
36363DOPC   C4A 8425   8.827   5.131   9.943
36363DOPC   C1B 8426  10.493   5.071  10.473
36363DOPC   D2B 8427  10.483   5.311  10.913
36363DOPC   C3B 8428  10.097   5.431  11.163
36363DOPC   C4B 8429   9.977   5.631  11.553
36364DOPC   NC3 8430   0.267   6.351   3.493
36364DOPC   PO4 8431  24.833   6.501   3.473
36364DOPC   GL1 8432  24.793   6.671   3.903
36364DOPC   GL2 8433   0.047   6.471   3.953
36364DOPC   C1A 8434  24.483   6.671   4.123
36364DOPC   D2A 8435  24.263   6.581   4.553
36364DOPC   C3A 8436  24.333   6.211   4.843
36364DOPC   C4A 8437  24.453   5.861   5.183
36364DOPC   C1B 8438   0.307   6.401   4.223
36364DOPC   D2B 8439   0.547   6.221   4.603
36364DOPC   C3B 8440   0.817   6.011   4.893
36364DOPC   C4B 8441   0.727   5.661   5.213
36365DOPC   NC3 8442  12.453   3.961  11.173
36365DOPC   PO4 8443  12.703   4.221  11.313
36365DOPC   GL1 8444  12.493   4.111  11.683
36365DOPC   GL2 8445  12.233   4.051  11.573
36365DOPC   C1A 8446  12.553   4.241  12.083
36365DOPC   D2A 8447  12.523   4.111  12.543
36365DOPC   C3A 8448  12.593   3.941  12.983
36365DOPC   C4A 8449  12.723   3.881  13.453
36365DOPC   C1B 8450  11.873   4.291  11.723
36365DOPC   D2B 8451  11.663   4.511  12.053
36365DOPC   C3B 8452  11.743   4.661  12.523
36365DOPC   C4B 8453  11.863   4.941  12.903
36366DOPC   NC3 8454   7.007   3.391   4.223
36366DOPC   PO4 8455   6.937   3.221   4.573
36366DOPC   GL1 8456   6.657   3.101   4.873
36366DOPC   GL2 8457   6.867   3.131   5.013
36366DOPC   C1A 8458   6.497   2.681   5.123
36366DOPC   D2A 8459   6.347   2.301   5.403
36366DOPC   C3A 8460   6.187   2.331   5.833
36366DOPC   C4A 8461   5.927   2.241   6.303
36366DOPC   C1B 8462   6.647   3.081   5.463
36366DOPC   D2B 8463   6.507   3.111   5.903
36366DOPC   C3B 8464   6.237   3.211   6.273
36366DOPC   C4B 8465   6.187   2.931   6.743
36367DOPC   NC3 8466   9.377   1.791   7.593
36367DOPC   PO4 8467   9.587   2.121   7.713
36367DOPC   GL1 8468   9.287   2.371   7.923
36367DOPC   GL2 8469   9.157   2.111   7.933
36367DOPC   C1A 8470   8.987   2.621   8.173
36367DOPC   D2A 8471   8.657   2.661   8.613
36367DOPC   C3A 8472   8.237   2.521   8.673
36367DOPC   C4A 8473   7.797   2.441   8.763
36367DOPC   C1B 8474   8.797   2.181   8.203
36367DOPC   D2B 8475   8.357   2.121   8.423
36367DOPC   C3B 8476   8.187   1.701   8.533
36367DOPC   C4B 8477   7.797   1.531   8.773
36368DOPC   NC3 8478  19.603   3.391   7.883
36368DOPC   PO4 8479  19.943   3.481   7.633
36368DOPC   GL1 8480  20.363   3.721   7.593
36368DOPC   GL2 8481  20.433   3.621   7.843
36368DOPC   C1A 8482  20.693   3.971   7.613
36368DOPC   D2A 8483  21.053   4.311   7.513
36368DOPC   C3A 8484  21.463   4.211   7.673
36368DOPC   C4A 8485  21.903   4.311   7.483
36368DOPC   C1B 8486  20.843   3.571   8.013
36368DOPC   D2B 8487  21.333   3.471   8.073
36368DOPC   C3B 8488  21.713   3.471   8.353
36368DOPC   C4B 8489  22.053   3.711   8.583
36369DOPC   NC3 8490  13.563   4.571  11.993
36369DOPC   PO4 8491  13.383   4.241  12.103
36369DOPC   GL1 8492  13.003   4.251  12.063
36369DOPC   GL2 8493  12.943   3.961  12.233
36369DOPC   C1A 8494  12.863   4.441  12.503
36369DOPC   D2A 8495  12.823   4.761  12.923
36369DOPC   C3A 8496  13.033   4.931  13.323
36369DOPC   C4A 8497  13.343   5.011  13.683
36369DOPC   C1B 8498  12.943   3.861  12.563
36369DOPC   D2B 8499  13.093   3.801  13.033
36369DOPC   C3B 8500  13.203   4.041  13.413
36369DOPC   C4B 8501  13.193   4.481  13.723
36370DOPC   NC3 8502  10.923   1.301   9.183
36370DOPC   PO4 8503  11.133   1.351   9.553
36370DOPC   GL1 8504  10.763   1.331   9.773
36370DOPC   GL2 8505  10.573   1.271   9.573
36370DOPC   C1A 8506  10.503   1.221  10.103
36370DOPC   D2A 8507  10.177   0.901  10.283
36370DOPC   C3A 8508   9.767   0.881  10.463
36370DOPC   C4A 8509   9.307   0.911  10.313
36370DOPC   C1B 8510  10.217   1.101   9.693
36370DOPC   D2B 8511   9.767   0.991   9.913
36370DOPC   C3B 8512   9.367   1.221   9.853
36370DOPC   C4B 8513   8.957   1.531   9.953
36371DOPC   NC3 8514   5.067   0.541   4.683
36371DOPC   PO4 8515   4.777   0.791   4.583
36371DOPC   GL1 8516   4.917   1.121   4.783
36371DOPC   GL2 8517   5.137   0.951   4.873
36371DOPC   C1A 8518   4.717   1.291   5.153
36371DOPC   D2A 8519   4.327   1.141   5.483
36371DOPC   C3A 8520   4.027   1.381   5.843
36371DOPC   C4A 8521   3.627   1.401   6.173
36371DOPC   C1B 8522   5.007   0.791   5.283
36371DOPC   D2B 8523   4.897   1.071   5.663
36371DOPC   C3B 8524   4.727   1.481   5.663
36371DOPC   C4B 8525   4.307   1.661   5.553
36372DOPC   NC3 8526  14.103   7.572  11.423
36372DOPC   PO4 8527  13.913   7.262  11.633
36372DOPC   GL1 8528  13.743   7.302  12.033
36372DOPC   GL2 8529  13.913   7.332  12.173
36372DOPC   C1A 8530  13.413   7.262  12.313
36372DOPC   D2A 8531  13.283   7.312  12.773
36372DOPC   C3A 8532  12.893   7.202  13.053
36372DOPC   C4A 8533  12.643   6.821  13.323
36372DOPC   C1B 8534  13.803   7.472  12.573
36372DOPC   D2B 8535  13.513   7.712  13.003
36372DOPC   C3B 8536  13.073   7.672  13.043
36372DOPC   C4B 8537  12.673   0.091  13.113
36373DOPC   NC3 8538   7.487   3.821   5.423
36373DOPC   PO4 8539   7.317   4.191   5.423
36373DOPC   GL1 8540   6.927   4.221   5.513
36373DOPC   GL2 8541   7.007   3.961   5.653
36373DOPC   C1A 8542   6.657   4.361   5.833
36373DOPC   D2A 8543   6.407   4.641   6.133
36373DOPC   C3A 8544   6.117   4.481   6.473
36373DOPC   C4A 8545   5.747   4.381   6.783
36373DOPC   C1B 8546   6.937   3.981   6.123
36373DOPC   D2B 8547   6.577   4.161   6.323
36373DOPC   C3B 8548   6.487   4.181   6.813
36373DOPC   C4B 8549   6.497   4.321   7.283
36374DOPC   NC3 8550  10.087   5.771   8.193
36374DOPC   PO4 8551   9.887   6.011   7.983
36374DOPC   GL1 8552   9.527   6.051   8.103
36374DOPC   GL2 8553   9.397   6.281   8.183
36374DOPC   C1A 8554   9.257   5.731   8.233
36374DOPC   D2A 8555   8.917   5.801   8.543
36374DOPC   C3A 8556   8.737   5.901   8.993
36374DOPC   C4A 8557   8.597   5.871   9.413
36374DOPC   C1B 8558   9.177   6.301   8.573
36374DOPC   D2B 8559   8.837   6.401   8.913
36374DOPC   C3B 8560   8.537   6.401   9.293
36374DOPC   C4B 8561   8.327   6.261   9.683
36375DOPC   NC3 8562   9.557   5.641   7.833
36375DOPC   PO4 8563   9.307   5.491   7.533
36375DOPC   GL1 8564   8.967   5.561   7.713
36375DOPC   GL2 8565   8.917   5.721   7.943
36375DOPC   C1A 8566   8.537   5.491   7.893
36375DOPC   D2A 8567   8.097   5.631   8.053
36375DOPC   C3A 8568   7.697   5.631   8.243
36375DOPC   C4A 8569   7.257   5.771   8.453
36375DOPC   C1B 8570   8.837   5.421   8.263
36375DOPC   D2B 8571   8.667   5.371   8.723
36375DOPC   C3B 8572   8.357   5.231   9.043
36375DOPC   C4B 8573   7.877   5.321   9.263
36376DOPC   NC3 8574   6.337   3.921   4.843
36376DOPC   PO4 8575   6.067   3.651   4.663
36376DOPC   GL1 8576   5.777   3.681   4.913
36376DOPC   GL2 8577   5.557   3.771   4.723
36376DOPC   C1A 8578   5.607   3.471   5.213
36376DOPC   D2A 8579   5.767   3.031   5.433
36376DOPC   C3A 8580   6.217   2.881   5.483
36376DOPC   C4A 8581   6.627   2.671   5.683
36376DOPC   C1B 8582   5.307   4.141   4.673
36376DOPC   D2B 8583   5.117   4.561   4.573
36376DOPC   C3B 8584   4.867   4.621   4.933
36376DOPC   C4B 8585   4.507   4.721   5.263
36377DOPC   NC3 8586   5.917   1.261   4.223
36377DOPC   PO4 8587   5.647   1.431   4.383
36377DOPC   GL1 8588   5.587   1.661   4.763
36377DOPC   GL2 8589   5.817   1.811   4.633
36377DOPC   C1A 8590   5.687   1.731   5.133
36377DOPC   D2A 8591   5.667   1.811   5.633
36377DOPC   C3A 8592   5.557   1.791   6.123
36377DOPC   C4A 8593   5.597   1.971   6.603
36377DOPC   C1B 8594   5.927   2.101   4.903
36377DOPC   D2B 8595   6.017   2.541   5.113
36377DOPC   C3B 8596   5.797   2.551   5.513
36377DOPC   C4B 8597   5.397   2.751   5.683
36378DOPC   NC3 8598  13.223   5.161  11.453
36378DOPC   PO4 8599  13.523   5.181  11.753
36378DOPC   GL1 8600  13.443   5.041  12.123
36378DOPC   GL2 8601  13.703   5.001  12.113
36378DOPC   C1A 8602  13.293   5.201  12.433
36378DOPC   D2A 8603  12.933   5.321  12.743
36378DOPC   C3A 8604  12.703   5.451  13.093
36378DOPC   C4A 8605  12.433   5.631  13.463
36378DOPC   C1B 8606  13.733   4.971  12.543
36378DOPC   D2B 8607  13.443   4.881  12.943
36378DOPC   C3B 8608  13.503   4.541  13.243
36378DOPC   C4B 8609  13.673   4.251  13.653
36379DOPC   NC3 8610  10.653   5.801   8.853
36379DOPC   PO4 8611  10.303   5.731   8.633
36379DOPC   GL1 8612   9.937   5.831   8.863
36379DOPC   GL2 8613   9.807   5.571   8.823
36379DOPC   C1A 8614   9.697   6.061   9.113
36379DOPC   D2A 8615   9.537   6.061   9.533
36379DOPC   C3A 8616   9.357   6.051   9.953
36379DOPC   C4A 8617   8.977   6.111  10.223
36379DOPC   C1B 8618   9.587   5.581   9.213
36379DOPC   D2B 8619   9.347   5.571   9.633
36379DOPC   C3B 8620   8.957   5.711   9.823
36379DOPC   C4B 8621   8.427   5.711   9.903
36380DOPC   NC3 8622   7.177   4.381   5.883
36380DOPC   PO4 8623   7.497   4.111   5.923
36380DOPC   GL1 8624   7.377   3.991   6.283
36380DOPC   GL2 8625   7.437   3.751   6.353
36380DOPC   C1A 8626   7.237   4.211   6.643
36380DOPC   D2A 8627   6.927   4.361   6.943
36380DOPC   C3A 8628   6.967   4.331   7.393
36380DOPC   C4A 8629   6.867   4.291   7.893
36380DOPC   C1B 8630   7.277   3.651   6.683
36380DOPC   D2B 8631   7.087   3.431   7.033
36380DOPC   C3B 8632   6.887   3.321   7.423
36380DOPC   C4B 8633   6.757   3.161   7.853
36381DOPC   NC3 8634   2.347   0.621   3.303
36381DOPC   PO4 8635   2.407   0.941   3.553
36381DOPC   GL1 8636   2.327   0.821   4.043
36381DOPC   GL2 8637   2.097   0.651   3.873
36381DOPC   C1A 8638   2.547   0.521   4.323
36381DOPC   D2A 8639   2.827   0.501   4.753
36381DOPC   C3A 8640   3.007   0.491   5.153
36381DOPC   C4A 8641   3.127   0.481   5.673
36381DOPC   C1B 8642   2.017   0.571   4.313
36381DOPC   D2B 8643   1.927   0.681   4.833
36381DOPC   C3B 8644   2.117   0.431   5.193
36381DOPC   C4B 8645   2.217   0.181   5.633
36382DOPC   NC3 8646  22.513   6.491   4.613
36382DOPC   PO4 8647  22.583   6.881   4.773
36382DOPC   GL1 8648  22.603   7.031   5.193
36382DOPC   GL2 8649  22.803   6.811   5.203
36382DOPC   C1A 8650  22.723   7.192   5.613
36382DOPC   D2A 8651  22.833   7.592   5.833
36382DOPC   C3A 8652  23.233   7.682   6.143
36382DOPC   C4A 8653  23.403   0.251   6.443
36382DOPC   C1B 8654  22.773   6.671   5.683
36382DOPC   D2B 8655  22.853   6.681   6.163
36382DOPC   C3B 8656  22.783   6.611   6.613
36382DOPC   C4B 8657  23.003   6.561   6.993
36383DOPC   NC3 8658  16.603   0.801  11.543
36383DOPC   PO4 8659  16.473   0.471  11.683
36383DOPC   GL1 8660  16.723   0.531  12.033
36383DOPC   GL2 8661  16.853   0.761  11.903
36383DOPC   C1A 8662  17.013   0.451  12.383
36383DOPC   D2A 8663  17.223   0.401  12.823
36383DOPC   C3A 8664  16.993   0.301  13.213
36383DOPC   C4A 8665  16.593   0.101  13.373
36383DOPC   C1B 8666  16.893   0.981  12.223
36383DOPC   D2B 8667  17.213   1.191  12.583
36383DOPC   C3B 8668  17.173   0.891  12.923
36383DOPC   C4B 8669  17.353   0.611  13.333
36384DOPC   NC3 8670  14.993   0.551  11.603
36384DOPC   PO4 8671  14.723   0.471  11.913
36384DOPC   GL1 8672  14.603   0.291  12.193
36384DOPC   GL2 8673  14.403   0.161  12.213
36384DOPC   C1A 8674  14.663   0.471  12.613
36384DOPC   D2A 8675  14.603   0.691  13.073
36384DOPC   C3A 8676  14.563   0.851  13.473
36384DOPC   C4A 8677  14.313   0.811  13.943
36384DOPC   C1B 8678  14.163   0.071  12.563
36384DOPC   D2B 8679  14.053   7.792  13.073
36384DOPC   C3B 8680  13.843   7.532  13.293
36384DOPC   C4B 8681  13.473   7.161  13.353
36385DOPC   NC3 8682   9.207   3.401   7.713
36385DOPC   PO4 8683   9.377   3.121   7.963
36385DOPC   GL1 8684   9.387   3.081   8.353
36385DOPC   GL2 8685   9.017   3.071   8.303
36385DOPC   C1A 8686   9.187   2.761   8.613
36385DOPC   D2A 8687   8.997   2.341   8.853
36385DOPC   C3A 8688   8.787   2.111   9.253
36385DOPC   C4A 8689   8.457   2.211   9.593
36385DOPC   C1B 8690   8.807   3.371   8.013
36385DOPC   D2B 8691   8.647   3.751   7.703
36385DOPC   C3B 8692   8.277   3.891   7.813
36385DOPC   C4B 8693   8.217   4.241   8.023
36386DOPC   NC3 8694  18.223   2.561   9.653
36386DOPC   PO4 8695  18.453   2.811   9.713
36386DOPC   GL1 8696  18.763   2.611   9.873
36386DOPC   GL2 8697  18.893   2.621   9.553
36386DOPC   C1A 8698  19.023   2.561  10.173
36386DOPC   D2A 8699  19.463   2.541  10.363
36386DOPC   C3A 8700  19.853   2.491  10.433
36386DOPC   C4A 8701  20.293   2.281  10.493
36386DOPC   C1B 8702  19.263   2.491   9.743
36386DOPC   D2B 8703  19.683   2.331   9.883
36386DOPC   C3B 8704  19.833   2.041  10.223
36386DOPC   C4B 8705  20.203   1.771  10.373
36387DOPC   NC3 8706   8.987   1.281   6.893
36387DOPC   PO4 8707   8.767   1.001   6.683
36387DOPC   GL1 8708   8.637   0.891   6.993
36387DOPC   GL2 8709   8.787   0.641   7.043
36387DOPC   C1A 8710   8.517   1.141   7.433
36387DOPC   D2A 8711   8.527   1.171   7.863
36387DOPC   C3A 8712   8.517   0.891   8.203
36387DOPC   C4A 8713   8.437   0.901   8.703
36387DOPC   C1B 8714   8.467   0.581   7.393
36387DOPC   D2B 8715   8.107   0.631   7.733
36387DOPC   C3B 8716   7.797   0.301   7.853
36387DOPC   C4B 8717   7.697   0.031   8.223
36388DOPC   NC3 8718  16.523   6.111  10.893
36388DOPC   PO4 8719  16.823   6.341  10.823
36388DOPC   GL1 8720  17.193   6.471  11.043
36388DOPC   GL2 8721  17.123   6.701  11.133
36388DOPC   C1A 8722  17.453   6.291  11.373
36388DOPC   D2A 8723  17.723   6.491  11.763
36388DOPC   C3A 8724  17.673   6.701  12.123
36388DOPC   C4A 8725  17.623   6.791  12.653
36388DOPC   C1B 8726  17.173   6.681  11.553
36388DOPC   D2B 8727  17.003   6.581  11.983
36388DOPC   C3B 8728  17.213   6.441  12.373
36388DOPC   C4B 8729  17.093   6.411  12.833
36389DOPC   NC3 8730  13.443   1.981  11.423
36389DOPC   PO4 8731  13.693   2.081  11.743
36389DOPC   GL1 8732  13.593   2.241  12.153
36389DOPC   GL2 8733  13.503   2.501  12.043
36389DOPC   C1A 8734  13.483   2.041  12.533
36389DOPC   D2A 8735  13.313   1.721  12.893
36389DOPC   C3A 8736  13.153   1.911  13.263
36389DOPC   C4A 8737  12.983   2.061  13.763
36389DOPC   C1B 8738  13.183   2.441  12.433
36389DOPC   D2B 8739  12.743   2.561  12.733
36389DOPC   C3B 8740  12.333   2.541  13.073
36389DOPC   C4B 8741  11.853   2.351  13.263
36390DOPC   NC3 8742  22.113   5.961   4.213
36390DOPC   PO4 8743  22.393   6.041   4.493
36390DOPC   GL1 8744  22.363   6.071   4.883
36390DOPC   GL2 8745  22.463   5.801   4.933
36390DOPC   C1A 8746  22.433   6.351   5.203
36390DOPC   D2A 8747  22.273   6.721   5.503
36390DOPC   C3A 8748  22.283   6.751   5.993
36390DOPC   C4A 8749  22.433   6.921   6.423
36390DOPC   C1B 8750  22.743   5.991   5.283
36390DOPC   D2B 8751  22.973   6.201   5.713
36390DOPC   C3B 8752  23.343   6.561   5.573
36390DOPC   C4B 8753  23.773   6.781   5.463
36391DOPC   NC3 8754  21.943   1.081   4.983
36391DOPC   PO4 8755  22.223   0.811   4.963
36391DOPC   GL1 8756  22.353   0.681   5.423
36391DOPC   GL2 8757  22.153   0.941   5.453
36391DOPC   C1A 8758  22.723   0.831   5.663
36391DOPC   D2A 8759  23.213   0.741   5.743
36391DOPC   C3A 8760  23.663   0.611   5.633
36391DOPC   C4A 8761  24.103   0.841   5.523
36391DOPC   C1B 8762  22.433   1.301   5.623
36391DOPC   D2B 8763  22.843   1.391   5.953
36391DOPC   C3B 8764  23.213   1.181   6.213
36391DOPC   C4B 8765  23.403   1.041   6.683
36392DOPC   NC3 8766   4.247   6.911   3.923
36392DOPC   PO4 8767   3.847   6.831   3.923
36392DOPC   GL1 8768   3.797   6.871   4.353
36392DOPC   GL2 8769   4.067   6.981   4.413
36392DOPC   C1A 8770   3.367   6.861   4.583
36392DOPC   D2A 8771   3.067   6.641   4.973
36392DOPC   C3A 8772   3.067   6.731   5.433
36392DOPC   C4A 8773   3.127   6.871   5.883
36392DOPC   C1B 8774   3.927   6.921   4.813
36392DOPC   D2B 8775   3.827   7.011   5.273
36392DOPC   C3B 8776   3.807   7.252   5.713
36392DOPC   C4B 8777   3.687   7.422   6.193
36393DOPC   NC3 8778   5.747   3.151   4.733
36393DOPC   PO4 8779   5.557   3.391   4.463
36393DOPC   GL1 8780   5.057   3.361   4.613
36393DOPC   GL2 8781   5.307   3.391   4.853
36393DOPC   C1A 8782   4.787   3.281   4.963
36393DOPC   D2A 8783   4.507   3.201   5.353
36393DOPC   C3A 8784   4.267   3.201   5.753
36393DOPC   C4A 8785   4.327   3.441   6.173
36393DOPC   C1B 8786   5.167   3.721   5.013
36393DOPC   D2B 8787   4.767   3.741   5.333
36393DOPC   C3B 8788   4.557   4.011   5.653
36393DOPC   C4B 8789   4.217   3.931   6.013
36394DOPC   NC3 8790  19.083   1.501   8.223
36394DOPC   PO4 8791  19.173   1.771   8.453
36394DOPC   GL1 8792  19.483   1.761   8.743
36394DOPC   GL2 8793  19.663   1.591   8.513
36394DOPC   C1A 8794  19.713   1.901   9.023
36394DOPC   D2A 8795  20.163   2.031   9.243
36394DOPC   C3A 8796  20.313   2.471   9.173
36394DOPC   C4A 8797  20.693   2.791   9.013
36394DOPC   C1B 8798  20.013   1.601   8.743
36394DOPC   D2B 8799  20.223   1.491   9.193
36394DOPC   C3B 8800  20.543   1.711   9.443
36394DOPC   C4B 8801  20.573   2.181   9.503
36395DOPC   NC3 8802  15.653   5.601  11.613
36395DOPC   PO4 8803  15.813   5.391  11.913
36395DOPC   GL1 8804  16.123   5.321  12.113
36395DOPC   GL2 8805  16.213   5.611  11.973
36395DOPC   C1A 8806  16.033   5.281  12.553
36395DOPC   D2A 8807  16.083   5.061  12.983
36395DOPC   C3A 8808  16.413   5.181  13.303
36395DOPC   C4A 8809  16.683   5.001  13.663
36395DOPC   C1B 8810  16.513   5.931  12.123
36395DOPC   D2B 8811  16.793   6.251  12.383
36395DOPC   C3B 8812  16.813   6.731  12.523
36395DOPC   C4B 8813  16.713   7.262  12.583
36396DOPC   NC3 8814  17.943   4.091  10.003
36396DOPC   PO4 8815  18.103   3.731   9.973
36396DOPC   GL1 8816  18.393   3.621  10.273
36396DOPC   GL2 8817  18.443   3.891  10.283
36396DOPC   C1A 8818  18.363   3.521  10.733
36396DOPC   D2A 8819  18.363   3.541  11.243
36396DOPC   C3A 8820  18.773   3.751  11.303
36396DOPC   C4A 8821  18.983   3.831  11.703
36396DOPC   C1B 8822  18.743   3.871  10.583
36396DOPC   D2B 8823  19.133   3.811  10.853
36396DOPC   C3B 8824  19.563   3.801  10.773
36396DOPC   C4B 8825  19.983   3.641  10.543
36397DOPC   NC3 8826   1.127   3.381   3.743
36397DOPC   PO4 8827   1.447   3.161   3.833
36397DOPC   GL1 8828   1.667   3.531   4.043
36397DOPC   GL2 8829   1.567   3.711   3.813
36397DOPC   C1A 8830   1.507   3.731   4.383
36397DOPC   D2A 8831   1.367   3.581   4.813
36397DOPC   C3A 8832   1.277   3.731   5.263
36397DOPC   C4A 8833   1.307   3.491   5.743
36397DOPC   C1B 8834   1.407   4.121   3.953
36397DOPC   D2B 8835   1.477   4.541   3.703
36397DOPC   C3B 8836   1.407   4.881   4.083
36397DOPC   C4B 8837   1.237   5.021   4.543
36398DOPC   NC3 8838   9.587   4.021   7.243
36398DOPC   PO4 8839   9.377   3.901   7.583
36398DOPC   GL1 8840   9.177   4.051   8.003
36398DOPC   GL2 8841   9.047   3.811   7.883
36398DOPC   C1A 8842   8.997   4.331   8.243
36398DOPC   D2A 8843   8.897   4.781   8.403
36398DOPC   C3A 8844   8.507   4.871   8.653
36398DOPC   C4A 8845   8.007   4.921   8.763
36398DOPC   C1B 8846   8.737   3.881   8.243
36398DOPC   D2B 8847   8.447   3.751   8.653
36398DOPC   C3B 8848   8.097   3.991   8.823
36398DOPC   C4B 8849   7.867   4.331   8.683
36399DOPC   NC3 8850  24.203   5.651   3.253
36399DOPC   PO4 8851  24.403   5.311   3.383
36399DOPC   GL1 8852  24.403   5.111   3.713
36399DOPC   GL2 8853  24.733   5.091   3.643
36399DOPC   C1A 8854  24.453   5.251   4.133
36399DOPC   D2A 8855  24.443   5.291   4.583
36399DOPC   C3A 8856  24.723   5.521   4.883
36399DOPC   C4A 8857  24.753   5.511   5.453
36399DOPC   C1B 8858  24.893   5.271   3.963
36399DOPC   D2B 8859   0.057   5.401   4.423
36399DOPC   C3B 8860   0.167   5.281   4.873
36399DOPC   C4B 8861  24.933   5.001   5.313
36400DOPC   NC3 8862  21.103   3.331   5.613
36400DOPC   PO4 8863  21.303   3.051   5.473
36400DOPC   GL1 8864  21.413   3.131   5.863
36400DOPC   GL2 8865  21.203   3.151   6.043
36400DOPC   C1A 8866  21.603   2.911   6.193
36400DOPC   D2A 8867  21.993   2.841   6.533
36400DOPC   C3A 8868  22.433   2.941   6.633
36400DOPC   C4A 8869  22.873   2.941   6.893
36400DOPC   C1B 8870  21.333   3.191   6.493
36400DOPC   D2B 8871  21.563   3.001   6.883
36400DOPC   C3B 8872  21.983   2.911   7.033
36400DOPC   C4B 8873  22.423   2.981   7.203
36401DOPC   NC3 8874  18.903   2.161   9.353
36401DOPC   PO4 8875  19.083   2.361   9.053
36401DOPC   GL1 8876  19.363   2.511   9.223
36401DOPC   GL2 8877  19.343   2.721   9.023
36401DOPC   C1A 8878  19.733   2.231   9.363
36401DOPC   D2A 8879  20.053   2.061   9.713
36401DOPC   C3A 8880  20.223   2.391  10.013
36401DOPC   C4A 8881  20.483   2.761  10.253
36401DOPC   C1B 8882  19.553   2.951   8.783
36401DOPC   D2B 8883  20.053   2.981   8.583
36401DOPC   C3B 8884  20.503   2.991   8.563
36401DOPC   C4B 8885  20.993   3.261   8.553
36402DOPC   NC3 8886   4.947   1.141   4.283
36402DOPC   PO4 8887   5.267   0.981   4.443
36402DOPC   GL1 8888   5.207   1.361   4.593
36402DOPC   GL2 8889   5.067   1.541   4.383
36402DOPC   C1A 8890   5.267   1.461   5.033
36402DOPC   D2A 8891   5.297   1.391   5.483
36402DOPC   C3A 8892   5.247   1.371   5.913
36402DOPC   C4A 8893   5.257   1.491   6.453
36402DOPC   C1B 8894   4.767   1.651   4.703
36402DOPC   D2B 8895   4.617   1.881   5.163
36402DOPC   C3B 8896   4.697   2.031   5.563
36402DOPC   C4B 8897   4.587   1.871   5.973
36403DOPC   NC3 8898  14.363   1.501  12.293
36403DOPC   PO4 8899  14.643   1.761  12.283
36403DOPC   GL1 8900  14.793   1.801  12.683
36403DOPC   GL2 8901  14.903   2.031  12.613
36403DOPC   C1A 8902  14.623   1.781  13.063
36403DOPC   D2A 8903  14.253   1.761  13.403
36403DOPC   C3A 8904  14.283   2.011  13.823
36403DOPC   C4A 8905  14.283   2.111  14.333
36403DOPC   C1B 8906  15.123   2.031  12.933
36403DOPC   D2B 8907  15.193   2.191  13.393
36403DOPC   C3B 8908  15.583   2.291  13.523
36403DOPC   C4B 8909  16.023   2.421  13.743
36404DOPC   NC3 8910  16.373   5.301  11.163
36404DOPC   PO4 8911  16.603   5.601  11.193
36404DOPC   GL1 8912  16.983   5.611  11.313
36404DOPC   GL2 8913  17.093   5.361  11.303
36404DOPC   C1A 8914  17.183   5.901  11.563
36404DOPC   D2A 8915  17.423   6.171  11.893
36404DOPC   C3A 8916  17.753   6.181  12.183
36404DOPC   C4A 8917  17.853   6.301  12.603
36404DOPC   C1B 8918  17.183   5.381  11.743
36404DOPC   D2B 8919  17.313   5.291  12.253
36404DOPC   C3B 8920  17.533   5.011  12.623
36404DOPC   C4B 8921  17.813   4.921  13.033
36405DOPC   NC3 8922   9.007   6.421   7.253
36405DOPC   PO4 8923   8.877   6.711   7.103
36405DOPC   GL1 8924   8.517   6.881   7.323
36405DOPC   GL2 8925   8.447   6.681   7.393
36405DOPC   C1A 8926   8.237   7.212   7.293
36405DOPC   D2A 8927   7.767   7.332   7.273
36405DOPC   C3A 8928   7.597   7.151   7.613
36405DOPC   C4A 8929   7.767   6.751   7.933
36405DOPC   C1B 8930   8.247   6.761   7.793
36405DOPC   D2B 8931   8.187   6.761   8.283
36405DOPC   C3B 8932   7.927   6.881   8.683
36405DOPC   C4B 8933   7.787   7.001   9.103
36406DOPC   NC3 8934  11.213   1.311  10.033
36406DOPC   PO4 8935  11.543   1.341  10.233
36406DOPC   GL1 8936  11.353   1.431  10.543
36406DOPC   GL2 8937  11.353   1.151  10.693
36406DOPC   C1A 8938  10.923   1.251  10.523
36406DOPC   D2A 8939  10.533   1.181  10.703
36406DOPC   C3A 8940  10.217   1.301  10.973
36406DOPC   C4A 8941   9.997   1.501  11.323
36406DOPC   C1B 8942  10.983   1.121  10.973
36406DOPC   D2B 8943  10.613   1.181  11.273
36406DOPC   C3B 8944  10.503   0.891  11.613
36406DOPC   C4B 8945  10.263   0.531  11.843
36407DOPC   NC3 8946  13.183   4.401  11.043
36407DOPC   PO4 8947  13.083   4.701  11.323
36407DOPC   GL1 8948  12.663   4.811  11.433
36407DOPC   GL2 8949  12.783   5.031  11.623
36407DOPC   C1A 8950  12.303   4.631  11.593
36407DOPC   D2A 8951  12.133   4.581  12.043
36407DOPC   C3A 8952  12.233   4.541  12.503
36407DOPC   C4A 8953  12.323   4.431  13.023
36407DOPC   C1B 8954  12.543   4.971  11.993
36407DOPC   D2B 8955  12.123   5.021  12.343
36407DOPC   C3B 8956  11.713   5.091  12.103
36407DOPC   C4B 8957  11.253   5.201  12.063
36408DOPC   NC3 8958  15.053   5.691  12.283
36408DOPC   PO4 8959  15.343   5.741  11.993
36408DOPC   GL1 8960  15.603   5.671  12.253
36408DOPC   GL2 8961  15.813   5.871  12.193
36408DOPC   C1A 8962  15.463   5.891  12.673
36408DOPC   D2A 8963  15.103   5.971  12.953
36408DOPC   C3A 8964  15.413   6.151  13.283
36408DOPC   C4A 8965  15.643   6.341  13.713
36408DOPC   C1B 8966  16.143   5.761  12.403
36408DOPC   D2B 8967  16.553   5.931  12.713
36408DOPC   C3B 8968  16.743   5.651  13.113
36408DOPC   C4B 8969  16.813   5.521  13.633
36409DOPC   NC3 8970  24.943   4.561   2.923
36409DOPC   PO4 8971  24.613   4.441   3.183
36409DOPC   GL1 8972  24.673   4.591   3.603
36409DOPC   GL2 8973  24.343   4.431   3.623
36409DOPC   C1A 8974  24.593   4.781   3.973
36409DOPC   D2A 8975  24.763   4.921   4.443
36409DOPC   C3A 8976   0.127   4.721   4.743
36409DOPC   C4A 8977   0.347   4.781   5.123
36409DOPC   C1B 8978  24.223   4.311   4.033
36409DOPC   D2B 8979  24.303   4.171   4.523
36409DOPC   C3B 8980  24.553   4.401   4.933
36409DOPC   C4B 8981  24.923   4.451   5.223
36410DOPC   NC3 8982  20.983   5.121   6.023
36410DOPC   PO4 8983  20.973   5.481   6.143
36410DOPC   GL1 8984  21.203   5.821   6.243
36410DOPC   GL2 8985  21.443   5.661   6.093
36410DOPC   C1A 8986  21.403   6.011   6.623
36410DOPC   D2A 8987  21.303   5.861   7.073
36410DOPC   C3A 8988  21.753   5.851   7.263
36410DOPC   C4A 8989  22.223   5.781   7.393
36410DOPC   C1B 8990  21.773   5.591   6.303
36410DOPC   D2B 8991  22.153   5.421   6.633
36410DOPC   C3B 8992  22.113   5.001   6.513
36410DOPC   C4B 8993  21.903   4.591   6.603
36411DOPC   NC3 8994  22.793   2.931   4.073
36411DOPC   PO4 8995  22.633   3.281   4.243
36411DOPC   GL1 8996  22.693   3.441   4.593
36411DOPC   GL2 8997  22.603   3.691   4.523
36411DOPC   C1A 8998  23.123   3.461   4.713
36411DOPC   D2A 8999  23.413   3.451   5.123
36411DOPC   C3A 9000  23.503   3.361   5.573
36411DOPC   C4A 9001  23.583   3.061   5.963
36411DOPC   C1B 9002  22.823   3.771   4.913
36411DOPC   D2B 9003  23.093   3.771   5.313
36411DOPC   C3B 9004  23.393   3.901   5.573
36411DOPC   C4B 9005  23.563   3.931   6.063
36412DOPC   NC3 9006  19.673   4.861   7.623
36412DOPC   PO4 9007  19.913   5.151   7.763
36412DOPC   GL1 9008  20.243   5.341   7.933
36412DOPC   GL2 9009  20.223   5.561   7.823
36412DOPC   C1A 9010  20.603   5.171   7.743
36412DOPC   D2A 9011  20.893   5.131   8.193
36412DOPC   C3A 9012  20.633   5.501   8.283
36412DOPC   C4A 9013  20.413   5.691   8.693
36412DOPC   C1B 9014  20.673   5.731   7.713
36412DOPC   D2B 9015  21.063   6.081   7.563
36412DOPC   C3B 9016  21.373   5.791   7.633
36412DOPC   C4B 9017  21.853   5.581   7.673
36413DOPC   NC3 9018  17.453   3.341  10.353
36413DOPC   PO4 9019  17.573   3.481  10.703
36413DOPC   GL1 9020  17.913   3.581  10.933
36413DOPC   GL2 9021  17.873   3.851  10.743
36413DOPC   C1A 9022  17.913   3.431  11.323
36413DOPC   D2A 9023  18.033   3.241  11.833
36413DOPC   C3A 9024  17.773   2.961  12.063
36413DOPC   C4A 9025  17.703   2.461  12.233
36413DOPC   C1B 9026  18.233   4.051  10.933
36413DOPC   D2B 9027  18.623   4.231  11.093
36413DOPC   C3B 9028  18.533   4.671  11.433
36413DOPC   C4B 9029  18.583   4.861  11.863
36414DOPC   NC3 9030  12.713   0.061  11.213
36414DOPC   PO4 9031  12.623   0.431  11.113
36414DOPC   GL1 9032  12.363   0.701  11.383
36414DOPC   GL2 9033  12.133   0.561  11.273
36414DOPC   C1A 9034  12.213   0.641  11.743
36414DOPC   D2A 9035  11.823   0.581  11.933
36414DOPC   C3A 9036  11.833   0.391  12.353
36414DOPC   C4A 9037  11.913   0.071  12.723
36414DOPC   C1B 9038  11.723   0.561  11.343
36414DOPC   D2B 9039  11.253   0.621  11.393
36414DOPC   C3B 9040  10.973   0.981  11.533
36414DOPC   C4B 9041  10.673   1.351  11.763
36415DOPC   NC3 9042  17.733   5.821   9.933
36415DOPC   PO4 9043  17.613   5.911  10.303
36415DOPC   GL1 9044  17.923   6.141  10.543
36415DOPC   GL2 9045  18.033   6.291  10.323
36415DOPC   C1A 9046  18.113   6.071  10.863
36415DOPC   D2A 9047  18.273   5.871  11.363
36415DOPC   C3A 9048  18.513   5.881  11.733
36415DOPC   C4A 9049  18.873   5.661  11.893
36415DOPC   C1B 9050  18.373   6.361  10.603
36415DOPC   D2B 9051  18.683   6.731  10.793
36415DOPC   C3B 9052  19.123   6.831  11.043
36415DOPC   C4B 9053  19.493   7.051  11.353
36416DOPC   NC3 9054   9.037   4.391   6.843
36416DOPC   PO4 9055   9.127   4.281   7.173
36416DOPC   GL1 9056   8.907   4.041   7.483
36416DOPC   GL2 9057   8.767   3.901   7.233
36416DOPC   C1A 9058   8.767   4.301   7.763
36416DOPC   D2A 9059   8.557   4.541   8.143
36416DOPC   C3A 9060   8.137   4.651   8.333
36416DOPC   C4A 9061   7.677   4.561   8.303
36416DOPC   C1B 9062   8.357   3.991   7.313
36416DOPC   D2B 9063   7.847   3.931   7.503
36416DOPC   C3B 9064   7.727   4.011   7.953
36416DOPC   C4B 9065   7.567   3.991   8.413
36417DOPC   NC3 9066   5.107   2.101   3.993
36417DOPC   PO4 9067   5.487   1.981   4.103
36417DOPC   GL1 9068   5.347   1.831   4.483
36417DOPC   GL2 9069   5.097   1.981   4.423
36417DOPC   C1A 9070   5.367   2.081   4.853
36417DOPC   D2A 9071   5.247   1.911   5.313
36417DOPC   C3A 9072   5.147   1.821   5.753
36417DOPC   C4A 9073   5.047   1.861   6.233
36417DOPC   C1B 9074   4.907   2.221   4.823
36417DOPC   D2B 9075   4.687   2.431   5.233
36417DOPC   C3B 9076   4.367   2.751   5.353
36417DOPC   C4B 9077   3.867   2.621   5.343
36418DOPC   NC3 9078  11.653   0.361  10.083
36418DOPC   PO4 9079  11.713   0.061  10.333
36418DOPC   GL1 9080  11.523   7.762  10.653
36418DOPC   GL2 9081  11.623   7.482  10.803
36418DOPC   C1A 9082  11.113   0.041  10.653
36418DOPC   D2A 9083  10.823   0.111  11.073
36418DOPC   C3A 9084  10.863   0.341  11.533
36418DOPC   C4A 9085  10.763   0.641  11.923
36418DOPC   C1B 9086  11.183   7.462  10.943
36418DOPC   D2B 9087  10.783   7.412  11.193
36418DOPC   C3B 9088  10.703   7.171  11.583
36418DOPC   C4B 9089  10.673   6.991  12.063
36419DOPC   NC3 9090  15.783   0.971  12.003
36419DOPC   PO4 9091  15.373   0.901  12.043
36419DOPC   GL1 9092  15.253   0.951  12.453
36419DOPC   GL2 9093  15.543   1.141  12.423
36419DOPC   C1A 9094  15.133   0.641  12.713
36419DOPC   D2A 9095  14.923   0.281  13.013
36419DOPC   C3A 9096  15.083   0.461  13.443
36419DOPC   C4A 9097  15.363   0.771  13.823
36419DOPC   C1B 9098  15.803   1.091  12.743
36419DOPC   D2B 9099  15.823   1.281  13.253
36419DOPC   C3B 9100  15.973   1.361  13.723
36419DOPC   C4B 9101  16.043   1.401  14.193
36420DOPC   NC3 9102   3.997   3.211   3.333
36420DOPC   PO4 9103   4.067   2.971   3.603
36420DOPC   GL1 9104   3.927   3.101   4.063
36420DOPC   GL2 9105   3.837   2.791   3.963
36420DOPC   C1A 9106   4.167   3.071   4.403
36420DOPC   D2A 9107   4.307   3.161   4.903
36420DOPC   C3A 9108   4.047   3.151   5.313
36420DOPC   C4A 9109   3.747   3.141   5.683
36420DOPC   C1B 9110   3.837   2.721   4.433
36420DOPC   D2B 9111   3.917   2.311   4.593
36420DOPC   C3B 9112   3.617   2.141   4.913
36420DOPC   C4B 9113   3.417   2.091   5.363
36421DOPC   NC3 9114  12.273   0.981  10.503
36421DOPC   PO4 9115  12.433   0.881  10.853
36421DOPC   GL1 9116  12.083   0.941  11.063
36421DOPC   GL2 9117  11.863   0.791  10.923
36421DOPC   C1A 9118  12.003   0.991  11.503
36421DOPC   D2A 9119  11.773   1.111  11.923
36421DOPC   C3A 9120  11.833   0.901  12.323
36421DOPC   C4A 9121  11.883   0.651  12.783
36421DOPC   C1B 9122  11.503   0.931  11.063
36421DOPC   D2B 9123  11.473   1.051  11.543
36421DOPC   C3B 9124  11.343   0.711  11.883
36421DOPC   C4B 9125  11.323   0.601  12.313
36422DOPA   PO4 9126   9.617   1.601   7.183
36422DOPA   GL1 9127   9.167   1.451   7.303
36422DOPA   GL2 9128   9.047   1.641   7.193
36422DOPA   C1A 9129   9.117   1.391   7.743
36422DOPA   D2A 9130   8.897   1.261   8.173
36422DOPA   C3A 9131   8.617   1.371   8.533
36422DOPA   C4A 9132   8.277   1.331   8.933
36422DOPA   C1B 9133   8.627   1.731   7.343
36422DOPA   D2B 9134   8.277   1.571   7.673
36422DOPA   C3B 9135   8.007   1.221   7.653
36422DOPA   C4B 9136   7.687   0.811   7.753
36423DOPA   PO4 9137  17.953   1.351  10.943
36423DOPA   GL1 9138  18.373   1.361  11.073
36423DOPA   GL2 9139  18.283   1.641  11.213
36423DOPA   C1A 9140  18.743   1.151  11.143
36423DOPA   D2A 9141  19.183   1.011  11.003
36423DOPA   C3A 9142  19.563   0.981  11.163
36423DOPA   C4A 9143  20.043   0.971  11.343
36423DOPA   C1B 9144  18.443   1.701  11.623
36423DOPA   D2B 9145  18.573   1.741  12.093
36423DOPA   C3B 9146  18.863   1.321  12.023
36423DOPA   C4B 9147  19.093   0.861  12.063
36424DOPA   PO4 9148   9.627   4.741   7.863
36424DOPA   GL1 9149   9.297   4.831   8.073
36424DOPA   GL2 9150   9.427   4.651   8.393
36424DOPA   C1A 9151   8.867   4.941   7.933
36424DOPA   D2A 9152   8.387   5.021   8.073
36424DOPA   C3A 9153   8.267   5.291   8.423
36424DOPA   C4A 9154   7.917   5.491   8.663
36424DOPA   C1B 9155   9.197   4.881   8.743
36424DOPA   D2B 9156   8.877   5.071   9.103
36424DOPA   C3B 9157   8.627   4.871   9.493
36424DOPA   C4B 9158   8.587   4.631   9.913
36425DOPA   PO4 9159  17.623   4.331  10.463
36425DOPA   GL1 9160  17.953   4.331  10.703
36425DOPA   GL2 9161  18.133   4.171  10.473
36425DOPA   C1A 9162  18.193   4.651  10.883
36425DOPA   D2A 9163  18.463   5.081  11.003
36425DOPA   C3A 9164  18.843   5.081  11.243
36425DOPA   C4A 9165  19.333   5.101  11.273
36425DOPA   C1B 9166  18.553   4.381  10.553
36425DOPA   D2B 9167  19.053   4.351  10.733
36425DOPA   C3B 9168  19.423   4.241  10.993
36425DOPA   C4B 9169  19.843   4.261  11.193
36426DOPA   PO4 9170   0.857   7.071   3.483
36426DOPA   GL1 9171   0.907   7.121   3.903
36426DOPA   GL2 9172   0.757   6.841   3.923
36426DOPA   C1A 9173   0.717   7.282   4.263
36426DOPA   D2A 9174   0.617   7.572   4.673
36426DOPA   C3A 9175   0.287   7.792   4.933
36426DOPA   C4A 9176  24.903   0.371   5.003
36426DOPA   C1B 9177   0.437   6.871   4.223
36426DOPA   D2B 9178   0.297   6.711   4.683
36426DOPA   C3B 9179   0.287   6.491   5.033
36426DOPA   C4B 9180   0.187   6.241   5.473
36427DOPA   PO4 9181  24.143   7.302   3.743
36427DOPA   GL1 9182  24.163   7.292   4.143
36427DOPA   GL2 9183  24.113   7.552   4.253
36427DOPA   C1A 9184  24.003   6.971   4.463
36427DOPA   D2A 9185  24.103   6.871   4.953
36427DOPA   C3A 9186  24.173   6.531   5.143
36427DOPA   C4A 9187  24.103   6.141   5.433
36427DOPA   C1B 9188  23.843   7.422   4.613
36427DOPA   D2B 9189  23.903   7.632   5.073
36427DOPA   C3B 9190  24.313   7.552   5.263
36427DOPA   C4B 9191  24.603   7.572   5.633
36428DOPA   PO4 9192   5.987   6.681   4.373
36428DOPA   GL1 9193   5.647   6.871   4.533
36428DOPA   GL2 9194   5.437   6.671   4.553
36428DOPA   C1A 9195   5.537   7.081   4.983
36428DOPA   D2A 9196   5.357   7.252   5.403
36428DOPA   C3A 9197   5.067   7.101   5.823
36428DOPA   C4A 9198   4.687   6.851   5.943
36428DOPA   C1B 9199   5.547   6.461   4.893
36428DOPA   D2B 9200   5.797   6.351   5.273
36428DOPA   C3B 9201   5.947   6.451   5.743
36428DOPA   C4B 9202   6.037   6.521   6.203
36429DOPA   PO4 9203   7.417   0.861   5.233
36429DOPA   GL1 9204   7.127   0.851   5.533
36429DOPA   GL2 9205   7.217   0.661   5.723
36429DOPA   C1A 9206   6.697   0.821   5.473
36429DOPA   D2A 9207   6.277   0.531   5.483
36429DOPA   C3A 9208   6.387   0.171   5.813
36429DOPA   C4A 9209   6.297   7.442   5.863
36429DOPA   C1B 9210   6.927   0.771   5.973
36429DOPA   D2B 9211   6.637   0.961   6.323
36429DOPA   C3B 9212   6.257   0.781   6.523
36429DOPA   C4B 9213   6.047   0.491   6.853
36430DOPA   PO4 9214  14.853   2.901  11.783
36430DOPA   GL1 9215  14.783   3.271  12.113
36430DOPA   GL2 9216  15.103   3.161  12.113
36430DOPA   C1A 9217  14.843   3.471  12.483
36430DOPA   D2A 9218  15.003   3.661  12.923
36430DOPA   C3A 9219  14.613   3.681  13.143
36430DOPA   C4A 9220  14.373   3.581  13.513
36430DOPA   C1B 9221  15.173   2.911  12.463
36430DOPA   D2B 9222  15.303   2.691  12.913
36430DOPA   C3B 9223  15.403   2.921  13.313
36430DOPA   C4B 9224  15.323   2.981  13.833
36431DOPA   PO4 9225   2.647   7.732   3.663
36431DOPA   GL1 9226   2.427   7.562   4.083
36431DOPA   GL2 9227   2.717   7.462   4.043
36431DOPA   C1A 9228   2.187   7.262   4.043
36431DOPA   D2A 9229   1.827   6.931   4.043
36431DOPA   C3A 9230   2.147   6.771   4.373
36431DOPA   C4A 9231   1.987   6.721   4.843
36431DOPA   C1B 9232   3.067   7.452   4.363
36431DOPA   D2B 9233   3.287   7.332   4.863
36431DOPA   C3B 9234   3.347   7.061   5.203
36431DOPA   C4B 9235   3.497   6.811   5.613
36432DOPA   PO4 9236  12.773   7.362  11.243
36432DOPA   GL1 9237  12.823   7.602  11.613
36432DOPA   GL2 9238  12.493   7.632  11.563
36432DOPA   C1A 9239  12.753   7.502  12.073
36432DOPA   D2A 9240  12.833   7.422  12.553
36432DOPA   C3A 9241  12.523   7.512  12.873
36432DOPA   C4A 9242  12.073   7.632  13.123
36432DOPA   C1B 9243  12.233   7.372  11.853
36432DOPA   D2B 9244  11.943   7.111  12.213
36432DOPA   C3B 9245  12.063   6.731  12.433
36432DOPA   C4B 9246  12.253   6.361  12.183
36433DOPA   PO4 9247  13.043   1.371  11.373
36433DOPA   GL1 9248  13.183   1.241  11.743
36433DOPA   GL2 9249  13.023   0.991  11.783
36433DOPA   C1A 9250  13.263   1.391  12.203
36433DOPA   D2A 9251  13.253   1.261  12.673
36433DOPA   C3A 9252  13.513   1.301  13.043
36433DOPA   C4A 9253  13.953   1.451  13.213
36433DOPA   C1B 9254  12.593   1.011  11.683
36433DOPA   D2B 9255  12.253   1.311  11.883
36433DOPA   C3B 9256  12.143   1.391  12.303
36433DOPA   C4B 9257  11.683   1.421  12.473
36434DOPA   PO4 9258   8.137   5.131   6.383
36434DOPA   GL1 9259   8.057   5.391   6.613
36434DOPA   GL2 9260   7.787   5.461   6.603
36434DOPA   C1A 9261   8.187   5.521   7.053
36434DOPA   D2A 9262   8.437   5.751   7.463
36434DOPA   C3A 9263   8.267   6.051   7.733
36434DOPA   C4A 9264   8.067   6.181   8.183
36434DOPA   C1B 9265   7.737   5.791   6.853
36434DOPA   D2B 9266   7.587   6.031   7.223
36434DOPA   C3B 9267   7.437   5.871   7.603
36434DOPA   C4B 9268   7.167   5.741   7.903
36435DOPA   PO4 9269  19.003   3.541   8.773
36435DOPA   GL1 9270  19.363   3.711   8.813
36435DOPA   GL2 9271  19.353   3.931   8.643
36435DOPA   C1A 9272  19.713   3.901   9.053
36435DOPA   D2A 9273  19.973   4.111   9.403
36435DOPA   C3A 9274  20.303   3.981   9.623
36435DOPA   C4A 9275  20.773   3.971   9.753
36435DOPA   C1B 9276  19.803   3.941   8.593
36435DOPA   D2B 9277  20.203   4.001   8.753
36435DOPA   C3B 9278  20.363   3.801   9.173
36435DOPA   C4B 9279  20.473   3.461   9.493
36436DOPA   PO4 9280  18.953   1.141   9.193
36436DOPA   GL1 9281  19.243   0.821   9.283
36436DOPA   GL2 9282  19.413   1.061   9.333
36436DOPA   C1A 9283  19.283   0.571   9.683
36436DOPA   D2A 9284  19.623   0.291   9.853
36436DOPA   C3A 9285  19.793   0.061  10.213
36436DOPA   C4A 9286  20.033   7.602  10.533
36436DOPA   C1B 9287  19.623   1.171   9.723
36436DOPA   D2B 9288  19.643   1.191  10.183
36436DOPA   C3B 9289  19.823   1.481  10.403
36436DOPA   C4B 9290  19.893   1.711  10.793
36437DOPA   PO4 9291  15.693   2.491  11.823
36437DOPA   GL1 9292  15.793   2.691  12.263
36437DOPA   GL2 9293  15.943   2.481  12.333
36437DOPA   C1A 9294  15.653   2.961  12.593
36437DOPA   D2A 9295  15.393   3.251  12.923
36437DOPA   C3A 9296  14.983   3.191  13.283
36437DOPA   C4A 9297  14.923   3.291  13.783
36437DOPA   C1B 9298  16.063   2.281  12.713
36437DOPA   D2B 9299  16.313   1.921  12.993
36437DOPA   C3B 9300  16.223   1.441  12.863
36437DOPA   C4B 9301  16.073   1.221  12.373
36438DOPA   PO4 9302  10.513   4.011   8.753
36438DOPA   GL1 9303  10.283   3.791   9.163
36438DOPA   GL2 9304  10.323   4.081   9.283
36438DOPA   C1A 9305   9.997   3.631   9.433
36438DOPA   D2A 9306   9.737   3.291   9.703
36438DOPA   C3A 9307   9.247   3.301   9.853
36438DOPA   C4A 9308   9.077   2.941  10.183
36438DOPA   C1B 9309   9.987   4.261   9.493
36438DOPA   D2B 9310   9.657   4.241   9.853
36438DOPA   C3B 9311   9.207   4.251   9.803
36438DOPA   C4B 9312   8.727   4.161   9.863
36439DOPA   PO4 9313   4.477   7.171   4.233
36439DOPA   GL1 9314   4.607   7.031   4.643
36439DOPA   GL2 9315   4.887   6.961   4.603
36439DOPA   C1A 9316   4.547   6.751   4.983
36439DOPA   D2A 9317   4.397   6.521   5.483
36439DOPA   C3A 9318   4.207   6.171   5.703
36439DOPA   C4A 9319   4.207   5.801   6.033
36439DOPA   C1B 9320   5.087   6.781   4.843
36439DOPA   D2B 9321   5.257   6.581   5.333
36439DOPA   C3B 9322   5.377   6.321   5.663
36439DOPA   C4B 9323   5.607   6.081   6.073
36440DOPA   PO4 9324  12.053   6.311  10.373
36440DOPA   GL1 9325  11.723   6.261  10.703
36440DOPA   GL2 9326  11.923   6.391  10.863
36440DOPA   C1A 9327  11.473   5.941  10.813
36440DOPA   D2A 9328  11.003   5.811  10.663
36440DOPA   C3A 9329  10.933   5.371  10.633
36440DOPA   C4A 9330  10.913   4.851  10.463
36440DOPA   C1B 9331  11.793   6.851  11.013
36440DOPA   D2B 9332  11.543   7.262  11.223
36440DOPA   C3B 9333  11.733   7.492  11.623
36440DOPA   C4B 9334  11.363   7.552  12.013
36441DOPA   PO4 9335  13.343   2.471  11.543
36441DOPA   GL1 9336  13.233   2.141  11.843
36441DOPA   GL2 9337  13.083   2.391  11.963
36441DOPA   C1A 9338  13.163   1.871  12.253
36441DOPA   D2A 9339  12.863   1.631  12.543
36441DOPA   C3A 9340  12.923   1.471  13.043
36441DOPA   C4A 9341  13.073   1.401  13.513
36441DOPA   C1B 9342  12.803   2.231  12.173
36441DOPA   D2B 9343  12.493   2.041  12.533
36441DOPA   C3B 9344  12.533   1.931  12.933
36441DOPA   C4B 9345  12.693   1.761  13.383
36442DOPA   PO4 9346  18.883   1.191   8.623
36442DOPA   GL1 9347  19.273   1.371   8.773
36442DOPA   GL2 9348  19.343   1.221   8.513
36442DOPA   C1A 9349  19.563   1.431   9.103
36442DOPA   D2A 9350  19.813   1.661   9.503
36442DOPA   C3A 9351  20.103   1.551   9.793
36442DOPA   C4A 9352  20.403   1.371  10.113
36442DOPA   C1B 9353  19.763   1.181   8.623
36442DOPA   D2B 9354  20.273   1.131   8.693
36442DOPA   C3B 9355  20.483   1.061   9.073
36442DOPA   C4B 9356  20.593   1.111   9.563
36443DOPA   PO4 9357  21.463   1.691   5.483
36443DOPA   GL1 9358  21.503   1.631   5.883
36443DOPA   GL2 9359  21.543   1.311   5.863
36443DOPA   C1A 9360  21.793   1.721   6.213
36443DOPA   D2A 9361  22.063   1.591   6.583
36443DOPA   C3A 9362  22.473   1.271   6.613
36443DOPA   C4A 9363  22.743   0.971   6.333
36443DOPA   C1B 9364  21.993   1.441   5.883
36443DOPA   D2B 9365  22.363   1.421   6.193
36443DOPA   C3B 9366  22.393   0.981   5.993
36443DOPA   C4B 9367  22.283   0.581   5.803
36444DOPA   PO4 9368   7.817   7.562   5.883
36444DOPA   GL1 9369   7.667   7.452   6.303
36444DOPA   GL2 9370   7.577   7.222   6.173
36444DOPA   C1A 9371   7.587   7.422   6.773
36444DOPA   D2A 9372   7.257   7.502   7.123
36444DOPA   C3A 9373   7.047   7.542   7.503
36444DOPA   C4A 9374   6.887   7.762   7.883
36444DOPA   C1B 9375   7.237   6.991   6.323
36444DOPA   D2B 9376   6.767   6.791   6.473
36444DOPA   C3B 9377   6.487   7.011   6.773
36444DOPA   C4B 9378   6.107   7.011   7.073
36445DOPA   PO4 9379  22.273   1.701   4.583
36445DOPA   GL1 9380  22.693   1.821   4.643
36445DOPA   GL2 9381  22.533   1.991   4.843
36445DOPA   C1A 9382  23.123   1.651   4.653
36445DOPA   D2A 9383  23.563   1.491   4.603
36445DOPA   C3A 9384  23.753   1.421   5.003
36445DOPA   C4A 9385  23.783   1.191   5.443
36445DOPA   C1B 9386  22.663   2.111   5.233
36445DOPA   D2B 9387  22.683   2.301   5.673
36445DOPA   C3B 9388  22.803   2.741   5.803
36445DOPA   C4B 9389  23.103   3.011   6.073
36446DOPA   PO4 9390  14.513   4.951  11.723
36446DOPA   GL1 9391  14.413   5.091  12.083
36446DOPA   GL2 9392  14.453   4.831  12.333
36446DOPA   C1A 9393  14.223   5.211  12.483
36446DOPA   D2A 9394  14.143   5.351  12.953
36446DOPA   C3A 9395  14.233   5.311  13.433
36446DOPA   C4A 9396  14.023   5.291  13.913
36446DOPA   C1B 9397  14.513   4.951  12.803
36446DOPA   D2B 9398  14.863   5.241  13.043
36446DOPA   C3B 9399  14.983   5.201  13.433
36446DOPA   C4B 9400  15.273   5.271  13.843
  24.96512   7.80124  33.04548
