INSANE! Membrane UpperLeaflet>M3.DOPC:M3.DOPA=75.0:25.0 LowerLeaflet>M3.DOPC:M3.DOPA=75.0:25.0
56928
    1DOPC   NC3    1  15.617   5.254  14.978  0.0865 -0.0733  0.1161
    1DOPC   PO4    2  15.538   5.276  14.578  0.2488 -0.1398  0.1519
    1DOPC   GL1    3  15.635   5.118  14.237  0.3380 -0.1780 -0.0236
    1DOPC   GL2    4  15.435   4.933  14.256 -0.0589 -0.1519  0.0287
    1DOPC   C1A    5  15.533   5.238  13.784  0.1497 -0.0929 -0.1675
    1DOPC   D2A    6  15.744   5.427  13.387 -0.0224  0.0740  0.0066
    1DOPC   C3A    7  15.876   5.055  13.136  0.0582  0.1978  0.1282
    1DOPC   C4A    8  15.914   4.565  13.149 -0.3065  0.1359 -0.1005
    1DOPC   C1B    9  15.205   4.886  13.920 -0.1497  0.1405  0.1451
    1DOPC   D2B   10  14.960   5.109  13.540  0.2780  0.1790 -0.0265
    1DOPC   C3B   11  14.877   5.354  13.206  0.0535 -0.1793  0.1045
    1DOPC   C4B   12  15.033   5.719  12.916 -0.1405  0.4514 -0.1212
    2DOPC   NC3   13   3.456   4.385  22.426  0.0760 -0.1722 -0.2604
    2DOPC   PO4   14   3.791   4.223  22.523 -0.1615  0.0990 -0.0831
    2DOPC   GL1   15   3.904   4.356  22.144 -0.3477  0.1179  0.2173
    2DOPC   GL2   16   3.675   4.474  22.085 -0.1728 -0.0505  0.1060
    2DOPC   C1A   17   4.232   4.557  21.913 -0.0710  0.1341 -0.1442
    2DOPC   D2A   18   4.488   4.458  21.507  0.2957 -0.0668  0.1306
    2DOPC   C3A   19   4.726   4.137  21.340 -0.2263  0.0072 -0.0565
    2DOPC   C4A   20   5.037   3.778  21.229 -0.0081  0.1522 -0.4448
    2DOPC   C1B   21   3.789   4.644  21.757  0.0210  0.0597  0.0320
    2DOPC   D2B   22   3.938   4.547  21.275  0.1957  0.3412  0.1163
    2DOPC   C3B   23   4.355   4.524  21.002 -0.0241  0.0653 -0.2203
    2DOPC   C4B   24   4.798   4.646  20.864  0.4492 -0.0699 -0.1872
    3DOPC   NC3   25  13.398   6.273  16.245 -0.1968 -0.1937  0.2081
    3DOPC   PO4   26  13.499   6.582  16.044 -0.3241 -0.0648 -0.1032
    3DOPC   GL1   27  13.124   6.461  15.860 -0.1376 -0.3901 -0.0039
    3DOPC   GL2   28  13.049   6.785  15.923  0.2563 -0.2005  0.3599
    3DOPC   C1A   29  12.756   6.381  15.558 -0.0429 -0.0605 -0.2269
    3DOPC   D2A   30  12.283   6.349  15.385  0.2235  0.2160  0.0089
    3DOPC   C3A   31  11.918   6.531  15.090 -0.0991 -0.0554  0.1920
    3DOPC   C4A   32  11.522   6.362  14.852  0.0143 -0.0558  0.3152
    3DOPC   C1B   33  12.631   6.792  15.873  0.0363  0.0149 -0.4427
    3DOPC   D2B   34  12.124   6.713  15.909  0.2051 -0.1000 -0.0772
    3DOPC   C3B   35  11.746   6.763  15.673 -0.1112 -0.1077 -0.1359
    3DOPC   C4B   36  11.476   6.726  15.295 -0.1085 -0.2930 -0.0643
    4DOPC   NC3   37  20.296   7.630  17.084 -0.0037 -0.0577  0.0108
    4DOPC   PO4   38  20.656   7.713  17.152 -0.2221 -0.1562  0.0919
    4DOPC   GL1   39  20.860   7.762  16.752 -0.1396  0.0297 -0.0943
    4DOPC   GL2   40  20.888   8.054  16.800  0.0791 -0.0651 -0.5032
    4DOPC   C1A   41  20.905   7.808  16.284 -0.0880 -0.0395 -0.2257
    4DOPC   D2A   42  21.156   8.017  15.975 -0.1408 -0.4387  0.0876
    4DOPC   C3A   43  21.277   8.353  15.644 -0.1018  0.1165 -0.1084
    4DOPC   C4A   44  21.041   8.662  15.351  0.0100  0.1445 -0.0929
    4DOPC   C1B   45  21.108   8.260  16.448 -0.1064  0.0878  0.4172
    4DOPC   D2B   46  21.436   8.447  16.104  0.1152  0.3266 -0.0509
    4DOPC   C3B   47  21.854   8.276  15.992  0.0087  0.0320 -0.1389
    4DOPC   C4B   48  22.240   8.141  15.798  0.1058 -0.0208  0.2718
    5DOPC   NC3   49   8.178   7.043  22.185 -0.0704  0.1963 -0.0608
    5DOPC   PO4   50   7.774   7.035  22.232  0.0786 -0.0040  0.0391
    5DOPC   GL1   51   7.498   6.793  21.979 -0.1136  0.4780 -0.0446
    5DOPC   GL2   52   7.589   6.483  22.068  0.5399 -0.2439  0.3587
    5DOPC   C1A   53   7.161   6.938  21.703 -0.0700 -0.0401 -0.0496
    5DOPC   D2A   54   6.904   7.219  21.349 -0.0137 -0.1404 -0.2440
    5DOPC   C3A   55   6.703   7.493  21.606 -0.2667 -0.1909 -0.1436
    5DOPC   C4A   56   6.618   7.672  22.043 -0.1131  0.0629 -0.3568
    5DOPC   C1B   57   7.263   6.402  21.691 -0.2997 -0.1564 -0.1924
    5DOPC   D2B   58   6.879   6.212  21.450 -0.0500  0.3730 -0.0662
    5DOPC   C3B   59   6.727   6.148  21.024  0.1398  0.3799 -0.2687
    5DOPC   C4B   60   6.699   6.351  20.551  0.1517 -0.1741 -0.0859
    6DOPC   NC3   61   9.299   6.268  20.977 -0.1373 -0.2525  0.1416
    6DOPC   PO4   62   8.947   6.326  21.132  0.1324 -0.0666  0.2431
    6DOPC   GL1   63   8.693   6.235  20.855  0.2859  0.0176 -0.2373
    6DOPC   GL2   64   8.867   6.127  20.728  0.5357  0.0509 -0.0238
    6DOPC   C1A   65   8.335   6.196  20.665 -0.0342 -0.1714  0.0298
    6DOPC   D2A   66   7.846   6.022  20.776 -0.1936 -0.0150 -0.2232
    6DOPC   C3A   67   7.926   6.094  20.305 -0.1091  0.1663 -0.1161
    6DOPC   C4A   68   7.852   6.011  19.820  0.1932  0.1836  0.0230
    6DOPC   C1B   69   8.639   6.036  20.320 -0.3645  0.0372  0.0261
    6DOPC   D2B   70   8.312   5.830  20.047  0.0626  0.0599 -0.0775
    6DOPC   C3B   71   8.260   5.755  19.577 -0.1285 -0.2381  0.1692
    6DOPC   C4B   72   8.169   5.633  19.154 -0.1099  0.3186  0.0380
    7DOPC   NC3   73   6.825   1.436  22.278  0.2395  0.2810 -0.1760
    7DOPC   PO4   74   7.076   1.742  22.198  0.3564  0.1360 -0.0327
    7DOPC   GL1   75   7.058   1.882  21.834  0.3354 -0.2037 -0.3061
    7DOPC   GL2   76   6.799   2.064  21.853 -0.0857  0.3813  0.1166
    7DOPC   C1A   77   6.916   1.822  21.465 -0.2242  0.0062 -0.1634
    7DOPC   D2A   78   6.659   1.878  21.099  0.2800 -0.1859 -0.1908
    7DOPC   C3A   79   6.396   1.637  20.750  0.0854 -0.1702  0.0466
    7DOPC   C4A   80   6.211   1.648  20.289  0.1043  0.1127 -0.2535
    7DOPC   C1B   81   6.458   1.896  21.606  0.0786  0.1579  0.2066
    7DOPC   D2B   82   6.202   1.703  21.276  0.1197 -0.0751 -0.1380
    7DOPC   C3B   83   5.947   1.570  20.903 -0.2089  0.1585 -0.0622
    7DOPC   C4B   84   5.683   1.397  20.510  0.2004  0.2327  0.1970
    8DOPC   NC3   85  18.354   4.611  15.057 -0.0862 -0.1682 -0.0300
    8DOPC   PO4   86  18.706   4.656  15.167 -0.2160 -0.1009 -0.0518
    8DOPC   GL1   87  18.987   4.565  14.874 -0.2614  0.0178  0.0474
    8DOPC   GL2   88  19.055   4.274  14.949  0.1170  0.0567  0.1839
    8DOPC   C1A   89  19.029   4.410  14.475  0.1774 -0.0045  0.0977
    8DOPC   D2A   90  19.172   4.429  14.007 -0.3532  0.1667  0.0056
    8DOPC   C3A   91  19.497   4.556  13.688 -0.0189  0.0091  0.2659
    8DOPC   C4A   92  19.660   4.813  13.286  0.1733 -0.0557 -0.3256
    8DOPC   C1B   93  19.055   3.911  14.715 -0.1614 -0.0698  0.3949
    8DOPC   D2B   94  19.390   3.647  14.516  0.3930 -0.1202 -0.1374
    8DOPC   C3B   95  19.808   3.472  14.481  0.1708 -0.0929 -0.3182
    8DOPC   C4B   96  19.792   3.276  14.030 -0.1915  0.1504 -0.0723
    9DOPC   NC3   97  20.697   0.389  17.419  0.0614 -0.3227  0.0057
    9DOPC   PO4   98  21.024   0.469  17.601  0.2007 -0.0166 -0.0518
    9DOPC   GL1   99  21.453   0.447  17.522  0.4311  0.1221 -0.2682
    9DOPC   GL2  100  21.429   0.688  17.372  0.1748  0.0490  0.0748
    9DOPC   C1A  101  21.797   0.595  17.780 -0.0078 -0.1943 -0.0883
    9DOPC   D2A  102  21.741   1.007  17.993  0.2795 -0.0882  0.2098
    9DOPC   C3A  103  22.199   1.227  18.117  0.1795  0.2981 -0.3561
    9DOPC   C4A  104  22.625   1.374  18.197 -0.0128 -0.3282  0.1341
    9DOPC   C1B  105  21.842   0.934  17.351  0.0459 -0.1055 -0.1282
    9DOPC   D2B  106  22.265   1.070  17.227  0.1366  0.1500 -0.2725
    9DOPC   C3B  107  22.599   0.858  16.941  0.1373  0.1709  0.0413
    9DOPC   C4B  108  22.769   0.851  16.445  0.2433  0.0869  0.3573
   10DOPC   NC3  109  10.821   7.461  19.313  0.2018 -0.0202  0.2031
   10DOPC   PO4  110  10.723   7.091  19.270  0.0939  0.1706  0.2966
   10DOPC   GL1  111  10.423   7.031  18.973  0.0968 -0.5416 -0.2877
   10DOPC   GL2  112  10.684   6.954  18.830 -0.1487 -0.0963  0.0500
   10DOPC   C1A  113  10.066   7.037  18.741  0.0100  0.0403  0.0176
   10DOPC   D2A  114   9.747   7.259  18.424 -0.0555 -0.1091  0.2779
   10DOPC   C3A  115   9.378   7.509  18.472  0.1324  0.1773  0.0524
   10DOPC   C4A  116   9.146   7.895  18.677  0.0394 -0.1274  0.1538
   10DOPC   C1B  117  10.461   7.038  18.498 -0.0488  0.2108  0.4296
   10DOPC   D2B  118  10.183   7.395  18.370  0.1708 -0.1605  0.2875
   10DOPC   C3B  119   9.797   7.711  18.307 -0.2459  0.2126  0.1113
   10DOPC   C4B  120   9.333   7.894  18.183  0.0718 -0.1522  0.0983
   11DOPC   NC3  121   6.386   0.644  22.844  0.1403  0.0118  0.0890
   11DOPC   PO4  122   6.589   0.812  22.531  0.1054 -0.2725  0.0595
   11DOPC   GL1  123   6.611   0.888  22.093 -0.1452 -0.0205 -0.0582
   11DOPC   GL2  124   6.263   0.822  22.048  0.2051  0.0072  0.0051
   11DOPC   C1A  125   6.905   0.685  21.750  0.0695  0.0551 -0.0690
   11DOPC   D2A  126   7.103   0.563  21.263 -0.0501 -0.0535 -0.1992
   11DOPC   C3A  127   7.226   0.440  20.852 -0.1758  0.0241 -0.1098
   11DOPC   C4A  128   7.071   0.412  20.398  0.0134 -0.2510 -0.2212
   11DOPC   C1B  129   6.407   0.826  21.648  0.2257  0.1209 -0.2747
   11DOPC   D2B  130   6.686   0.825  21.196  0.1680 -0.0604  0.3124
   11DOPC   C3B  131   6.731   0.503  20.901 -0.0535 -0.0696  0.1555
   11DOPC   C4B  132   6.848   0.073  20.772  0.0633 -0.0442 -0.3729
   12DOPC   NC3  133   9.650   3.507  21.448  0.0998 -0.0059  0.1276
   12DOPC   PO4  134   9.654   3.651  21.086 -0.0528 -0.0315  0.2094
   12DOPC   GL1  135   9.543   3.466  20.655 -0.2155 -0.1160 -0.0312
   12DOPC   GL2  136   9.560   3.239  20.709 -0.1808 -0.0563  0.2704
   12DOPC   C1A  137   9.235   3.655  20.358  0.0719 -0.0060 -0.0333
   12DOPC   D2A  138   8.776   3.773  20.134 -0.1391 -0.0586  0.0219
   12DOPC   C3A  139   8.392   3.626  19.893  0.1149  0.4031  0.3439
   12DOPC   C4A  140   7.931   3.717  19.735  0.0125  0.2578 -0.1073
   12DOPC   C1B  141   9.152   3.067  20.566  0.0027 -0.0893  0.1273
   12DOPC   D2B  142   8.796   3.329  20.370 -0.1118  0.0688  0.1571
   12DOPC   C3B  143   8.432   3.616  20.432  0.2223 -0.3498 -0.0674
   12DOPC   C4B  144   8.075   3.902  20.229  0.1012  0.0660 -0.3431
   13DOPC   NC3  145  24.857   3.483  21.400 -0.2089  0.1010  0.0235
   13DOPC   PO4  146  24.728   3.145  21.218 -0.0166 -0.4689 -0.2156
   13DOPC   GL1  147  24.964   3.074  20.862 -0.1671  0.2840  0.1588
   13DOPC   GL2  148  24.698   3.024  20.710 -0.1258  0.1493 -0.0766
   13DOPC   C1A  149  25.150   3.185  20.409  0.0575 -0.3134  0.1793
   13DOPC   D2A  150  25.431   3.368  20.018 -0.0439 -0.0207 -0.1122
   13DOPC   C3A  151  25.559   3.458  19.640  0.1616 -0.1032 -0.0019
   13DOPC   C4A  152  25.803   3.437  19.234 -0.2061 -0.0333 -0.0782
   13DOPC   C1B  153  24.559   3.345  20.469 -0.0660  0.0298  0.0592
   13DOPC   D2B  154  24.379   3.627  20.119  0.1360  0.1418 -0.0766
   13DOPC   C3B  155  24.325   3.405  19.663 -0.1068  0.1624  0.1053
   13DOPC   C4B  156  24.265   3.341  19.150 -0.0929 -0.2511  0.0970
   14DOPC   NC3  157  15.314   0.360  14.298 -0.0526  0.4163 -0.0162
   14DOPC   PO4  158  14.959   0.285  14.471 -0.2039  0.0548  0.0861
   14DOPC   GL1  159  14.780  -0.038  14.260  0.0402  0.2991 -0.1067
   14DOPC   GL2  160  14.990   0.067  13.991  0.1970  0.3668  0.3732
   14DOPC   C1A  161  14.328   0.011  14.192  0.0477  0.1246  0.3915
   14DOPC   D2A  162  14.078  -0.303  13.928  0.3087 -0.0916 -0.0503
   14DOPC   C3A  163  13.811   0.147  13.935 -0.0819  0.2544  0.0566
   14DOPC   C4A  164  13.438   0.138  13.558 -0.0991 -0.3307 -0.0303
   14DOPC   C1B  165  15.131   0.490  13.803  0.4386 -0.0610 -0.4825
   14DOPC   D2B  166  15.167   0.667  13.363  0.0709 -0.1322  0.0027
   14DOPC   C3B  167  14.874   1.033  13.228 -0.4059 -0.1436  0.1732
   14DOPC   C4B  168  14.804   1.340  12.800 -0.1383  0.3233  0.0225
   15DOPC   NC3  169  21.394   5.237  17.877  0.1172  0.0790  0.1303
   15DOPC   PO4  170  21.097   5.143  17.575 -0.0948  0.1087 -0.0020
   15DOPC   GL1  171  21.353   5.187  17.197 -0.1951 -0.0838  0.0609
   15DOPC   GL2  172  21.590   4.970  17.360 -0.2882  0.2442 -0.0704
   15DOPC   C1A  173  21.764   5.353  16.976 -0.1171  0.0152 -0.0608
   15DOPC   D2A  174  22.081   5.476  16.578 -0.0106  0.0649 -0.0486
   15DOPC   C3A  175  22.331   5.189  16.898 -0.2462  0.2393 -0.0216
   15DOPC   C4A  176  22.698   4.898  17.128 -0.1396  0.1516 -0.0525
   15DOPC   C1B  177  21.740   4.827  17.017 -0.1841 -0.0804  0.2308
   15DOPC   D2B  178  21.933   4.970  16.607 -0.3182 -0.3717  0.1623
   15DOPC   C3B  179  22.385   5.082  16.433 -0.0169  0.0573 -0.1095
   15DOPC   C4B  180  22.718   5.389  16.466 -0.1770  0.0859 -0.1302
   16DOPC   NC3  181  23.997   3.999  20.385 -0.1435 -0.0404  0.0422
   16DOPC   PO4  182  24.287   4.273  20.406 -0.0301 -0.0909  0.1657
   16DOPC   GL1  183  24.109   4.456  20.011  0.1140  0.0588  0.2777
   16DOPC   GL2  184  24.231   4.745  20.113  0.1695 -0.2309  0.0204
   16DOPC   C1A  185  24.333   4.312  19.626  0.3369 -0.0902 -0.0290
   16DOPC   D2A  186  24.516   4.284  19.164  0.0076 -0.0764  0.2921
   16DOPC   C3A  187  24.883   4.179  18.992  0.0226 -0.0334 -0.1699
   16DOPC   C4A  188  25.191   3.858  18.737  0.0989  0.0102  0.0693
   16DOPC   C1B  189  24.680   4.780  20.011 -0.2129  0.0328  0.3406
   16DOPC   D2B  190  25.133   4.690  19.746  0.0399 -0.0152  0.1073
   16DOPC   C3B  191  25.519   4.498  19.535  0.0682 -0.1348 -0.1664
   16DOPC   C4B  192  25.944   4.280  19.597  0.1516 -0.1380 -0.1224
   17DOPC   NC3  193  12.465   6.567  17.081 -0.2515  0.1549  0.0828
   17DOPC   PO4  194  12.320   6.461  17.430 -0.2791 -0.0558 -0.1245
   17DOPC   GL1  195  12.148   6.195  17.461  0.2371  0.4073  0.0175
   17DOPC   GL2  196  12.235   6.151  17.097  0.3192  0.2462 -0.3306
   17DOPC   C1A  197  11.716   6.101  17.552  0.3296 -0.4013  0.0674
   17DOPC   D2A  198  11.259   6.356  17.630 -0.2058  0.1363  0.0567
   17DOPC   C3A  199  11.234   6.678  17.308 -0.0982  0.1800 -0.1873
   17DOPC   C4A  200  10.934   6.977  17.177 -0.4286 -0.0416  0.2911
   17DOPC   C1B  201  11.967   6.278  16.805  0.1229  0.1048 -0.0594
   17DOPC   D2B  202  11.546   6.235  16.659 -0.0758  0.1845 -0.1338
   17DOPC   C3B  203  11.221   6.259  16.342 -0.1379 -0.1232  0.0685
   17DOPC   C4B  204  10.919   6.169  15.954  0.0786  0.0980  0.0491
   18DOPC   NC3  205  23.658   0.542  20.214  0.2223 -0.0682 -0.3307
   18DOPC   PO4  206  24.044   0.464  20.390 -0.0382 -0.1072  0.0657
   18DOPC   GL1  207  24.379   0.598  20.232 -0.2170 -0.3779 -0.0534
   18DOPC   GL2  208  24.418   0.848  20.356  0.1626 -0.0379 -0.1244
   18DOPC   C1A  209  24.617   0.533  19.826  0.1358  0.0789  0.0626
   18DOPC   D2A  210  24.874   0.764  19.452  0.1797 -0.1927 -0.3027
   18DOPC   C3A  211  25.004   0.515  19.082 -0.0372  0.0902 -0.0632
   18DOPC   C4A  212  24.950   0.252  18.697  0.0493  0.2951  0.3577
   18DOPC   C1B  213  24.577   0.969  20.017 -0.0153 -0.3359 -0.0711
   18DOPC   D2B  214  24.694   1.248  19.628 -0.2230 -0.1076  0.1094
   18DOPC   C3B  215  24.830   1.201  19.189  0.1024  0.0985  0.0742
   18DOPC   C4B  216  24.948   0.993  18.735 -0.0812  0.0490  0.1460
   19DOPC   NC3  217  21.679   3.920  18.567 -0.0547  0.2782 -0.2544
   19DOPC   PO4  218  21.867   4.163  18.317  0.1912 -0.0173 -0.1865
   19DOPC   GL1  219  22.167   4.037  18.125  0.1388 -0.0358 -0.0418
   19DOPC   GL2  220  22.315   4.350  18.178  0.2857 -0.1043  0.0934
   19DOPC   C1A  221  22.561   3.955  17.990 -0.1153 -0.0016  0.1809
   19DOPC   D2A  222  22.960   4.114  17.690  0.0004 -0.1810  0.3386
   19DOPC   C3A  223  23.153   4.311  17.293  0.0340  0.1511 -0.0405
   19DOPC   C4A  224  23.084   4.427  16.818 -0.1955 -0.0146  0.1736
   19DOPC   C1B  225  22.538   4.674  17.901 -0.0422  0.1649  0.0950
   19DOPC   D2B  226  22.841   4.989  17.621 -0.1756 -0.0963  0.0852
   19DOPC   C3B  227  23.139   4.788  17.291  0.2892 -0.0260  0.2893
   19DOPC   C4B  228  23.621   4.604  17.200  0.0968  0.1127 -0.0508
   20DOPC   NC3  229  24.199   2.004  20.916  0.0715  0.0727  0.1747
   20DOPC   PO4  230  24.563   1.807  20.964  0.0840  0.4245  0.4146
   20DOPC   GL1  231  24.938   1.887  20.720  0.3542  0.2525  0.2645
   20DOPC   GL2  232  24.884   1.692  20.563  0.0698  0.1199  0.0069
   20DOPC   C1A  233  25.389   1.960  20.750 -0.2590  0.1955 -0.1126
   20DOPC   D2A  234  25.840   1.954  20.497 -0.2096 -0.1007 -0.0178
   20DOPC   C3A  235  26.236   2.088  20.242 -0.0029  0.3548 -0.1703
   20DOPC   C4A  236  26.644   2.013  19.982 -0.2266 -0.1462 -0.2660
   20DOPC   C1B  237  25.154   1.787  20.275  0.1139 -0.2431 -0.1145
   20DOPC   D2B  238  25.530   1.925  20.082 -0.1531 -0.1438  0.1928
   20DOPC   C3B  239  25.742   2.289  19.971  0.3865 -0.0223  0.1344
   20DOPC   C4B  240  25.951   2.651  19.688  0.0503 -0.0857  0.1063
   21DOPC   NC3  241  23.944   0.978  20.458 -0.1138 -0.1094 -0.0044
   21DOPC   PO4  242  23.697   1.051  20.137  0.0680  0.0552  0.0729
   21DOPC   GL1  243  23.860   1.075  19.795 -0.3146 -0.2062 -0.2718
   21DOPC   GL2  244  23.795   1.345  19.705 -0.0328  0.1334 -0.1153
   21DOPC   C1A  245  24.132   0.887  19.521 -0.1882 -0.3471  0.1667
   21DOPC   D2A  246  24.501   0.758  19.169  0.1778  0.0666  0.0297
   21DOPC   C3A  247  24.553   0.312  19.000 -0.1283  0.1174  0.0972
   21DOPC   C4A  248  24.368  -0.151  19.049 -0.0981  0.0415  0.1641
   21DOPC   C1B  249  23.832   1.564  19.366  0.1221  0.0122  0.0034
   21DOPC   D2B  250  24.009   1.691  18.900 -0.0958  0.2037  0.2609
   21DOPC   C3B  251  24.297   1.984  18.674 -0.2610 -0.0283 -0.0963
   21DOPC   C4B  252  24.574   2.344  18.626 -0.3202 -0.2075 -0.3748
   22DOPC   NC3  253  19.505   3.707  15.466  0.0250 -0.2085  0.0961
   22DOPC   PO4  254  19.159   3.462  15.507  0.0287 -0.1348  0.1128
   22DOPC   GL1  255  19.101   3.240  15.097  0.0647  0.3574 -0.2528
   22DOPC   GL2  256  18.967   3.038  15.152  0.1235 -0.0314  0.1545
   22DOPC   C1A  257  19.325   3.228  14.812 -0.0922 -0.0644 -0.3345
   22DOPC   D2A  258  19.485   3.176  14.378 -0.0628  0.1281 -0.0461
   22DOPC   C3A  259  19.374   3.071  13.936  0.2031  0.0762  0.0414
   22DOPC   C4A  260  19.704   3.080  13.548  0.2647 -0.0677 -0.1586
   22DOPC   C1B  261  18.996   2.853  14.797  0.2182 -0.1393 -0.1857
   22DOPC   D2B  262  19.226   2.754  14.346 -0.1662  0.2272 -0.2107
   22DOPC   C3B  263  19.117   2.656  13.858 -0.0525 -0.3957  0.0117
   22DOPC   C4B  264  19.183   2.260  13.655 -0.0281  0.0563  0.4371
   23DOPC   NC3  265   4.910   0.605  22.885  0.0968 -0.1358  0.2062
   23DOPC   PO4  266   4.842   0.852  22.537  0.0994  0.0143 -0.0374
   23DOPC   GL1  267   4.592   0.798  22.168  0.1103  0.1667  0.0490
   23DOPC   GL2  268   4.567   1.110  22.162  0.2090 -0.2588  0.2147
   23DOPC   C1A  269   4.535   0.489  21.936 -0.0375 -0.2075  0.2308
   23DOPC   D2A  270   4.301   0.383  21.456  0.1670  0.1048  0.0119
   23DOPC   C3A  271   4.290   0.130  21.041 -0.0847 -0.3008  0.1947
   23DOPC   C4A  272   4.325  -0.309  20.814 -0.0823 -0.0162  0.1635
   23DOPC   C1B  273   4.894   1.156  21.865 -0.2783  0.1585 -0.0448
   23DOPC   D2B  274   5.388   1.383  21.808 -0.5179 -0.3862  0.0750
   23DOPC   C3B  275   5.398   1.862  21.862 -0.2760  0.1504  0.0774
   23DOPC   C4B  276   5.107   2.219  21.793 -0.0321 -0.3312  0.0491
   24DOPC   NC3  277  12.076   1.421  17.926 -0.0966 -0.0427  0.0624
   24DOPC   PO4  278  12.163   1.262  17.589 -0.1494  0.1049 -0.1578
   24DOPC   GL1  279  11.843   1.417  17.318  0.0575 -0.2851  0.2069
   24DOPC   GL2  280  12.041   1.635  17.329 -0.0647  0.4903 -0.1771
   24DOPC   C1A  281  11.364   1.534  17.327  0.0142 -0.0504 -0.0150
   24DOPC   D2A  282  10.923   1.478  17.466 -0.1693 -0.1569  0.1909
   24DOPC   C3A  283  10.543   1.230  17.541  0.0554 -0.1403 -0.0989
   24DOPC   C4A  284  10.085   1.177  17.407 -0.0629  0.1640  0.0120
   24DOPC   C1B  285  11.699   1.841  17.168  0.0386 -0.1770 -0.0886
   24DOPC   D2B  286  11.377   1.759  16.794 -0.4850 -0.3191 -0.1244
   24DOPC   C3B  287  11.051   1.602  16.496  0.0044 -0.0504  0.0185
   24DOPC   C4B  288  10.803   1.577  16.124  0.0607 -0.1696  0.4253
   25DOPC   NC3  289   6.644   5.452  22.717 -0.1820 -0.1843 -0.0644
   25DOPC   PO4  290   6.844   5.208  22.495 -0.0901  0.1391  0.1623
   25DOPC   GL1  291   6.819   5.162  22.054 -0.1882  0.1452 -0.1085
   25DOPC   GL2  292   6.529   5.047  22.011 -0.1434 -0.1836  0.0760
   25DOPC   C1A  293   6.762   5.437  21.723 -0.0868  0.0996  0.1558
   25DOPC   D2A  294   6.550   5.769  21.445 -0.1137  0.1000  0.1536
   25DOPC   C3A  295   6.506   5.619  20.965 -0.0460  0.1456  0.2728
   25DOPC   C4A  296   6.382   5.529  20.525 -0.0537  0.1216 -0.0346
   25DOPC   C1B  297   6.404   5.016  21.583 -0.0249 -0.0971 -0.2576
   25DOPC   D2B  298   6.445   5.177  21.100  0.1689  0.0434  0.0530
   25DOPC   C3B  299   6.520   4.963  20.604  0.0884  0.1967 -0.4168
   25DOPC   C4B  300   6.495   4.627  20.191  0.2365  0.0225 -0.1572
   26DOPC   NC3  301  22.667   4.279  19.220  0.2788 -0.0598 -0.0821
   26DOPC   PO4  302  22.997   4.306  19.405 -0.1038 -0.0274 -0.1793
   26DOPC   GL1  303  23.351   4.114  19.285 -0.0287 -0.0432  0.1822
   26DOPC   GL2  304  23.450   4.276  19.454  0.4279 -0.1364  0.2472
   26DOPC   C1A  305  23.683   3.884  19.084  0.1015 -0.0719  0.0811
   26DOPC   D2A  306  23.803   3.728  18.678  0.0978  0.0896  0.1554
   26DOPC   C3A  307  24.287   3.773  18.707  0.1837 -0.0020 -0.1122
   26DOPC   C4A  308  24.640   3.417  18.610 -0.1009  0.0304 -0.0243
   26DOPC   C1B  309  23.897   4.237  19.414  0.0256  0.1837 -0.3071
   26DOPC   D2B  310  24.130   4.081  19.031 -0.0708  0.1125 -0.0694
   26DOPC   C3B  311  24.125   4.444  18.816  0.0598  0.3469 -0.0421
   26DOPC   C4B  312  24.148   4.968  18.842  0.3045  0.3933  0.0775
   27DOPC   NC3  313  16.014   4.534  14.586 -0.2367  0.0777  0.2607
   27DOPC   PO4  314  15.708   4.327  14.511  0.0168  0.0544  0.1518
   27DOPC   GL1  315  15.558   4.482  14.137 -0.2907 -0.0554  0.1302
   27DOPC   GL2  316  15.712   4.256  14.056  0.3791  0.2293  0.2852
   27DOPC   C1A  317  15.614   4.696  13.736 -0.1533 -0.2350  0.1163
   27DOPC   D2A  318  15.429   4.943  13.386  0.1960  0.1080  0.1498
   27DOPC   C3A  319  15.074   4.894  13.094 -0.0866  0.2436 -0.0085
   27DOPC   C4A  320  14.639   5.011  12.861  0.0279 -0.2562  0.1824
   27DOPC   C1B  321  15.919   4.315  13.726  0.0821  0.0556 -0.3338
   27DOPC   D2B  322  16.350   4.383  13.493 -0.0827  0.4919  0.0410
   27DOPC   C3B  323  16.426   4.599  13.067 -0.2550 -0.1060 -0.0327
   27DOPC   C4B  324  16.215   4.613  12.590  0.0919  0.4561  0.1283
   28DOPC   NC3  325   0.647   3.167  21.847  0.1092  0.0319 -0.0866
   28DOPC   PO4  326   0.912   3.145  21.563  0.1896 -0.2749 -0.3090
   28DOPC   GL1  327   0.784   3.386  21.179  0.1649  0.2061 -0.0905
   28DOPC   GL2  328   0.838   3.573  21.331  0.0462 -0.0318 -0.3556
   28DOPC   C1A  329   1.026   3.377  20.850 -0.0336  0.1053 -0.1160
   28DOPC   D2A  330   1.177   3.172  20.468 -0.1405  0.3887  0.2948
   28DOPC   C3A  331   1.306   3.043  20.062  0.1019 -0.2261 -0.2545
   28DOPC   C4A  332   1.481   2.862  19.628  0.2477  0.1552 -0.1593
   28DOPC   C1B  333   1.155   3.800  21.307 -0.1072  0.0326  0.0939
   28DOPC   D2B  334   1.640   4.028  21.329  0.2354  0.0332 -0.0880
   28DOPC   C3B  335   1.928   3.837  21.015  0.0052 -0.0032  0.1838
   28DOPC   C4B  336   2.252   3.744  20.614  0.1767 -0.2317 -0.1014
   29DOPC   NC3  337  24.576   1.309  21.047  0.3570 -0.0374 -0.1358
   29DOPC   PO4  338  24.727   0.974  20.923  0.2918 -0.1183  0.0461
   29DOPC   GL1  339  25.003   0.935  20.652 -0.1050 -0.2511 -0.0188
   29DOPC   GL2  340  25.285   0.954  20.799 -0.4045  0.0007  0.1132
   29DOPC   C1A  341  25.057   1.051  20.208 -0.0978 -0.2603 -0.0053
   29DOPC   D2A  342  25.178   1.071  19.686 -0.0591  0.0321  0.0362
   29DOPC   C3A  343  25.590   1.090  19.558  0.1214 -0.2216 -0.2721
   29DOPC   C4A  344  25.924   1.024  19.263 -0.1172 -0.0978  0.0118
   29DOPC   C1B  345  25.625   1.006  20.481  0.2258  0.0958 -0.4382
   29DOPC   D2B  346  25.887   1.155  20.160 -0.2131 -0.0452 -0.1617
   29DOPC   C3B  347  26.178   1.038  19.756  0.0528  0.0327  0.4127
   29DOPC   C4B  348  26.459   0.983  19.361  0.3962 -0.2096  0.4014
   30DOPC   NC3  349  14.376   1.413  15.575  0.2236  0.0861  0.0129
   30DOPC   PO4  350  14.344   1.664  15.245 -0.3557 -0.1500  0.1650
   30DOPC   GL1  351  14.244   1.888  14.804  0.0583 -0.1967  0.5961
   30DOPC   GL2  352  14.376   1.640  14.688  0.0485 -0.1184  0.0769
   30DOPC   C1A  353  13.917   1.794  14.505 -0.1952 -0.1695 -0.1175
   30DOPC   D2A  354  13.638   2.050  14.163 -0.1794 -0.0725  0.2248
   30DOPC   C3A  355  13.574   2.137  13.683  0.0722  0.2884  0.1785
   30DOPC   C4A  356  13.788   1.872  13.338  0.2038 -0.3404  0.0788
   30DOPC   C1B  357  14.268   1.585  14.227 -0.2037  0.1556  0.0848
   30DOPC   D2B  358  14.151   1.832  13.738  0.1948  0.1185  0.2742
   30DOPC   C3B  359  13.720   1.605  13.755  0.2845  0.0715 -0.0211
   30DOPC   C4B  360  13.458   1.468  13.415  0.1789 -0.1810  0.1644
   31DOPC   NC3  361   7.716   1.386  22.137  0.0111 -0.0786  0.2428
   31DOPC   PO4  362   7.980   1.370  21.799 -0.2323  0.3448 -0.1930
   31DOPC   GL1  363   7.971   1.021  21.489  0.0274  0.1272 -0.3411
   31DOPC   GL2  364   7.914   0.918  21.803  0.0555 -0.2193 -0.3162
   31DOPC   C1A  365   7.839   0.900  21.124  0.0121  0.1019 -0.2804
   31DOPC   D2A  366   7.523   0.880  20.742  0.3868  0.1084 -0.0756
   31DOPC   C3A  367   7.492   0.578  20.395  0.0383 -0.0282 -0.3129
   31DOPC   C4A  368   7.567   0.581  19.876 -0.0154  0.0165  0.0476
   31DOPC   C1B  369   7.803   0.469  21.707  0.0792 -0.0035  0.1282
   31DOPC   D2B  370   7.889   0.082  21.436 -0.0676  0.2391  0.1864
   31DOPC   C3B  371   7.640   0.031  21.053  0.2796 -0.1338 -0.1370
   31DOPC   C4B  372   7.357   0.073  20.608 -0.2978  0.2310  0.2244
   32DOPC   NC3  373  14.351   4.065  14.926  0.3290 -0.2455 -0.1711
   32DOPC   PO4  374  14.338   3.679  14.955  0.2911  0.2907  0.0538
   32DOPC   GL1  375  14.245   3.581  14.578 -0.0567 -0.0903 -0.0104
   32DOPC   GL2  376  14.259   3.818  14.439 -0.1917 -0.0471 -0.4586
   32DOPC   C1A  377  13.938   3.490  14.273 -0.2341 -0.1553 -0.3275
   32DOPC   D2A  378  13.771   3.529  13.789  0.3803  0.0786 -0.0206
   32DOPC   C3A  379  13.886   3.516  13.334  0.2653  0.2710 -0.1116
   32DOPC   C4A  380  13.982   3.344  12.882  0.0986 -0.1265  0.0499
   32DOPC   C1B  381  14.060   3.949  14.024  0.0534 -0.1257 -0.0569
   32DOPC   D2B  382  13.911   4.008  13.560 -0.0542 -0.0339  0.0959
   32DOPC   C3B  383  13.654   4.100  13.199 -0.1192 -0.0892  0.1973
   32DOPC   C4B  384  13.667   4.362  12.817 -0.0290 -0.1042 -0.2437
   33DOPC   NC3  385  18.254   0.058  15.806 -0.1246  0.3074  0.0317
   33DOPC   PO4  386  18.595   0.243  15.922  0.0330 -0.0853  0.0306
   33DOPC   GL1  387  18.887   0.348  15.446 -0.1316 -0.3692  0.3952
   33DOPC   GL2  388  18.975   0.207  15.583  0.0404  0.1961 -0.0246
   33DOPC   C1A  389  19.201   0.664  15.169 -0.1760  0.0582 -0.2013
   33DOPC   D2A  390  19.450   0.718  14.697  0.2553 -0.0082  0.1605
   33DOPC   C3A  391  19.648   1.072  14.414  0.0788  0.2938 -0.1136
   33DOPC   C4A  392  19.816   1.488  14.213  0.1521  0.0825  0.0899
   33DOPC   C1B  393  19.112  -0.156  15.394 -0.0186 -0.0502  0.0588
   33DOPC   D2B  394  19.234  -0.440  14.977  0.0411  0.0921  0.4659
   33DOPC   C3B  395  19.374  -0.768  14.653 -0.0128  0.0056 -0.0535
   33DOPC   C4B  396  19.543  -1.083  14.292  0.1014  0.0360  0.1285
   34DOPC   NC3  397   9.929   6.326  20.274  0.0839 -0.1283 -0.2090
   34DOPC   PO4  398   9.724   6.654  20.320  0.1766 -0.1022  0.2315
   34DOPC   GL1  399   9.664   6.898  19.947  0.2236  0.5191  0.1270
   34DOPC   GL2  400   9.495   6.995  20.131  0.0887  0.1073  0.0168
   34DOPC   C1A  401   9.559   6.836  19.509 -0.0839 -0.2306  0.1185
   34DOPC   D2A  402   9.246   6.695  19.164  0.0683  0.1251  0.0479
   34DOPC   C3A  403   8.789   6.721  18.986  0.1438 -0.2454 -0.0837
   34DOPC   C4A  404   8.364   6.705  18.692  0.0576 -0.1257 -0.1339
   34DOPC   C1B  405   9.168   7.179  19.834  0.1777 -0.0453 -0.2381
   34DOPC   D2B  406   8.851   7.521  19.639  0.1523 -0.1292 -0.1126
   34DOPC   C3B  407   8.530   7.615  19.355 -0.4406 -0.1430 -0.1991
   34DOPC   C4B  408   8.344   8.065  19.183 -0.0898  0.1918 -0.2392
   35DOPC   NC3  409   2.913   7.345  22.178  0.0370 -0.0996  0.0223
   35DOPC   PO4  410   2.616   7.589  22.130 -0.0094  0.1113 -0.0705
   35DOPC   GL1  411   2.455   7.854  21.832  0.0869  0.0299  0.3214
   35DOPC   GL2  412   2.613   8.095  21.914  0.0979 -0.1777 -0.2445
   35DOPC   C1A  413   2.520   7.885  21.343 -0.2857 -0.4129 -0.1378
   35DOPC   D2A  414   2.552   7.992  20.848 -0.1521  0.0911  0.0118
   35DOPC   C3A  415   2.389   8.020  20.423 -0.1836  0.1274  0.1534
   35DOPC   C4A  416   2.364   7.943  19.964  0.2932 -0.0530  0.2725
   35DOPC   C1B  417   2.840   8.103  21.639  0.1002  0.0400 -0.1113
   35DOPC   D2B  418   3.001   8.092  21.197  0.0692  0.0762 -0.1243
   35DOPC   C3B  419   3.112   7.956  20.751 -0.0348  0.2752 -0.3676
   35DOPC   C4B  420   2.949   7.874  20.385 -0.0048 -0.0292 -0.0680
   36DOPC   NC3  421   4.793   7.204  22.911 -0.2076  0.1837 -0.2347
   36DOPC   PO4  422   4.964   6.944  22.629  0.1252  0.0532 -0.0764
   36DOPC   GL1  423   4.964   7.062  22.185 -0.1428  0.1031 -0.2750
   36DOPC   GL2  424   4.688   6.838  22.288  0.0840 -0.2416 -0.2148
   36DOPC   C1A  425   5.095   7.013  21.824  0.4786  0.1393 -0.2029
   36DOPC   D2A  426   5.514   6.928  21.725  0.0119 -0.0219 -0.2154
   36DOPC   C3A  427   5.238   7.075  21.370  0.1087 -0.2774 -0.1454
   36DOPC   C4A  428   4.795   7.167  21.194 -0.0435  0.0891  0.0951
   36DOPC   C1B  429   4.788   6.564  21.986  0.0845  0.1337 -0.2232
   36DOPC   D2B  430   4.736   6.295  21.566  0.2374  0.3227 -0.2168
   36DOPC   C3B  431   5.169   6.461  21.562 -0.0450 -0.2825  0.0043
   36DOPC   C4B  432   5.474   6.664  21.304 -0.0477  0.1088 -0.0689
   37DOPC   NC3  433  22.003   0.467  18.721  0.1080 -0.2210  0.0951
   37DOPC   PO4  434  22.013   0.157  18.963 -0.1352  0.0836 -0.1409
   37DOPC   GL1  435  22.316  -0.052  18.701 -0.1838 -0.0636 -0.0226
   37DOPC   GL2  436  22.285   0.050  18.437  0.1022  0.0562  0.0673
   37DOPC   C1A  437  22.702   0.027  18.594  0.1239  0.0005 -0.0741
   37DOPC   D2A  438  23.203   0.071  18.526 -0.3143 -0.0589  0.1200
   37DOPC   C3A  439  23.429   0.200  18.175  0.0228  0.0060 -0.1247
   37DOPC   C4A  440  23.728   0.540  17.929  0.1467  0.1313 -0.1377
   37DOPC   C1B  441  22.450  -0.252  18.146 -0.2173 -0.1921 -0.2035
   37DOPC   D2B  442  22.678  -0.414  17.727 -0.0764  0.0443 -0.2355
   37DOPC   C3B  443  22.964  -0.209  17.418 -0.0010 -0.3418 -0.1103
   37DOPC   C4B  444  23.357  -0.404  17.158 -0.1241  0.0488  0.2248
   38DOPC   NC3  445  11.315   4.382  18.673  0.0245  0.1297  0.1136
   38DOPC   PO4  446  11.354   4.380  18.267 -0.1714  0.1496 -0.1672
   38DOPC   GL1  447  11.078   4.567  18.087  0.4155  0.1053  0.0521
   38DOPC   GL2  448  10.840   4.374  18.041  0.3102  0.0281  0.0374
   38DOPC   C1A  449  10.966   4.987  17.879 -0.5742 -0.3265  0.0349
   38DOPC   D2A  450  10.518   5.233  17.771  0.0344 -0.0057  0.4522
   38DOPC   C3A  451  10.204   5.169  17.481  0.2680 -0.0225  0.0094
   38DOPC   C4A  452   9.875   5.148  17.170  0.1505 -0.0885 -0.0731
   38DOPC   C1B  453  10.660   4.684  17.667 -0.0572  0.2378 -0.2409
   38DOPC   D2B  454  10.670   4.927  17.219  0.0465  0.0078 -0.0091
   38DOPC   C3B  455  10.303   4.720  17.034  0.1305 -0.1518 -0.2471
   38DOPC   C4B  456   9.906   4.552  16.991 -0.2799 -0.1188 -0.0421
   39DOPC   NC3  457  15.619   2.688  14.579 -0.0559  0.1518  0.0107
   39DOPC   PO4  458  15.520   2.929  14.284 -0.0556 -0.0490  0.0482
   39DOPC   GL1  459  15.655   3.006  13.896 -0.1701  0.3924  0.1378
   39DOPC   GL2  460  15.435   2.833  13.763 -0.0062 -0.3939  0.2421
   39DOPC   C1A  461  15.764   3.003  13.419  0.1022  0.2515 -0.3617
   39DOPC   D2A  462  15.531   3.268  13.032  0.2141 -0.1066 -0.1143
   39DOPC   C3A  463  15.789   3.472  12.714  0.0004  0.0327  0.1092
   39DOPC   C4A  464  16.137   3.848  12.552 -0.0676  0.2028  0.0727
   39DOPC   C1B  465  15.249   3.037  13.428  0.0556 -0.0309  0.0202
   39DOPC   D2B  466  15.072   3.441  13.183 -0.4155  0.0950 -0.1600
   39DOPC   C3B  467  14.791   3.687  12.925 -0.0901  0.1105  0.1502
   39DOPC   C4B  468  14.604   4.097  12.788 -0.0869  0.1554 -0.0779
   40DOPC   NC3  469   9.500   5.595  21.334  0.2029 -0.2733  0.1429
   40DOPC   PO4  470   9.315   5.941  21.300 -0.0406  0.0257  0.1657
   40DOPC   GL1  471   9.067   5.834  21.025 -0.0555  0.1161  0.1466
   40DOPC   GL2  472   9.254   5.765  20.810  0.0742  0.0811  0.0286
   40DOPC   C1A  473   8.710   5.693  20.872 -0.2211  0.0121  0.0132
   40DOPC   D2A  474   8.506   5.356  20.712  0.0141  0.4953 -0.0601
   40DOPC   C3A  475   8.225   5.050  20.837  0.3950 -0.3226 -0.1538
   40DOPC   C4A  476   8.121   4.660  21.124 -0.0549  0.2948 -0.0520
   40DOPC   C1B  477   9.072   5.857  20.453  0.0105  0.1157 -0.2617
   40DOPC   D2B  478   9.026   6.168  20.054 -0.0704  0.0520 -0.1820
   40DOPC   C3B  479   8.717   6.437  19.861  0.1188  0.2548 -0.0319
   40DOPC   C4B  480   8.650   6.721  19.527  0.1081 -0.0287 -0.1269
   41DOPC   NC3  481  19.286   1.848  16.231 -0.1259 -0.1669  0.2043
   41DOPC   PO4  482  19.542   2.136  16.165 -0.3097  0.2993  0.0889
   41DOPC   GL1  483  19.786   1.990  15.930 -0.1345 -0.2382  0.1061
   41DOPC   GL2  484  19.612   1.944  15.694 -0.0636  0.0315 -0.3028
   41DOPC   C1A  485  20.210   2.147  15.892  0.0384 -0.2258 -0.0241
   41DOPC   D2A  486  20.608   2.314  15.690  0.1663 -0.0747  0.2115
   41DOPC   C3A  487  20.828   2.246  15.261 -0.1559  0.2194  0.0483
   41DOPC   C4A  488  21.076   2.039  14.818  0.3296  0.3903 -0.0223
   41DOPC   C1B  489  19.926   2.052  15.433  0.0250  0.1953  0.0470
   41DOPC   D2B  490  20.410   1.975  15.356  0.0279  0.1211 -0.3793
   41DOPC   C3B  491  20.175   2.051  14.950 -0.2965  0.3642 -0.0976
   41DOPC   C4B  492  20.020   1.746  14.592 -0.4613  0.0563  0.0567
   42DOPC   NC3  493  12.482   4.392  17.114  0.0111 -0.1815 -0.1088
   42DOPC   PO4  494  12.433   4.006  17.141  0.0229  0.0589 -0.0227
   42DOPC   GL1  495  12.246   3.885  16.768 -0.2719 -0.1428  0.0432
   42DOPC   GL2  496  12.282   4.172  16.675  0.1527 -0.0902  0.4631
   42DOPC   C1A  497  11.886   3.729  16.779  0.0809  0.0026  0.0887
   42DOPC   D2A  498  11.421   3.586  16.806  0.0009 -0.1099  0.0563
   42DOPC   C3A  499  11.050   3.637  16.557 -0.0015 -0.1328  0.0710
   42DOPC   C4A  500  10.797   3.925  16.261 -0.4621  0.0268 -0.0238
   42DOPC   C1B  501  11.919   4.115  16.526 -0.0099  0.3392  0.0152
   42DOPC   D2B  502  11.553   3.815  16.423  0.1003  0.0720 -0.0800
   42DOPC   C3B  503  11.276   3.954  16.219  0.0328 -0.1203  0.0250
   42DOPC   C4B  504  10.984   4.160  15.838 -0.0309  0.2803 -0.2522
   43DOPC   NC3  505  18.298   6.171  15.680 -0.2231 -0.2666 -0.0948
   43DOPC   PO4  506  18.566   6.444  15.735 -0.1710  0.2037 -0.3148
   43DOPC   GL1  507  18.857   6.565  15.519 -0.3540  0.1391  0.7634
   43DOPC   GL2  508  18.756   6.813  15.356  0.2271 -0.1442  0.0447
   43DOPC   C1A  509  19.282   6.431  15.504  0.3264 -0.2598 -0.2126
   43DOPC   D2A  510  19.673   6.267  15.320  0.1318  0.1441  0.0008
   43DOPC   C3A  511  20.015   6.611  15.203  0.0299  0.1414  0.0900
   43DOPC   C4A  512  20.272   6.930  14.933  0.0584 -0.0380  0.2758
   43DOPC   C1B  513  19.022   6.838  15.031 -0.0730  0.0751  0.0619
   43DOPC   D2B  514  19.100   6.689  14.501 -0.1056 -0.2743 -0.2586
   43DOPC   C3B  515  19.030   7.060  14.156  0.0263 -0.3273 -0.0519
   43DOPC   C4B  516  19.054   7.495  13.905  0.1064 -0.1491 -0.2091
   44DOPC   NC3  517   2.277   3.081  22.391  0.1630  0.0260  0.4668
   44DOPC   PO4  518   1.940   3.269  22.310  0.0887  0.2518 -0.1649
   44DOPC   GL1  519   2.045   3.146  21.889 -0.0627 -0.0395 -0.0562
   44DOPC   GL2  520   2.259   2.965  21.956 -0.2056 -0.2772  0.2425
   44DOPC   C1A  521   1.803   3.006  21.529 -0.2180 -0.2653 -0.1944
   44DOPC   D2A  522   1.579   3.061  21.107 -0.1761 -0.0115  0.2528
   44DOPC   C3A  523   1.752   3.114  20.671 -0.0051 -0.1883 -0.0722
   44DOPC   C4A  524   1.731   3.204  20.193 -0.2100 -0.0953  0.2783
   44DOPC   C1B  525   2.483   2.776  21.601 -0.4175  0.2966  0.1804
   44DOPC   D2B  526   2.521   2.480  21.159 -0.1776 -0.1072 -0.1561
   44DOPC   C3B  527   2.886   2.319  20.850 -0.0759 -0.1976 -0.1685
   44DOPC   C4B  528   3.227   2.314  20.527  0.1838 -0.0014  0.0076
   45DOPC   NC3  529  23.589   6.549  19.936 -0.1413 -0.2861 -0.2750
   45DOPC   PO4  530  23.966   6.560  19.854  0.3641 -0.0106 -0.0849
   45DOPC   GL1  531  24.219   6.334  19.628  0.0303  0.3357  0.0005
   45DOPC   GL2  532  24.104   6.567  19.416 -0.2188  0.1122 -0.0933
   45DOPC   C1A  533  24.659   6.344  19.685  0.4405  0.1223 -0.0898
   45DOPC   D2A  534  25.089   6.404  19.441 -0.3993  0.1946  0.3613
   45DOPC   C3A  535  25.333   6.298  19.029 -0.2226  0.0092  0.3847
   45DOPC   C4A  536  25.400   6.191  18.505 -0.1890 -0.2240 -0.2284
   45DOPC   C1B  537  24.263   6.424  19.008 -0.0639  0.3112  0.3370
   45DOPC   D2B  538  24.294   6.404  18.553  0.1004  0.2850 -0.1000
   45DOPC   C3B  539  24.684   6.465  18.244 -0.4544 -0.0235  0.0232
   45DOPC   C4B  540  25.181   6.436  18.147 -0.1244  0.2540  0.0515
   46DOPC   NC3  541  15.590   7.339  14.277  0.2414  0.0215 -0.0386
   46DOPC   PO4  542  15.321   7.666  14.332  0.1737 -0.0243 -0.0035
   46DOPC   GL1  543  15.364   7.759  13.916 -0.2043 -0.2106  0.1063
   46DOPC   GL2  544  15.494   7.530  13.784 -0.1169 -0.2363 -0.0829
   46DOPC   C1A  545  15.104   7.731  13.575  0.2484  0.1980 -0.1218
   46DOPC   D2A  546  14.941   7.579  13.181 -0.0397  0.3168  0.0948
   46DOPC   C3A  547  15.065   7.287  12.746  0.0709 -0.0357 -0.0087
   46DOPC   C4A  548  15.149   7.136  12.320  0.0700 -0.0413 -0.0504
   46DOPC   C1B  549  15.540   7.608  13.296 -0.2845 -0.0609 -0.1279
   46DOPC   D2B  550  15.931   7.834  13.103  0.0908  0.0919 -0.3390
   46DOPC   C3B  551  16.187   8.105  12.840  0.0958 -0.2433  0.2135
   46DOPC   C4B  552  16.588   8.254  12.481 -0.1367 -0.0402 -0.0229
   47DOPC   NC3  553  10.082   7.532  19.997 -0.1036  0.0942  0.1990
   47DOPC   PO4  554  10.117   7.631  19.589 -0.0567  0.3761 -0.2264
   47DOPC   GL1  555   9.736   7.658  19.466 -0.1832  0.2149 -0.1243
   47DOPC   GL2  556   9.695   7.411  19.441  0.0987  0.2944  0.0541
   47DOPC   C1A  557   9.529   7.947  19.226  0.0701 -0.6059 -0.1807
   47DOPC   D2A  558   9.207   8.255  19.113  0.1967 -0.1794  0.1323
   47DOPC   C3A  559   9.073   8.550  18.793 -0.1555  0.0977 -0.1313
   47DOPC   C4A  560   8.755   8.887  18.589  0.2011  0.1997  0.0893
   47DOPC   C1B  561   9.348   7.238  19.383  0.2738 -0.2271 -0.0384
   47DOPC   D2B  562   8.909   7.073  19.341  0.0915 -0.0816  0.1090
   47DOPC   C3B  563   8.522   7.173  19.050 -0.2480  0.0284  0.2012
   47DOPC   C4B  564   8.426   7.129  18.541  0.1783  0.1077 -0.1509
   48DOPC   NC3  565   0.562   4.682  21.337 -0.1532  0.1877  0.0127
   48DOPC   PO4  566   0.751   4.408  21.549  0.0509 -0.0065 -0.2879
   48DOPC   GL1  567   0.809   4.183  21.316 -0.0105  0.2457  0.1173
   48DOPC   GL2  568   0.661   3.957  21.284  0.1002 -0.2374  0.0807
   48DOPC   C1A  569   1.118   4.188  21.026  0.1188 -0.2119  0.0843
   48DOPC   D2A  570   1.523   4.099  20.785 -0.2054  0.0175  0.1132
   48DOPC   C3A  571   1.919   4.158  20.533  0.1738 -0.0437 -0.1313
   48DOPC   C4A  572   2.357   4.117  20.266  0.0953 -0.1357  0.0930
   48DOPC   C1B  573   0.748   3.764  20.929  0.0511 -0.0255 -0.0781
   48DOPC   D2B  574   0.741   3.491  20.488  0.3148 -0.3707  0.1383
   48DOPC   C3B  575   1.017   3.465  20.109 -0.1304 -0.1260  0.0618
   48DOPC   C4B  576   1.086   3.300  19.712  0.2282  0.1280 -0.0972
   49DOPC   NC3  577  22.344   6.022  18.624  0.0386  0.0436  0.0641
   49DOPC   PO4  578  21.979   5.864  18.730  0.0834 -0.1525  0.0085
   49DOPC   GL1  579  22.131   5.415  18.631  0.0714  0.0379  0.2867
   49DOPC   GL2  580  22.263   5.559  18.409  0.0169  0.2066  0.0852
   49DOPC   C1A  581  22.500   5.265  18.685 -0.2215  0.1077  0.2062
   49DOPC   D2A  582  22.904   5.123  18.490  0.1582 -0.2915  0.0650
   49DOPC   C3A  583  22.892   4.846  18.208  0.0294  0.0974 -0.2271
   49DOPC   C4A  584  23.054   4.575  17.796  0.1291 -0.0488  0.0146
   49DOPC   C1B  585  22.705   5.576  18.313  0.0843  0.2759 -0.1998
   49DOPC   D2B  586  23.127   5.750  18.124 -0.2830  0.0131 -0.1221
   49DOPC   C3B  587  23.384   5.777  17.740  0.2073 -0.0450 -0.0502
   49DOPC   C4B  588  23.806   5.958  17.466 -0.1697  0.1856  0.1756
   50DOPC   NC3  589  11.474   5.427  18.399  0.1299  0.0194  0.2096
   50DOPC   PO4  590  11.399   5.740  18.624  0.0454 -0.2305  0.2745
   50DOPC   GL1  591  11.207   5.922  18.296 -0.0849  0.4881  0.0426
   50DOPC   GL2  592  10.995   6.008  18.576 -0.2113  0.0566  0.2574
   50DOPC   C1A  593  11.033   5.927  17.879 -0.1317  0.1610  0.0171
   50DOPC   D2A  594  10.783   6.144  17.541  0.1357  0.0078 -0.0203
   50DOPC   C3A  595  10.367   6.113  17.333  0.1800 -0.1793  0.1885
   50DOPC   C4A  596   9.979   6.230  17.104 -0.0889  0.0923 -0.0628
   50DOPC   C1B  597  10.605   5.819  18.580  0.0217 -0.0848 -0.0046
   50DOPC   D2B  598  10.092   5.616  18.505 -0.1846 -0.3549  0.1387
   50DOPC   C3B  599   9.698   5.557  18.186 -0.3754  0.1460 -0.0822
   50DOPC   C4B  600   9.273   5.554  17.868  0.2074  0.0363 -0.2944
   51DOPC   NC3  601  13.530   4.347  15.187  0.0771 -0.1595  0.2124
   51DOPC   PO4  602  13.834   4.066  15.210  0.0035  0.1568  0.0234
   51DOPC   GL1  603  13.902   3.893  14.867  0.2383  0.0001 -0.2428
   51DOPC   GL2  604  13.757   4.215  14.816 -0.0354  0.1152  0.0448
   51DOPC   C1A  605  13.632   3.555  14.657  0.0951  0.4953  0.0079
   51DOPC   D2A  606  13.447   3.344  14.180 -0.0811 -0.0750  0.2763
   51DOPC   C3A  607  13.474   3.068  13.880 -0.0748 -0.1607  0.2553
   51DOPC   C4A  608  13.551   2.734  13.548 -0.4230  0.0127 -0.0239
   51DOPC   C1B  609  13.462   4.339  14.507 -0.4197  0.3716 -0.0025
   51DOPC   D2B  610  13.062   4.217  14.241 -0.0272  0.0115 -0.0581
   51DOPC   C3B  611  13.024   3.917  13.834 -0.2286  0.0371 -0.1192
   51DOPC   C4B  612  13.378   3.765  13.565  0.0258 -0.1054 -0.1543
   52DOPC   NC3  613  17.341   1.794  14.908 -0.0186  0.1981  0.1190
   52DOPC   PO4  614  17.035   1.585  14.757  0.1761 -0.0678  0.0554
   52DOPC   GL1  615  17.252   1.360  14.465  0.0373 -0.2538 -0.2830
   52DOPC   GL2  616  17.444   1.529  14.421 -0.1607  0.2593  0.0357
   52DOPC   C1A  617  17.330   1.279  14.024 -0.0527  0.2079  0.2358
   52DOPC   D2A  618  17.520   1.224  13.570 -0.6140  0.0677  0.1466
   52DOPC   C3A  619  17.515   1.333  13.122  0.0345 -0.2509  0.2095
   52DOPC   C4A  620  17.212   1.089  12.882 -0.2278 -0.0423 -0.3814
   52DOPC   C1B  621  17.639   1.668  14.016 -0.1658  0.0300 -0.1191
   52DOPC   D2B  622  17.707   1.780  13.535  0.0742 -0.1719  0.2254
   52DOPC   C3B  623  17.549   1.841  13.152 -0.2525 -0.1249  0.2376
   52DOPC   C4B  624  17.289   1.928  12.713  0.3177 -0.1324  0.0354
   53DOPC   NC3  625  18.687   2.143  15.454  0.1432 -0.2932  0.5293
   53DOPC   PO4  626  18.566   2.486  15.314  0.2637 -0.1512  0.2508
   53DOPC   GL1  627  18.690   2.551  14.971  0.0771 -0.2257  0.1228
   53DOPC   GL2  628  18.930   2.287  15.021  0.1331  0.2633 -0.1831
   53DOPC   C1A  629  18.725   2.540  14.525  0.3736 -0.1394 -0.1100
   53DOPC   D2A  630  18.771   2.325  14.116 -0.0787 -0.0859  0.0820
   53DOPC   C3A  631  19.017   1.929  13.993 -0.0706 -0.4093 -0.0142
   53DOPC   C4A  632  19.437   1.684  13.837  0.2220 -0.1609  0.0806
   53DOPC   C1B  633  19.320   2.447  14.983  0.1122  0.1677 -0.2346
   53DOPC   D2B  634  19.768   2.620  15.183 -0.3822 -0.1056 -0.0367
   53DOPC   C3B  635  19.990   2.521  14.847 -0.4458 -0.0733  0.0547
   53DOPC   C4B  636  20.087   2.246  14.455  0.1636 -0.1789  0.3350
   54DOPC   NC3  637   3.211   7.765  22.850 -0.1024  0.1959 -0.0681
   54DOPC   PO4  638   3.043   7.760  22.450 -0.2245  0.0669  0.0800
   54DOPC   GL1  639   3.308   7.785  22.064 -0.0376  0.0256 -0.0527
   54DOPC   GL2  640   3.038   7.703  21.931  0.2422 -0.4707  0.0042
   54DOPC   C1A  641   3.418   8.009  21.729  0.1894  0.1891  0.1887
   54DOPC   D2A  642   3.690   8.038  21.339  0.1086  0.2728 -0.1989
   54DOPC   C3A  643   3.598   8.179  20.890  0.3700 -0.0427  0.2599
   54DOPC   C4A  644   3.480   8.414  20.496  0.0336  0.2433  0.2337
   54DOPC   C1B  645   2.971   7.617  21.504 -0.0920  0.3548  0.0346
   54DOPC   D2B  646   2.889   7.588  21.000  0.1454  0.1795  0.1772
   54DOPC   C3B  647   2.721   7.294  21.252 -0.1037 -0.1084  0.1550
   54DOPC   C4B  648   2.478   6.943  21.411 -0.0264  0.0071 -0.1702
   55DOPC   NC3  649  19.615   4.411  16.002  0.1362 -0.0451 -0.0196
   55DOPC   PO4  650  19.353   4.692  15.831 -0.0613 -0.1810 -0.2996
   55DOPC   GL1  651  19.742   4.891  15.582  0.1039  0.1690 -0.0231
   55DOPC   GL2  652  19.637   4.623  15.455 -0.1944 -0.0513  0.1144
   55DOPC   C1A  653  19.927   5.099  15.236 -0.4524  0.0099  0.5313
   55DOPC   D2A  654  19.746   5.094  14.832 -0.0079  0.4044 -0.0789
   55DOPC   C3A  655  19.508   5.202  14.427  0.2668 -0.2547  0.1089
   55DOPC   C4A  656  19.593   5.486  14.039  0.1047 -0.0437 -0.0227
   55DOPC   C1B  657  19.847   4.598  15.086 -0.2949 -0.2289  0.2633
   55DOPC   D2B  658  19.955   4.678  14.624  0.0868  0.3477  0.3297
   55DOPC   C3B  659  20.043   4.286  14.408 -0.2859  0.0516  0.1420
   55DOPC   C4B  660  20.093   3.831  14.188 -0.3885 -0.0732 -0.3796
   56DOPC   NC3  661  12.206   4.498  18.045 -0.3175  0.1122 -0.2562
   56DOPC   PO4  662  12.223   4.528  17.638 -0.2833  0.1986 -0.0456
   56DOPC   GL1  663  11.926   4.510  17.318  0.4853  0.0803  0.3694
   56DOPC   GL2  664  11.854   4.524  17.556  0.2695 -0.1103  0.0730
   56DOPC   C1A  665  11.517   4.535  17.177 -0.0870 -0.0091 -0.0011
   56DOPC   D2A  666  11.098   4.275  17.190 -0.2217  0.1039 -0.0604
   56DOPC   C3A  667  10.676   4.415  17.296 -0.2167 -0.0874 -0.0131
   56DOPC   C4A  668  10.244   4.256  17.536 -0.1846  0.0950  0.1957
   56DOPC   C1B  669  11.520   4.224  17.592 -0.4001  0.1542  0.1489
   56DOPC   D2B  670  11.042   4.252  17.702  0.1012  0.2228 -0.0875
   56DOPC   C3B  671  10.660   3.979  17.502 -0.1879 -0.0363 -0.2083
   56DOPC   C4B  672  10.275   3.803  17.202 -0.0402 -0.1189  0.0187
   57DOPC   NC3  673  16.933   5.607  14.994  0.0149 -0.1085  0.4423
   57DOPC   PO4  674  17.191   5.345  14.920 -0.1019  0.1537 -0.0756
   57DOPC   GL1  675  17.386   5.420  14.593 -0.0792  0.2644 -0.1844
   57DOPC   GL2  676  17.448   5.130  14.574  0.1695  0.1304 -0.5410
   57DOPC   C1A  677  17.376   5.659  14.223 -0.1774  0.2573  0.3174
   57DOPC   D2A  678  17.120   5.681  13.774  0.2143 -0.0857 -0.1596
   57DOPC   C3A  679  17.140   5.969  13.419 -0.2224 -0.1232  0.0294
   57DOPC   C4A  680  17.078   6.269  13.065 -0.1360  0.1186  0.2531
   57DOPC   C1B  681  17.632   5.208  14.150  0.1077 -0.2940  0.2153
   57DOPC   D2B  682  17.613   5.548  13.804 -0.1929 -0.0168 -0.0501
   57DOPC   C3B  683  17.890   5.546  13.401  0.0622 -0.1066 -0.1605
   57DOPC   C4B  684  17.966   5.686  12.897 -0.2278 -0.1222  0.1423
   58DOPC   NC3  685  20.402   2.798  16.853 -0.1295 -0.1373 -0.1957
   58DOPC   PO4  686  20.339   3.235  16.869  0.1138  0.0338  0.2042
   58DOPC   GL1  687  20.522   3.380  16.461 -0.2675 -0.1540 -0.0984
   58DOPC   GL2  688  20.791   3.501  16.555 -0.1384 -0.1106 -0.2375
   58DOPC   C1A  689  20.635   3.406  16.093 -0.1406 -0.1469 -0.0656
   58DOPC   D2A  690  20.970   3.299  15.736 -0.1981  0.1045  0.1486
   58DOPC   C3A  691  21.142   3.264  15.330 -0.3472  0.0428  0.1110
   58DOPC   C4A  692  21.408   3.283  14.925 -0.2494  0.2176  0.0599
   58DOPC   C1B  693  21.081   3.591  16.233 -0.0690 -0.0102  0.2298
   58DOPC   D2B  694  21.466   3.570  15.969 -0.2162  0.0096  0.1800
   58DOPC   C3B  695  21.907   3.635  16.088 -0.3075  0.0418  0.0889
   58DOPC   C4B  696  22.398   3.725  15.992 -0.0350  0.3073 -0.0097
   59DOPC   NC3  697   1.309   6.670  21.709 -0.0344  0.2451  0.0374
   59DOPC   PO4  698   1.078   6.642  21.421  0.1800 -0.0946 -0.0123
   59DOPC   GL1  699   1.038   6.641  21.034  0.1470  0.0644  0.0235
   59DOPC   GL2  700   0.756   6.518  21.031 -0.0781  0.2307 -0.1345
   59DOPC   C1A  701   1.281   6.674  20.672 -0.2955  0.1061  0.2728
   59DOPC   D2A  702   1.344   6.848  20.239  0.1893 -0.0417 -0.1572
   59DOPC   C3A  703   1.410   6.920  19.755 -0.0017  0.0213 -0.1374
   59DOPC   C4A  704   1.485   7.018  19.288 -0.2633 -0.3466  0.0305
   59DOPC   C1B  705   0.688   6.203  20.660  0.1754 -0.0860 -0.4149
   59DOPC   D2B  706   0.686   6.169  20.164  0.1165 -0.3331 -0.3087
   59DOPC   C3B  707   0.536   6.491  19.922  0.0794  0.1355 -0.2796
   59DOPC   C4B  708   0.023   6.595  20.005 -0.3939 -0.2197  0.2584
   60DOPC   NC3  709  23.988   7.123  20.706 -0.1228 -0.1625 -0.2852
   60DOPC   PO4  710  24.223   7.418  20.502  0.2174  0.3127  0.0156
   60DOPC   GL1  711  24.675   7.267  20.366 -0.0052  0.0313 -0.2891
   60DOPC   GL2  712  24.543   7.467  20.200 -0.1942 -0.0352  0.1091
   60DOPC   C1A  713  24.913   7.163  20.033 -0.0067  0.0434 -0.1083
   60DOPC   D2A  714  25.163   7.363  19.616  0.0582 -0.0845 -0.0484
   60DOPC   C3A  715  25.607   7.625  19.564  0.0431  0.1058 -0.1678
   60DOPC   C4A  716  26.031   7.745  19.725 -0.0611  0.0615  0.1986
   60DOPC   C1B  717  24.757   7.747  19.955 -0.1341  0.1455  0.0749
   60DOPC   D2B  718  25.159   7.928  19.739 -0.1852  0.2052  0.0934
   60DOPC   C3B  719  25.360   7.955  19.322  0.2550 -0.1136 -0.1058
   60DOPC   C4B  720  25.388   7.882  18.811 -0.1021  0.0515  0.2745
   61DOPC   NC3  721  11.897   3.266  18.023  0.1118 -0.3822  0.0002
   61DOPC   PO4  722  12.126   3.282  17.719  0.2079  0.2594  0.0118
   61DOPC   GL1  723  11.900   3.109  17.408 -0.0024  0.2946 -0.0991
   61DOPC   GL2  724  11.644   3.060  17.429 -0.3616  0.0275 -0.1505
   61DOPC   C1A  725  11.937   3.240  16.988  0.0590  0.1065  0.0014
   61DOPC   D2A  726  11.772   3.262  16.496 -0.2196  0.0078 -0.3091
   61DOPC   C3A  727  11.434   3.361  16.196  0.0812  0.0217 -0.1702
   61DOPC   C4A  728  11.038   3.535  15.951 -0.2100 -0.2866 -0.0743
   61DOPC   C1B  729  11.475   2.824  17.103 -0.3556  0.0558 -0.0200
   61DOPC   D2B  730  11.056   2.747  16.792  0.1110  0.0988  0.0921
   61DOPC   C3B  731  10.642   2.786  16.603 -0.1358  0.0273  0.2015
   61DOPC   C4B  732  10.290   3.057  16.289  0.1737  0.1876  0.3029
   62DOPC   NC3  733  11.751   1.030  18.809 -0.0632  0.2596  0.0919
   62DOPC   PO4  734  11.666   0.764  18.524  0.1448 -0.2214 -0.2423
   62DOPC   GL1  735  11.498   0.661  18.079 -0.1983  0.0175 -0.3539
   62DOPC   GL2  736  11.294   0.718  18.237  0.0759 -0.2992  0.1031
   62DOPC   C1A  737  11.558   0.843  17.715 -0.1676  0.1151 -0.0674
   62DOPC   D2A  738  11.396   1.052  17.327  0.3769  0.2371  0.4428
   62DOPC   C3A  739  11.561   0.784  16.966 -0.0157 -0.3019  0.6784
   62DOPC   C4A  740  11.697   0.456  16.607 -0.0588 -0.1920  0.0437
   62DOPC   C1B  741  10.865   0.917  18.174 -0.1421  0.1658  0.0293
   62DOPC   D2B  742  10.479   1.160  18.196 -0.1484 -0.1843  0.2450
   62DOPC   C3B  743  10.143   1.088  17.890  0.0327 -0.0584 -0.1159
   62DOPC   C4B  744   9.719   1.029  17.708 -0.0989 -0.0179  0.1803
   63DOPC   NC3  745  11.186   6.655  19.034 -0.1448  0.2204 -0.2157
   63DOPC   PO4  746  10.938   6.405  18.845  0.0745 -0.0278  0.3245
   63DOPC   GL1  747  10.596   6.627  18.599  0.2196 -0.3337  0.2420
   63DOPC   GL2  748  10.705   6.578  18.331  0.1089  0.2255 -0.2879
   63DOPC   C1A  749  10.255   6.536  18.749  0.1549  0.0054 -0.1043
   63DOPC   D2A  750   9.758   6.563  18.760  0.0004  0.0235  0.0566
   63DOPC   C3A  751   9.519   6.825  18.525  0.0423  0.0998  0.0839
   63DOPC   C4A  752   9.223   7.080  18.241  0.0612  0.0007 -0.0791
   63DOPC   C1B  753  10.359   6.529  18.155  0.0474 -0.2325  0.2985
   63DOPC   D2B  754  10.028   6.714  17.812  0.1566 -0.0942 -0.0215
   63DOPC   C3B  755   9.661   6.947  17.922  0.1348  0.0735 -0.0959
   63DOPC   C4B  756   9.203   7.109  17.737 -0.4620 -0.3916  0.0206
   64DOPC   NC3  757  23.368   4.624  20.166  0.1834  0.2288 -0.0052
   64DOPC   PO4  758  23.602   4.405  19.883 -0.0773  0.1144 -0.3317
   64DOPC   GL1  759  23.760   4.733  19.535 -0.1445  0.0043  0.0669
   64DOPC   GL2  760  23.997   4.663  19.598  0.0265  0.0087 -0.0905
   64DOPC   C1A  761  23.744   4.660  19.112 -0.0612  0.1303 -0.4033
   64DOPC   D2A  762  23.677   4.773  18.634 -0.3243  0.0573 -0.3350
   64DOPC   C3A  763  24.038   4.645  18.350 -0.1395  0.0394  0.0253
   64DOPC   C4A  764  24.365   4.747  17.961  0.0227  0.0838 -0.0525
   64DOPC   C1B  765  24.226   4.663  19.214  0.0189  0.1704 -0.0608
   64DOPC   D2B  766  24.606   4.667  18.921 -0.0510  0.1019 -0.1195
   64DOPC   C3B  767  24.607   4.385  18.549  0.2931 -0.1272  0.0971
   64DOPC   C4B  768  24.539   4.315  18.085 -0.1537  0.1381  0.0249
   65DOPC   NC3  769  20.700   5.395  17.885  0.1014  0.2132  0.1896
   65DOPC   PO4  770  21.015   5.651  17.818 -0.0200  0.2238 -0.0088
   65DOPC   GL1  771  21.325   5.570  17.499 -0.1678 -0.1929  0.2618
   65DOPC   GL2  772  21.075   5.536  17.287  0.1752 -0.0654  0.1105
   65DOPC   C1A  773  21.581   5.821  17.312  0.2439 -0.0470 -0.2082
   65DOPC   D2A  774  21.829   5.916  16.877  0.2966  0.1601 -0.1505
   65DOPC   C3A  775  21.733   6.164  16.513 -0.0182  0.0254  0.2374
   65DOPC   C4A  776  21.595   6.083  16.008  0.0710 -0.3235  0.0617
   65DOPC   C1B  777  21.326   5.598  16.943  0.4094 -0.0632  0.3629
   65DOPC   D2B  778  21.549   5.645  16.504 -0.2836 -0.3472  0.2541
   65DOPC   C3B  779  21.894   5.743  16.225 -0.1182  0.1334 -0.0022
   65DOPC   C4B  780  22.066   5.872  15.822  0.1833 -0.0290  0.0109
   66DOPC   NC3  781   7.278   3.704  22.564 -0.3254  0.3057 -0.0892
   66DOPC   PO4  782   6.963   3.897  22.485  0.0449  0.1476 -0.0336
   66DOPC   GL1  783   6.817   3.940  22.025  0.4218  0.2005  0.1686
   66DOPC   GL2  784   6.532   3.840  22.040  0.3670 -0.3655 -0.3451
   66DOPC   C1A  785   6.973   3.896  21.610  0.2008  0.1961 -0.1974
   66DOPC   D2A  786   6.977   4.102  21.188 -0.5531  0.2222 -0.1168
   66DOPC   C3A  787   6.604   4.220  21.020 -0.1234  0.0241 -0.1162
   66DOPC   C4A  788   6.455   4.476  20.636  0.0740 -0.2618 -0.0826
   66DOPC   C1B  789   6.345   4.104  21.741  0.1441 -0.2351 -0.0622
   66DOPC   D2B  790   6.083   4.075  21.299  0.3820 -0.1703 -0.1674
   66DOPC   C3B  791   6.091   4.225  20.856  0.1733  0.0894 -0.0841
   66DOPC   C4B  792   6.094   4.294  20.331 -0.0591 -0.1241  0.0404
   67DOPC   NC3  793  20.994   4.188  17.230  0.0714  0.0383  0.0631
   67DOPC   PO4  794  21.013   3.827  17.369  0.2116  0.2759 -0.2614
   67DOPC   GL1  795  21.224   3.514  17.254 -0.2610  0.0461 -0.2149
   67DOPC   GL2  796  21.098   3.484  17.006  0.0784 -0.0444 -0.2993
   67DOPC   C1A  797  21.630   3.461  17.006  0.2014 -0.1889 -0.3747
   67DOPC   D2A  798  21.959   3.438  16.702 -0.1284  0.0098  0.3180
   67DOPC   C3A  799  22.200   3.236  16.337  0.1576  0.0383  0.2902
   67DOPC   C4A  800  22.493   3.230  15.991  0.0227 -0.1851 -0.1610
   67DOPC   C1B  801  21.301   3.766  16.758  0.2383 -0.0756  0.1671
   67DOPC   D2B  802  21.594   3.927  16.361  0.4779  0.4302 -0.1380
   67DOPC   C3B  803  21.737   4.247  15.999 -0.2166 -0.0982  0.1805
   67DOPC   C4B  804  21.898   4.560  15.694  0.0252 -0.0701 -0.2405
   68DOPC   NC3  805  12.076   7.692  17.192  0.0746  0.2501  0.0899
   68DOPC   PO4  806  12.134   7.343  16.966 -0.1990  0.0641 -0.3780
   68DOPC   GL1  807  11.788   7.370  16.797 -0.0309 -0.1257 -0.0602
   68DOPC   GL2  808  11.654   7.564  17.023 -0.0532  0.0894 -0.1110
   68DOPC   C1A  809  11.520   7.100  16.602  0.3406 -0.0662 -0.0577
   68DOPC   D2A  810  11.205   6.744  16.369  0.2431  0.1847 -0.1661
   68DOPC   C3A  811  10.869   6.693  16.050  0.1705  0.0383  0.2318
   68DOPC   C4A  812  10.606   6.618  15.659  0.5129  0.2065 -0.1671
   68DOPC   C1B  813  11.336   7.871  17.052 -0.0059  0.1195  0.0876
   68DOPC   D2B  814  11.200   8.140  16.621 -0.1815 -0.1505  0.0735
   68DOPC   C3B  815  10.773   8.313  16.645  0.2337 -0.2220  0.1696
   68DOPC   C4B  816  10.353   8.582  16.552 -0.2211 -0.2216 -0.1201
   69DOPC   NC3  817   7.865   6.072  22.216 -0.1979 -0.3384 -0.2839
   69DOPC   PO4  818   7.916   5.829  21.955  0.0266  0.1192  0.1063
   69DOPC   GL1  819   8.101   5.975  21.480  0.3431  0.0892 -0.1058
   69DOPC   GL2  820   7.897   5.771  21.419  0.3648  0.0075  0.1768
   69DOPC   C1A  821   7.990   6.321  21.208  0.2142  0.2181  0.0189
   69DOPC   D2A  822   7.978   6.593  20.794  0.2850 -0.0679 -0.0981
   69DOPC   C3A  823   7.998   6.614  20.379 -0.1321 -0.1074 -0.2317
   69DOPC   C4A  824   7.760   6.872  20.041 -0.0254 -0.0723 -0.1198
   69DOPC   C1B  825   7.856   5.568  21.013  0.2056  0.0073 -0.2759
   69DOPC   D2B  826   7.705   5.097  20.788 -0.0312  0.1143 -0.0458
   69DOPC   C3B  827   7.541   4.793  20.419  0.0038  0.0446 -0.2650
   69DOPC   C4B  828   7.553   4.600  19.950 -0.2378  0.1311  0.0721
   70DOPC   NC3  829   9.733   4.153  20.758 -0.2392  0.0588 -0.0909
   70DOPC   PO4  830   9.709   4.502  20.522  0.2611 -0.0876  0.0747
   70DOPC   GL1  831   9.515   4.412  20.165 -0.1668  0.1013 -0.1679
   70DOPC   GL2  832   9.445   4.194  20.237 -0.1206 -0.0581 -0.1178
   70DOPC   C1A  833   9.248   4.593  19.885 -0.0656  0.4038  0.2127
   70DOPC   D2A  834   9.065   4.792  19.521  0.0683  0.1194 -0.1671
   70DOPC   C3A  835   9.116   4.669  19.038  0.2602 -0.0608 -0.2155
   70DOPC   C4A  836   8.920   4.537  18.591 -0.1676 -0.2859 -0.1662
   70DOPC   C1B  837   9.038   4.176  20.053  0.0735  0.3072 -0.0336
   70DOPC   D2B  838   8.770   4.347  19.664  0.2072 -0.1820  0.0059
   70DOPC   C3B  839   8.655   4.581  19.304 -0.3408 -0.1877 -0.3629
   70DOPC   C4B  840   8.336   4.842  18.981  0.1472 -0.0104  0.0832
   71DOPC   NC3  841   5.283   6.584  22.011  0.2209 -0.2370 -0.1566
   71DOPC   PO4  842   5.473   6.373  22.265  0.0678 -0.1466  0.1899
   71DOPC   GL1  843   5.503   6.033  21.964  0.2407 -0.1678  0.1337
   71DOPC   GL2  844   5.817   6.059  21.997  0.1534 -0.2092  0.0599
   71DOPC   C1A  845   5.169   5.964  21.623 -0.0059 -0.1557  0.0835
   71DOPC   D2A  846   4.719   5.862  21.254 -0.0365  0.0555  0.0196
   71DOPC   C3A  847   4.603   5.554  20.932 -0.2029  0.2140 -0.1268
   71DOPC   C4A  848   4.433   5.271  20.592  0.3246  0.0315  0.1245
   71DOPC   C1B  849   6.101   6.177  21.616  0.0799 -0.0382  0.6459
   71DOPC   D2B  850   6.416   6.397  21.287 -0.2136 -0.2452 -0.1956
   71DOPC   C3B  851   6.518   6.725  20.985 -0.0390 -0.0374  0.1165
   71DOPC   C4B  852   6.435   7.155  20.736 -0.0079 -0.3066 -0.0214
   72DOPC   NC3  853  18.834   1.698  15.677 -0.0278 -0.4277 -0.0457
   72DOPC   PO4  854  18.681   1.370  15.855  0.0934 -0.1683  0.0255
   72DOPC   GL1  855  18.971   1.156  15.916 -0.0054 -0.3726  0.1450
   72DOPC   GL2  856  19.065   1.080  15.636 -0.0281 -0.2744 -0.0327
   72DOPC   C1A  857  19.294   1.534  15.799  0.2891 -0.0409 -0.0952
   72DOPC   D2A  858  19.590   1.626  15.415 -0.0157 -0.0352 -0.1953
   72DOPC   C3A  859  19.878   1.571  15.013 -0.0547  0.0646  0.1439
   72DOPC   C4A  860  20.215   1.285  14.856 -0.0499 -0.1953 -0.2671
   72DOPC   C1B  861  19.409   0.699  15.595  0.2192  0.1165  0.1674
   72DOPC   D2B  862  19.455   0.250  15.375 -0.1306  0.0372  0.1339
   72DOPC   C3B  863  19.563  -0.056  15.049  0.0464 -0.1110 -0.3115
   72DOPC   C4B  864  19.526  -0.315  14.626 -0.2063  0.0985 -0.3223
   73DOPC   NC3  865  18.878   5.432  15.450  0.0715 -0.1004 -0.0559
   73DOPC   PO4  866  18.864   5.032  15.499 -0.2317 -0.2253 -0.0217
   73DOPC   GL1  867  18.981   5.052  15.072 -0.2052 -0.3296 -0.1690
   73DOPC   GL2  868  18.895   5.293  15.026  0.0415 -0.1086  0.2723
   73DOPC   C1A  869  19.245   4.894  14.716  0.0874 -0.0971  0.0024
   73DOPC   D2A  870  19.495   4.612  14.372 -0.0535 -0.0196 -0.0812
   73DOPC   C3A  871  19.956   4.820  14.175 -0.0569  0.0741 -0.1441
   73DOPC   C4A  872  20.042   5.216  13.983  0.2090  0.0997 -0.1200
   73DOPC   C1B  873  19.240   5.412  14.829 -0.1307 -0.0236  0.0750
   73DOPC   D2B  874  19.549   5.720  14.490 -0.1419 -0.1319  0.0527
   73DOPC   C3B  875  19.964   6.015  14.537  0.1140  0.2501  0.0114
   73DOPC   C4B  876  20.413   5.940  14.650 -0.1342 -0.2174 -0.1301
   74DOPC   NC3  877  19.151   7.260  16.058  0.0828  0.0104 -0.0860
   74DOPC   PO4  878  19.428   7.250  16.341  0.0590  0.0534 -0.0624
   74DOPC   GL1  879  19.864   7.271  16.200 -0.3237 -0.1142 -0.0714
   74DOPC   GL2  880  19.847   7.563  16.268  0.3609 -0.1373 -0.0167
   74DOPC   C1A  881  19.949   7.429  15.838  0.2141 -0.3247 -0.0158
   74DOPC   D2A  882  19.941   7.680  15.407  0.4002  0.0858  0.0214
   74DOPC   C3A  883  20.251   7.661  15.080  0.3736  0.1153  0.1570
   74DOPC   C4A  884  20.549   7.732  14.765  0.3074  0.0646  0.1589
   74DOPC   C1B  885  20.071   7.833  16.059 -0.1764  0.0818 -0.2094
   74DOPC   D2B  886  20.423   7.907  15.694  0.1343  0.2007 -0.0733
   74DOPC   C3B  887  20.647   7.756  15.354  0.1266 -0.0592 -0.1207
   74DOPC   C4B  888  20.988   7.739  15.034 -0.1878 -0.1450  0.1368
   75DOPC   NC3  889   3.651   7.076  22.682  0.2055  0.3229  0.1177
   75DOPC   PO4  890   3.778   6.768  22.456 -0.0340 -0.0921 -0.0141
   75DOPC   GL1  891   3.971   6.687  22.034 -0.1744  0.0225  0.1799
   75DOPC   GL2  892   3.663   6.593  21.990  0.1169 -0.4459 -0.0371
   75DOPC   C1A  893   4.019   6.782  21.602  0.2944 -0.1498 -0.1687
   75DOPC   D2A  894   3.767   7.088  21.249 -0.0576 -0.0642 -0.4348
   75DOPC   C3A  895   3.933   7.117  20.819 -0.3436  0.2005  0.3445
   75DOPC   C4A  896   4.165   6.988  20.395 -0.1834  0.2456  0.1618
   75DOPC   C1B  897   3.483   6.746  21.576 -0.0231  0.2193 -0.0497
   75DOPC   D2B  898   3.426   6.809  21.095  0.1680 -0.3172  0.0201
   75DOPC   C3B  899   3.297   6.732  20.629  0.4805  0.2251 -0.2616
   75DOPC   C4B  900   2.806   6.658  20.402 -0.1722  0.0567 -0.0550
   76DOPA   PO4  901  17.445   2.298  14.709  0.2178  0.1122 -0.0791
   76DOPA   GL1  902  17.514   2.143  14.280 -0.2305 -0.2921 -0.0506
   76DOPA   GL2  903  17.377   1.904  14.418 -0.1501 -0.0478 -0.0189
   76DOPA   C1A  904  17.537   2.167  13.890  0.3812 -0.0896  0.0438
   76DOPA   D2A  905  17.562   2.299  13.399  0.2416  0.1689 -0.0806
   76DOPA   C3A  906  17.896   2.303  13.077  0.3770  0.2258  0.0636
   76DOPA   C4A  907  18.348   2.312  13.221  0.0297  0.2819  0.0024
   76DOPA   C1B  908  17.170   1.796  14.072 -0.0657 -0.1016 -0.1032
   76DOPA   D2B  909  17.257   1.616  13.619  0.2567 -0.4369 -0.1308
   76DOPA   C3B  910  17.113   1.616  13.162  0.3404  0.3373 -0.1950
   76DOPA   C4B  911  16.891   1.578  12.747  0.0784 -0.1045  0.3092
   77DOPA   PO4  912  15.067   5.576  14.735 -0.3374 -0.0665 -0.0039
   77DOPA   GL1  913  14.983   5.723  14.327 -0.0518  0.2766  0.2514
   77DOPA   GL2  914  15.204   5.962  14.360 -0.0757  0.0013  0.1002
   77DOPA   C1A  915  14.610   5.741  14.086 -0.2010 -0.0977  0.2579
   77DOPA   D2A  916  14.256   5.855  13.856 -0.1354  0.1237  0.0608
   77DOPA   C3A  917  13.892   5.804  13.606  0.0249  0.0144 -0.0947
   77DOPA   C4A  918  13.506   5.719  13.359  0.2004 -0.1897  0.2751
   77DOPA   C1B  919  15.143   6.046  13.936 -0.3740  0.1224  0.0369
   77DOPA   D2B  920  15.032   6.150  13.476 -0.0269 -0.0425 -0.0525
   77DOPA   C3B  921  14.707   6.025  13.179  0.2054  0.1533 -0.2977
   77DOPA   C4B  922  14.267   5.925  12.982 -0.0723 -0.0165 -0.2103
   78DOPA   PO4  923  16.291   3.534  14.512 -0.1757  0.1970  0.0553
   78DOPA   GL1  924  16.501   3.611  14.172  0.1475  0.4009  0.0836
   78DOPA   GL2  925  16.450   3.855  14.043 -0.3879  0.0352 -0.1566
   78DOPA   C1A  926  16.456   3.306  13.808 -0.1935 -0.2108  0.0740
   78DOPA   D2A  927  16.452   3.179  13.323  0.2197 -0.0784  0.1938
   78DOPA   C3A  928  16.656   3.096  12.985 -0.0520 -0.1902  0.0185
   78DOPA   C4A  929  16.894   2.975  12.572  0.5575 -0.2502  0.0092
   78DOPA   C1B  930  16.256   3.920  13.703 -0.0996 -0.1458 -0.2843
   78DOPA   D2B  931  15.972   3.934  13.289  0.1011 -0.1734 -0.2569
   78DOPA   C3B  932  15.601   3.820  13.114  0.1487 -0.1040  0.0729
   78DOPA   C4B  933  15.276   3.657  12.805 -0.0067  0.0813 -0.3047
   79DOPA   PO4  934  18.114   6.596  15.567  0.0307 -0.3102  0.0397
   79DOPA   GL1  935  18.377   6.613  15.275 -0.0785  0.0182  0.2869
   79DOPA   GL2  936  18.531   6.370  15.261 -0.0293  0.0084  0.3091
   79DOPA   C1A  937  18.524   6.885  14.919 -0.1026  0.0435  0.2564
   79DOPA   D2A  938  18.794   7.170  14.576 -0.1158  0.2510 -0.0869
   79DOPA   C3A  939  19.086   7.500  14.454  0.1279 -0.1369 -0.0205
   79DOPA   C4A  940  19.395   7.726  14.171 -0.3072  0.1497 -0.2331
   79DOPA   C1B  941  18.932   6.386  15.157 -0.2755  0.2254 -0.2081
   79DOPA   D2B  942  19.342   6.448  14.953  0.0312 -0.1282  0.0404
   79DOPA   C3B  943  19.688   6.182  14.860 -0.0208 -0.1542 -0.1956
   79DOPA   C4B  944  20.107   6.065  15.046  0.0537 -0.2139  0.2852
   80DOPA   PO4  945   1.403   7.352  22.412 -0.2275 -0.2051 -0.2370
   80DOPA   GL1  946   1.550   7.279  22.016 -0.2330  0.0406  0.0459
   80DOPA   GL2  947   1.483   7.606  21.967  0.1708 -0.2457  0.1716
   80DOPA   C1A  948   1.507   7.191  21.635 -0.0291 -0.0984 -0.1460
   80DOPA   D2A  949   1.566   6.987  21.119 -0.2090  0.0531  0.1407
   80DOPA   C3A  950   1.419   7.147  20.742 -0.0201 -0.1423  0.0690
   80DOPA   C4A  951   1.579   7.389  20.353 -0.0209 -0.1741  0.1036
   80DOPA   C1B  952   1.174   7.672  21.677 -0.1370 -0.3500 -0.0239
   80DOPA   D2B  953   1.074   8.003  21.359  0.0583  0.1323 -0.2138
   80DOPA   C3B  954   0.950   7.741  20.919  0.2546 -0.1872 -0.2705
   80DOPA   C4B  955   0.625   7.423  20.601 -0.0682  0.2160  0.0376
   81DOPA   PO4  956  18.151   6.155  15.211 -0.0359  0.3025  0.0473
   81DOPA   GL1  957  18.331   6.043  14.899 -0.1391  0.2972 -0.3720
   81DOPA   GL2  958  18.613   6.100  14.952 -0.2307 -0.1328  0.0977
   81DOPA   C1A  959  18.322   5.974  14.493  0.4275 -0.0943 -0.1649
   81DOPA   D2A  960  18.412   5.939  13.932  0.1590 -0.1448 -0.1875
   81DOPA   C3A  961  18.438   5.632  13.588  0.1367 -0.1492 -0.3179
   81DOPA   C4A  962  18.373   5.528  13.146 -0.0638 -0.0606  0.0048
   81DOPA   C1B  963  18.767   6.316  14.565  0.0305  0.2659  0.2249
   81DOPA   D2B  964  18.909   6.516  14.092 -0.0242  0.3899  0.0667
   81DOPA   C3B  965  19.274   6.725  13.894  0.0544  0.0120  0.1409
   81DOPA   C4B  966  19.641   6.953  13.737  0.2532 -0.1417 -0.4068
   82DOPA   PO4  967  17.853   4.572  14.894  0.0759 -0.0363 -0.1439
   82DOPA   GL1  968  17.989   4.456  14.571  0.3373  0.0047  0.1390
   82DOPA   GL2  969  18.278   4.545  14.549  0.1077  0.0581 -0.1106
   82DOPA   C1A  970  17.899   4.724  14.262  0.2333 -0.2708  0.1595
   82DOPA   D2A  971  17.667   4.789  13.831  0.1169  0.0735  0.4329
   82DOPA   C3A  972  17.418   4.592  13.442 -0.3349  0.1954 -0.1551
   82DOPA   C4A  973  17.499   4.301  13.056  0.1307  0.0786  0.2250
   82DOPA   C1B  974  18.363   4.505  14.109  0.0466  0.4321  0.2135
   82DOPA   D2B  975  18.499   4.679  13.721  0.2142  0.1293  0.2917
   82DOPA   C3B  976  18.826   4.368  13.498 -0.4122 -0.4116  0.2701
   82DOPA   C4B  977  19.209   4.099  13.655 -0.1860 -0.1522  0.0583
   83DOPA   PO4  978   6.529   1.722  22.498 -0.0946 -0.3137  0.0637
   83DOPA   GL1  979   6.396   1.809  22.130 -0.3057 -0.2232  0.2070
   83DOPA   GL2  980   6.441   2.072  22.095 -0.2127 -0.1344 -0.3252
   83DOPA   C1A  981   6.088   1.593  21.925  0.1814  0.1167  0.0577
   83DOPA   D2A  982   5.750   1.662  21.581  0.2120 -0.0654 -0.0591
   83DOPA   C3A  983   5.570   1.483  21.208  0.1590  0.3981 -0.2471
   83DOPA   C4A  984   5.351   1.186  20.898 -0.1466  0.2589 -0.2161
   83DOPA   C1B  985   6.085   2.151  21.862  0.1222 -0.4308 -0.1782
   83DOPA   D2B  986   5.640   2.207  21.582 -0.1389  0.1562 -0.1139
   83DOPA   C3B  987   5.293   1.967  21.363 -0.1660  0.1096  0.1941
   83DOPA   C4B  988   5.071   1.520  21.249  0.0232 -0.1408  0.2085
   84DOPA   PO4  989  13.427   4.627  15.743 -0.0612 -0.0474 -0.1482
   84DOPA   GL1  990  13.170   4.582  15.336 -0.1399  0.0075 -0.0344
   84DOPA   GL2  991  13.172   4.901  15.334 -0.2419 -0.0159  0.1493
   84DOPA   C1A  992  12.758   4.586  15.261  0.0910  0.1179 -0.2340
   84DOPA   D2A  993  12.237   4.569  15.364 -0.0355 -0.1739 -0.0697
   84DOPA   C3A  994  12.433   4.298  15.590  0.0374 -0.1831  0.0144
   84DOPA   C4A  995  12.520   3.849  15.721 -0.0433  0.1065  0.2576
   84DOPA   C1B  996  12.961   5.087  14.969 -0.2173  0.5793 -0.0407
   84DOPA   D2B  997  12.885   5.194  14.519  0.0125 -0.1435  0.2949
   84DOPA   C3B  998  13.150   5.158  14.158 -0.2969 -0.2340  0.2270
   84DOPA   C4B  999  13.377   5.268  13.753  0.2151 -0.1508  0.0803
   85DOPA   PO4 1000   9.969   5.924  20.530  0.1057 -0.0252 -0.3003
   85DOPA   GL1 1001   9.694   5.774  20.253  0.1319  0.0270 -0.2139
   85DOPA   GL2 1002   9.452   5.643  20.391  0.1303  0.2829  0.0185
   85DOPA   C1A 1003   9.498   6.067  20.028 -0.0292 -0.2021 -0.3213
   85DOPA   D2A 1004   9.436   6.333  19.649 -0.0990 -0.3216 -0.2062
   85DOPA   C3A 1005   9.055   6.347  19.453  0.0175 -0.0107 -0.0539
   85DOPA   C4A 1006   8.627   6.306  19.200 -0.1752 -0.0576  0.3249
   85DOPA   C1B 1007   9.200   5.639  20.047 -0.2295  0.0288 -0.1539
   85DOPA   D2B 1008   9.282   5.780  19.608 -0.0338  0.1622  0.2166
   85DOPA   C3B 1009   8.894   5.881  19.300  0.1484  0.0116 -0.2096
   85DOPA   C4B 1010   8.550   5.861  18.941  0.0555 -0.1516  0.0156
   86DOPA   PO4 1011  18.233   4.174  14.922  0.2119  0.0819 -0.3547
   86DOPA   GL1 1012  18.122   4.075  14.479 -0.1819 -0.0170  0.1018
   86DOPA   GL2 1013  18.313   3.934  14.538  0.1724 -0.1670  0.2061
   86DOPA   C1A 1014  18.206   4.026  14.023  0.1314 -0.0843 -0.3403
   86DOPA   D2A 1015  18.283   4.066  13.504  0.0089  0.2198 -0.0187
   86DOPA   C3A 1016  18.599   4.124  13.130 -0.0469 -0.1621 -0.0441
   86DOPA   C4A 1017  19.004   4.326  12.865  0.3667  0.2112 -0.1978
   86DOPA   C1B 1018  18.705   3.729  14.398  0.0570  0.0726  0.1839
   86DOPA   D2B 1019  19.137   3.941  14.174 -0.3306  0.0507 -0.0769
   86DOPA   C3B 1020  19.458   3.725  13.905 -0.0426 -0.6621 -0.1528
   86DOPA   C4B 1021  19.842   3.842  13.669  0.3395 -0.0933 -0.0020
   87DOPA   PO4 1022  24.889   7.176  20.808  0.1645 -0.0330 -0.3703
   87DOPA   GL1 1023  25.217   7.242  20.511 -0.0587 -0.1864  0.2282
   87DOPA   GL2 1024  25.076   7.502  20.388  0.2865 -0.1723 -0.0708
   87DOPA   C1A 1025  25.347   6.957  20.196 -0.0541 -0.1111  0.0033
   87DOPA   D2A 1026  25.370   6.870  19.690  0.1219  0.0342  0.2846
   87DOPA   C3A 1027  25.657   6.543  19.487 -0.1123  0.0220  0.1683
   87DOPA   C4A 1028  26.132   6.538  19.404 -0.1621 -0.0752 -0.0440
   87DOPA   C1B 1029  25.348   7.784  20.190  0.2238  0.2714  0.3326
   87DOPA   D2B 1030  25.608   8.117  19.916  0.0910  0.1488  0.0512
   87DOPA   C3B 1031  25.902   8.357  20.184 -0.1668  0.1270 -0.0411
   87DOPA   C4B 1032  26.083   8.631  20.531 -0.0426 -0.0270 -0.0167
   88DOPA   PO4 1033   5.679   0.217  22.426  0.0507  0.0494 -0.0330
   88DOPA   GL1 1034   5.387   0.415  22.119 -0.1139 -0.1280 -0.3306
   88DOPA   GL2 1035   5.499   0.236  21.951 -0.1334  0.1017 -0.2069
   88DOPA   C1A 1036   5.048   0.550  21.794 -0.2992 -0.0770 -0.0815
   88DOPA   D2A 1037   4.700   0.783  21.558 -0.1191 -0.0673 -0.2033
   88DOPA   C3A 1038   4.565   0.633  21.123 -0.1841  0.0436  0.0157
   88DOPA   C4A 1039   4.695   0.330  20.771 -0.2609 -0.3306 -0.1326
   88DOPA   C1B 1040   5.488   0.279  21.519 -0.2037  0.1550 -0.3262
   88DOPA   D2B 1041   5.370   0.109  21.059  0.2133 -0.0065  0.1570
   88DOPA   C3B 1042   5.212  -0.209  21.306  0.0781  0.0042  0.0889
   88DOPA   C4B 1043   4.856  -0.389  21.611 -0.1421 -0.0231 -0.2087
   89DOPA   PO4 1044   2.427   3.979  22.374 -0.1311  0.0595  0.1794
   89DOPA   GL1 1045   2.394   3.934  21.924  0.2782 -0.0566  0.0764
   89DOPA   GL2 1046   2.186   4.088  21.943  0.2994  0.0726 -0.0954
   89DOPA   C1A 1047   2.568   3.695  21.636 -0.2597 -0.0455  0.0741
   89DOPA   D2A 1048   2.510   3.644  21.133  0.1976  0.0263 -0.0013
   89DOPA   C3A 1049   2.706   3.418  20.853 -0.0395  0.0740  0.2113
   89DOPA   C4A 1050   2.754   3.123  20.518 -0.2010 -0.1376 -0.2692
   89DOPA   C1B 1051   2.087   4.116  21.528 -0.2877  0.2018 -0.0549
   89DOPA   D2B 1052   2.350   4.122  21.057  0.1276 -0.2997 -0.2613
   89DOPA   C3B 1053   2.689   3.985  20.714  0.1657  0.2917 -0.0996
   89DOPA   C4B 1054   2.922   3.621  20.429 -0.0348  0.1398 -0.0174
   90DOPA   PO4 1055  20.809   3.310  17.298  0.1716  0.0459 -0.0818
   90DOPA   GL1 1056  20.689   3.016  17.091  0.1006 -0.2442 -0.1643
   90DOPA   GL2 1057  20.802   3.133  16.803 -0.0672  0.2854 -0.1186
   90DOPA   C1A 1058  21.136   2.875  16.953 -0.2244  0.1238  0.0065
   90DOPA   D2A 1059  21.550   2.678  16.793 -0.1596  0.3148  0.0430
   90DOPA   C3A 1060  21.915   2.821  16.472 -0.0780 -0.0849  0.0428
   90DOPA   C4A 1061  22.429   2.799  16.358 -0.0172  0.3735 -0.0345
   90DOPA   C1B 1062  21.181   3.261  16.662  0.1775 -0.2298 -0.0664
   90DOPA   D2B 1063  21.606   3.205  16.429 -0.0645  0.1576 -0.2455
   90DOPA   C3B 1064  21.791   2.987  16.043  0.4723  0.2986 -0.0533
   90DOPA   C4B 1065  22.007   3.299  15.679 -0.1935 -0.1336  0.1218
   91DOPA   PO4 1066  13.980   0.723  15.470 -0.1692  0.4048 -0.4593
   91DOPA   GL1 1067  14.000   0.697  15.043  0.0083 -0.0708 -0.1247
   91DOPA   GL2 1068  13.864   0.391  15.071 -0.1001  0.2213  0.0444
   91DOPA   C1A 1069  13.778   0.761  14.629  0.0068  0.0827 -0.0578
   91DOPA   D2A 1070  13.761   0.713  14.137  0.3467  0.0484 -0.2877
   91DOPA   C3A 1071  13.709   0.614  13.620  0.0434 -0.1708 -0.0312
   91DOPA   C4A 1072  13.626   0.388  13.200 -0.1998 -0.0685  0.2483
   91DOPA   C1B 1073  13.483   0.389  14.816  0.0163  0.0529 -0.1091
   91DOPA   D2B 1074  13.096   0.230  14.606  0.0616  0.0835 -0.0547
   91DOPA   C3B 1075  12.998   0.144  14.140 -0.2163  0.0745 -0.1639
   91DOPA   C4B 1076  12.932  -0.088  13.688  0.0767  0.1040  0.1677
   92DOPA   PO4 1077  15.126   6.614  14.800 -0.3325 -0.1786  0.4347
   92DOPA   GL1 1078  15.159   6.416  14.372 -0.2860 -0.2796 -0.1874
   92DOPA   GL2 1079  15.135   6.627  14.276  0.0986  0.0547  0.1226
   92DOPA   C1A 1080  14.731   6.310  14.254 -0.1431 -0.0210 -0.1420
   92DOPA   D2A 1081  14.618   6.177  13.830 -0.1696 -0.3046 -0.0564
   92DOPA   C3A 1082  14.270   6.118  13.438  0.0008 -0.3104 -0.0053
   92DOPA   C4A 1083  13.773   6.104  13.202 -0.0749 -0.0199 -0.1151
   92DOPA   C1B 1084  15.009   6.539  13.860 -0.0905  0.1137  0.1226
   92DOPA   D2B 1085  14.725   6.509  13.424 -0.2255 -0.0889 -0.0504
   92DOPA   C3B 1086  14.418   6.426  13.059 -0.1409  0.3625 -0.2167
   92DOPA   C4B 1087  14.108   6.240  12.667  0.0803 -0.4265 -0.0171
   93DOPA   PO4 1088  19.202   5.192  15.943 -0.0941  0.1972  0.0355
   93DOPA   GL1 1089  19.308   5.022  15.554  0.2789 -0.0812  0.1914
   93DOPA   GL2 1090  19.364   5.284  15.552  0.1431  0.1916  0.1133
   93DOPA   C1A 1091  19.459   4.885  15.170 -0.2044 -0.2386 -0.0984
   93DOPA   D2A 1092  19.473   4.482  14.844  0.3727 -0.2471 -0.0759
   93DOPA   C3A 1093  19.434   4.174  14.521  0.0979  0.0756  0.0714
   93DOPA   C4A 1094  19.681   4.184  14.078 -0.2250 -0.0020  0.0384
   93DOPA   C1B 1095  19.783   5.364  15.625 -0.2497  0.2479 -0.1033
   93DOPA   D2B 1096  20.153   5.604  15.804  0.1140 -0.3289 -0.1755
   93DOPA   C3B 1097  20.623   5.727  15.750 -0.1380 -0.0556 -0.0697
   93DOPA   C4B 1098  21.076   6.018  15.821 -0.1277  0.3192 -0.2486
   94DOPA   PO4 1099  21.704   0.687  18.406 -0.0753 -0.0519  0.1928
   94DOPA   GL1 1100  22.096   0.658  18.201  0.2354  0.3254 -0.0256
   94DOPA   GL2 1101  22.221   0.734  18.414  0.1997  0.1512 -0.0123
   94DOPA   C1A 1102  22.328   0.687  17.883  0.2907  0.0467  0.0915
   94DOPA   D2A 1103  22.328   0.590  17.361  0.2924  0.5602 -0.0415
   94DOPA   C3A 1104  22.755   0.436  17.183  0.1152 -0.0160  0.0241
   94DOPA   C4A 1105  23.194   0.196  17.128  0.0349  0.0685 -0.2003
   94DOPA   C1B 1106  22.527   0.508  18.299  0.2662  0.1144 -0.0223
   94DOPA   D2B 1107  22.781   0.152  18.047 -0.0100 -0.0726  0.0429
   94DOPA   C3B 1108  23.150   0.224  17.761 -0.0835  0.1730  0.1901
   94DOPA   C4B 1109  23.460  -0.070  17.539  0.0316  0.0894  0.1158
   95DOPA   PO4 1110  21.230   1.805  17.747  0.1899 -0.2960 -0.2925
   95DOPA   GL1 1111  21.241   1.631  17.398  0.5083 -0.0373  0.0386
   95DOPA   GL2 1112  21.113   1.334  17.497 -0.0718 -0.0120 -0.2408
   95DOPA   C1A 1113  21.566   1.328  17.387  0.1135  0.2328  0.1442
   95DOPA   D2A 1114  22.025   1.249  17.655  0.0817 -0.0386 -0.0498
   95DOPA   C3A 1115  22.488   1.166  17.664  0.1530  0.3938  0.0726
   95DOPA   C4A 1116  22.815   0.953  17.379  0.1352  0.2899  0.3461
   95DOPA   C1B 1117  21.174   1.043  17.169  0.2452 -0.2135 -0.1257
   95DOPA   D2B 1118  21.568   1.009  16.904 -0.2187  0.0196 -0.2283
   95DOPA   C3B 1119  21.558   0.598  16.644  0.3310 -0.4204  0.0637
   95DOPA   C4B 1120  21.598   0.271  16.401 -0.0909 -0.1717 -0.1919
   96DOPA   PO4 1121  10.192   6.601  19.956  0.3106 -0.3439  0.1215
   96DOPA   GL1 1122  10.166   6.481  19.501  0.0227  0.0642 -0.0015
   96DOPA   GL2 1123  10.342   6.812  19.526  0.4092 -0.0821  0.1636
   96DOPA   C1A 1124   9.803   6.446  19.294 -0.1322  0.0439  0.0135
   96DOPA   D2A 1125   9.473   6.295  19.008 -0.0698  0.1236  0.1751
   96DOPA   C3A 1126   9.046   6.227  18.941  0.0509 -0.0075 -0.0411
   96DOPA   C4A 1127   8.680   6.284  18.650 -0.0364  0.0217  0.2188
   96DOPA   C1B 1128  10.046   6.933  19.227 -0.1024 -0.1849 -0.4428
   96DOPA   D2B 1129   9.659   7.067  19.010  0.1517 -0.2530 -0.0864
   96DOPA   C3B 1130   9.204   7.090  18.889  0.1999  0.2925  0.3696
   96DOPA   C4B 1131   8.821   7.388  18.666  0.4191  0.1738 -0.1455
   97DOPA   PO4 1132  22.516   1.770  19.660 -0.2337  0.2210 -0.0637
   97DOPA   GL1 1133  22.690   1.721  19.254  0.1850 -0.0254 -0.1695
   97DOPA   GL2 1134  22.993   1.699  19.342 -0.1014 -0.0551  0.0468
   97DOPA   C1A 1135  22.846   1.929  18.837 -0.1344 -0.1328 -0.0615
   97DOPA   D2A 1136  23.034   1.874  18.369 -0.1772 -0.0836 -0.1763
   97DOPA   C3A 1137  23.040   1.664  18.024  0.1531 -0.3019  0.0850
   97DOPA   C4A 1138  22.842   1.512  17.640 -0.1301 -0.1647  0.0004
   97DOPA   C1B 1139  23.374   1.415  19.391 -0.0640 -0.0378 -0.4558
   97DOPA   D2B 1140  23.652   0.969  19.297  0.2833  0.2859 -0.0133
   97DOPA   C3B 1141  24.036   1.018  19.058 -0.0425  0.1868 -0.0762
   97DOPA   C4B 1142  24.431   1.108  18.727  0.0387 -0.0186  0.1428
   98DOPA   PO4 1143  21.768   1.579  19.084  0.0529  0.0230 -0.0326
   98DOPA   GL1 1144  22.064   1.468  18.773 -0.1989  0.0091 -0.0013
   98DOPA   GL2 1145  22.164   1.761  18.812 -0.1003 -0.1900 -0.0709
   98DOPA   C1A 1146  22.286   1.187  18.637  0.1036 -0.0313 -0.0113
   98DOPA   D2A 1147  22.648   0.956  18.495 -0.2444 -0.1313  0.2571
   98DOPA   C3A 1148  22.735   0.910  18.063  0.3463 -0.0133 -0.2606
   98DOPA   C4A 1149  22.787   0.536  17.675 -0.1149  0.3595  0.1254
   98DOPA   C1B 1150  22.502   1.823  18.505  0.1600  0.2126 -0.1017
   98DOPA   D2B 1151  22.623   1.925  18.044  0.1040 -0.0273 -0.1056
   98DOPA   C3B 1152  22.944   2.132  17.911  0.2132 -0.0380 -0.0135
   98DOPA   C4B 1153  23.151   2.380  17.559  0.2239  0.1435  0.1400
   99DOPA   PO4 1154   0.389   0.967  21.356 -0.2688  0.1547 -0.0539
   99DOPA   GL1 1155   0.668   0.843  21.086 -0.1419 -0.3811  0.0582
   99DOPA   GL2 1156   0.715   1.085  20.973 -0.1902 -0.2953 -0.2804
   99DOPA   C1A 1157   0.692   0.545  20.800 -0.0910  0.0602  0.2626
   99DOPA   D2A 1158   0.640   0.154  20.574 -0.0674  0.0139 -0.0298
   99DOPA   C3A 1159   0.908  -0.022  20.205 -0.0690  0.0412 -0.3064
   99DOPA   C4A 1160   0.599  -0.441  19.998  0.1028 -0.2700 -0.0720
   99DOPA   C1B 1161   0.940   1.299  20.727 -0.1657 -0.1874 -0.3617
   99DOPA   D2B 1162   1.412   1.224  20.450  0.1549  0.6380 -0.1953
   99DOPA   C3B 1163   1.874   1.319  20.579  0.0086  0.1549  0.2608
   99DOPA   C4B 1164   2.414   1.420  20.680  0.0213 -0.0055 -0.0256
  100DOPA   PO4 1165  19.573   3.936  15.889  0.0666 -0.2515  0.0744
  100DOPA   GL1 1166  19.837   4.191  15.656 -0.2506  0.1521 -0.1086
  100DOPA   GL2 1167  20.077   4.191  15.896  0.2670 -0.2108 -0.1827
  100DOPA   C1A 1168  20.031   4.113  15.259  0.4266  0.1558  0.1604
  100DOPA   D2A 1169  20.208   4.303  14.902 -0.1389 -0.3343 -0.0270
  100DOPA   C3A 1170  20.596   4.437  14.775 -0.2748 -0.1497 -0.3837
  100DOPA   C4A 1171  20.942   4.512  14.524 -0.0554  0.0437 -0.3179
  100DOPA   C1B 1172  20.433   4.078  15.580 -0.3853  0.3180  0.0285
  100DOPA   D2B 1173  20.735   4.034  15.097 -0.2498  0.2942  0.3618
  100DOPA   C3B 1174  20.859   3.896  14.674 -0.0419 -0.1643  0.2866
  100DOPA   C4B 1175  20.973   3.609  14.339 -0.0690  0.1606  0.1439
  101DOPC   NC3 1176  10.801   2.754  12.213  0.1625 -0.1037 -0.0008
  101DOPC   PO4 1177  11.141   2.975  12.164 -0.0990  0.0471 -0.1542
  101DOPC   GL1 1178  11.557   3.006  12.440 -0.2044 -0.3959  0.1356
  101DOPC   GL2 1179  11.402   3.314  12.456 -0.2676 -0.0337  0.0259
  101DOPC   C1A 1180  11.816   2.956  12.760 -0.1530 -0.1032 -0.1018
  101DOPC   D2A 1181  12.163   3.084  13.209 -0.0864  0.1974 -0.1353
  101DOPC   C3A 1182  12.569   3.083  13.402  0.0437  0.0185 -0.1310
  101DOPC   C4A 1183  13.040   3.017  13.608  0.0121  0.1570 -0.2288
  101DOPC   C1B 1184  11.573   3.672  12.666 -0.1555 -0.0031  0.1430
  101DOPC   D2B 1185  11.503   4.143  12.617 -0.1776 -0.3104 -0.0058
  101DOPC   C3B 1186  11.818   4.418  12.947  0.2967 -0.0436  0.0636
  101DOPC   C4B 1187  12.198   4.559  13.221 -0.2531 -0.1429  0.2422
  102DOPC   NC3 1188  21.683   5.900  12.855  0.4233  0.3045  0.0498
  102DOPC   PO4 1189  21.548   6.268  12.882  0.3073  0.0291 -0.0226
  102DOPC   GL1 1190  21.326   6.250  13.169  0.2819 -0.2278 -0.1692
  102DOPC   GL2 1191  21.525   6.005  13.300 -0.0945 -0.1901  0.2590
  102DOPC   C1A 1192  20.938   6.089  13.357  0.0938 -0.1187  0.2771
  102DOPC   D2A 1193  20.503   5.792  13.395 -0.1076 -0.0720 -0.1565
  102DOPC   C3A 1194  20.166   5.725  13.768 -0.0263 -0.4741  0.0332
  102DOPC   C4A 1195  20.197   5.638  14.226  0.0686 -0.1175 -0.0089
  102DOPC   C1B 1196  21.247   5.964  13.677  0.0195  0.3563  0.2625
  102DOPC   D2B 1197  21.030   5.888  14.112 -0.0319  0.4543  0.0704
  102DOPC   C3B 1198  20.724   5.658  14.382 -0.4248  0.0176  0.1110
  102DOPC   C4B 1199  20.570   5.322  14.709 -0.1183 -0.1410  0.0496
  103DOPC   NC3 1200  21.008   4.498  12.345 -0.0992 -0.4334 -0.2027
  103DOPC   PO4 1201  21.212   4.156  12.276  0.0400 -0.0885 -0.1357
  103DOPC   GL1 1202  21.062   3.752  12.368  0.0662 -0.6420 -0.0710
  103DOPC   GL2 1203  21.154   3.930  12.611 -0.0848 -0.3050 -0.0445
  103DOPC   C1A 1204  20.748   3.629  12.640 -0.0006  0.0937  0.1790
  103DOPC   D2A 1205  20.437   3.305  12.849  0.1124  0.1415  0.1252
  103DOPC   C3A 1206  20.204   3.462  13.261  0.0584 -0.1047 -0.1904
  103DOPC   C4A 1207  20.241   3.482  13.796 -0.1260  0.3500 -0.0231
  103DOPC   C1B 1208  20.933   3.994  12.953  0.0727 -0.0847 -0.0474
  103DOPC   D2B 1209  20.863   3.943  13.473 -0.1290 -0.0087  0.3276
  103DOPC   C3B 1210  20.414   3.931  13.510 -0.2239 -0.1231 -0.1771
  103DOPC   C4B 1211  19.994   3.976  13.246 -0.1735  0.3153  0.2475
  104DOPC   NC3 1212   6.501   5.672  17.171  0.1966  0.3100 -0.2521
  104DOPC   PO4 1213   6.687   5.851  17.459  0.1894 -0.0284 -0.0015
  104DOPC   GL1 1214   7.043   6.022  17.624 -0.0159  0.2639 -0.1813
  104DOPC   GL2 1215   7.223   6.181  17.533 -0.1673  0.0647  0.2600
  104DOPC   C1A 1216   7.200   6.049  18.024 -0.1533 -0.0796 -0.1772
  104DOPC   D2A 1217   7.632   6.082  18.337  0.0914 -0.2424 -0.0137
  104DOPC   C3A 1218   8.061   6.020  18.251  0.3572 -0.2111 -0.2112
  104DOPC   C4A 1219   8.553   5.933  18.268 -0.0968  0.0862  0.1189
  104DOPC   C1B 1220   7.596   6.047  17.685  0.1673  0.0764 -0.2379
  104DOPC   D2B 1221   7.765   5.730  18.030 -0.2371  0.2768  0.1019
  104DOPC   C3B 1222   8.152   5.508  18.190 -0.0245 -0.0890  0.3019
  104DOPC   C4B 1223   8.604   5.395  18.404 -0.2197 -0.0029  0.0433
  105DOPC   NC3 1224  13.112   5.376  11.351  0.1518  0.0363 -0.0214
  105DOPC   PO4 1225  13.220   5.536  11.019 -0.1835  0.0313 -0.0361
  105DOPC   GL1 1226  13.654   5.611  11.186 -0.1109  0.1391  0.0548
  105DOPC   GL2 1227  13.449   5.685  11.440 -0.0258  0.0817  0.2394
  105DOPC   C1A 1228  14.022   5.887  11.314 -0.1165  0.3134 -0.2570
  105DOPC   D2A 1229  14.430   5.770  11.505  0.0989  0.0266 -0.0444
  105DOPC   C3A 1230  14.231   5.989  11.793  0.1901 -0.1475 -0.1987
  105DOPC   C4A 1231  14.012   6.363  12.052 -0.5325  0.1347  0.1028
  105DOPC   C1B 1232  13.360   5.493  11.823 -0.2690 -0.0986  0.0815
  105DOPC   D2B 1233  13.448   5.617  12.315 -0.0054 -0.0375 -0.1106
  105DOPC   C3B 1234  13.607   5.263  12.526 -0.0218 -0.2609 -0.3293
  105DOPC   C4B 1235  13.687   4.830  12.751 -0.1278 -0.0630  0.0576
  106DOPC   NC3 1236   6.704   1.073  17.804 -0.2559 -0.0148  0.3213
  106DOPC   PO4 1237   6.432   1.130  18.022 -0.1213  0.0348 -0.2304
  106DOPC   GL1 1238   6.698   1.091  18.393  0.1460 -0.1097 -0.3258
  106DOPC   GL2 1239   6.977   1.025  18.196 -0.1189  0.0995 -0.0879
  106DOPC   C1A 1240   6.762   1.000  18.833  0.2837  0.1806 -0.3030
  106DOPC   D2A 1241   6.778   0.980  19.345 -0.2504  0.0219  0.1877
  106DOPC   C3A 1242   6.804   1.145  19.756 -0.1012  0.0741  0.4691
  106DOPC   C4A 1243   6.612   1.161  20.207  0.2202  0.1165 -0.2975
  106DOPC   C1B 1244   7.147   1.095  18.573  0.2937  0.2477  0.1291
  106DOPC   D2B 1245   7.187   1.124  19.097  0.0444 -0.0693 -0.3684
  106DOPC   C3B 1246   7.492   0.968  19.416  0.2247  0.1493 -0.0481
  106DOPC   C4B 1247   7.864   0.982  19.700  0.0213  0.0744 -0.3171
  107DOPC   NC3 1248  19.752   7.395  11.080 -0.0681  0.0675 -0.1698
  107DOPC   PO4 1249  19.623   7.714  11.325  0.3162 -0.2913 -0.0450
  107DOPC   GL1 1250  19.702   7.677  11.751 -0.0375  0.2369 -0.3131
  107DOPC   GL2 1251  19.849   7.917  11.753  0.1674 -0.0540 -0.0926
  107DOPC   C1A 1252  19.559   7.691  12.113 -0.0072  0.2590  0.0744
  107DOPC   D2A 1253  19.491   7.612  12.601  0.4899  0.0688  0.1549
  107DOPC   C3A 1254  19.165   7.660  12.913 -0.2468  0.0278  0.1290
  107DOPC   C4A 1255  18.855   7.625  13.307 -0.3001  0.3682  0.0291
  107DOPC   C1B 1256  19.874   8.334  11.930  0.1802  0.1319  0.0517
  107DOPC   D2B 1257  19.827   8.734  12.301  0.2183 -0.1943  0.2071
  107DOPC   C3B 1258  19.708   8.538  12.764  0.0368 -0.1416  0.4133
  107DOPC   C4B 1259  19.616   8.648  13.178 -0.0116  0.0112 -0.2765
  108DOPC   NC3 1260  20.390   4.407  11.263 -0.2286  0.2863 -0.3534
  108DOPC   PO4 1261  20.082   4.335  11.095 -0.1290  0.2923  0.0547
  108DOPC   GL1 1262  19.928   4.328  11.502  0.1255 -0.1018 -0.4223
  108DOPC   GL2 1263  20.057   4.591  11.540  0.0666  0.2779 -0.1347
  108DOPC   C1A 1264  19.512   4.282  11.587  0.1638 -0.0991 -0.0875
  108DOPC   D2A 1265  19.155   4.106  11.301 -0.0374  0.1652  0.0068
  108DOPC   C3A 1266  18.703   3.870  11.266  0.1926  0.1081 -0.1604
  108DOPC   C4A 1267  18.612   3.529  11.644 -0.0647  0.0023  0.0591
  108DOPC   C1B 1268  19.649   4.815  11.679 -0.1767 -0.0181 -0.1371
  108DOPC   D2B 1269  19.253   4.748  12.004  0.4348  0.0413  0.2818
  108DOPC   C3B 1270  19.149   4.695  12.429  0.1516 -0.5070  0.0605
  108DOPC   C4B 1271  18.983   4.856  12.845 -0.2566 -0.1247  0.0699
  109DOPC   NC3 1272   6.530   0.194  17.742  0.2732 -0.0301  0.0595
  109DOPC   PO4 1273   6.856   0.361  17.663  0.1082 -0.1194 -0.1965
  109DOPC   GL1 1274   7.034   0.371  17.961 -0.1909 -0.3112 -0.2171
  109DOPC   GL2 1275   7.208   0.562  18.010 -0.1780  0.4570  0.2943
  109DOPC   C1A 1276   7.248   0.087  18.120  0.0918 -0.3637 -0.1874
  109DOPC   D2A 1277   7.681  -0.154  18.222  0.1748 -0.2664  0.0660
  109DOPC   C3A 1278   8.056  -0.144  18.507 -0.0520  0.0962  0.0606
  109DOPC   C4A 1279   8.391  -0.155  18.868 -0.0900 -0.2724 -0.1553
  109DOPC   C1B 1280   7.642   0.432  18.071 -0.1381  0.1350 -0.0743
  109DOPC   D2B 1281   8.105   0.492  18.182  0.0790 -0.2473 -0.1448
  109DOPC   C3B 1282   8.513   0.497  17.987 -0.1085 -0.3319  0.0097
  109DOPC   C4B 1283   8.986   0.400  17.835  0.3600 -0.0612  0.0274
  110DOPC   NC3 1284  16.532   0.849  10.381 -0.1552 -0.3226 -0.2208
  110DOPC   PO4 1285  16.385   0.498  10.451  0.0006 -0.0824  0.2979
  110DOPC   GL1 1286  16.008   0.479  10.644 -0.0133  0.0979 -0.0088
  110DOPC   GL2 1287  16.163   0.489  10.833  0.1362 -0.0807 -0.2047
  110DOPC   C1A 1288  15.693   0.592  10.880 -0.0556 -0.0683 -0.0291
  110DOPC   D2A 1289  15.616   0.795  11.219 -0.1127  0.2718 -0.0518
  110DOPC   C3A 1290  15.815   1.174  11.495 -0.1118  0.3233 -0.2593
  110DOPC   C4A 1291  15.973   1.616  11.497 -0.1415 -0.1868 -0.1654
  110DOPC   C1B 1292  16.134   0.770  11.239  0.1826 -0.3170  0.0778
  110DOPC   D2B 1293  16.310   0.870  11.748 -0.0702  0.1756  0.1405
  110DOPC   C3B 1294  16.228   0.726  12.248  0.0850  0.1466 -0.1996
  110DOPC   C4B 1295  16.004   0.709  12.645  0.1057  0.0428  0.2283
  111DOPC   NC3 1296   6.168   5.334  18.528 -0.1104  0.0362 -0.0449
  111DOPC   PO4 1297   5.805   5.258  18.284 -0.1558  0.4407  0.0526
  111DOPC   GL1 1298   5.424   5.355  18.541 -0.0130  0.1607  0.1253
  111DOPC   GL2 1299   5.453   5.647  18.526 -0.0975  0.1459 -0.0149
  111DOPC   C1A 1300   5.404   5.181  18.958 -0.5581  0.2711  0.2403
  111DOPC   D2A 1301   5.305   4.983  19.410  0.2053  0.3447 -0.0071
  111DOPC   C3A 1302   5.662   4.865  19.729 -0.0587 -0.1081  0.0320
  111DOPC   C4A 1303   6.079   4.841  20.048  0.2435  0.0812  0.2631
  111DOPC   C1B 1304   5.198   5.604  18.901 -0.2509 -0.1428  0.0726
  111DOPC   D2B 1305   5.263   5.537  19.415  0.0483  0.2667  0.0301
  111DOPC   C3B 1306   4.944   5.475  19.757  0.1267 -0.0921 -0.2579
  111DOPC   C4B 1307   4.778   5.353  20.218  0.1129 -0.1814 -0.0502
  112DOPC   NC3 1308  13.219   2.637  10.672  0.2841 -0.1311 -0.0631
  112DOPC   PO4 1309  13.336   2.967  10.466 -0.0263 -0.0935  0.1863
  112DOPC   GL1 1310  13.391   3.011  10.960 -0.0534  0.0979  0.1320
  112DOPC   GL2 1311  13.295   3.243  10.833  0.2722 -0.1098  0.1152
  112DOPC   C1A 1312  13.708   3.118  11.221 -0.1103  0.1809  0.0740
  112DOPC   D2A 1313  13.879   3.472  11.501 -0.1735  0.0967 -0.1412
  112DOPC   C3A 1314  13.870   3.911  11.520  0.1273 -0.0338  0.3032
  112DOPC   C4A 1315  14.147   4.276  11.354  0.1299  0.0095 -0.0464
  112DOPC   C1B 1316  13.277   3.401  11.253  0.0551  0.0216 -0.0854
  112DOPC   D2B 1317  13.290   3.441  11.713 -0.2208 -0.1870 -0.0060
  112DOPC   C3B 1318  13.670   3.730  11.919  0.1688 -0.2582  0.0008
  112DOPC   C4B 1319  14.178   3.844  11.908 -0.1473 -0.0975 -0.2193
  113DOPC   NC3 1320   0.335   7.317  15.963  0.0522 -0.1056  0.0102
  113DOPC   PO4 1321   0.663   7.539  15.995  0.3424 -0.1200 -0.1515
  113DOPC   GL1 1322   0.587   7.674  16.447 -0.3313  0.0531  0.3057
  113DOPC   GL2 1323   0.354   7.475  16.425 -0.2190 -0.0894 -0.0075
  113DOPC   C1A 1324   0.551   7.767  16.930  0.1329 -0.0465 -0.0313
  113DOPC   D2A 1325   0.305   7.980  17.323  0.4178  0.2052  0.1041
  113DOPC   C3A 1326   0.138   8.417  17.357  0.1434 -0.0236 -0.2014
  113DOPC   C4A 1327   0.075   8.881  17.221  0.2305 -0.1095  0.0056
  113DOPC   C1B 1328  -0.030   7.495  16.477 -0.0371 -0.0865  0.2216
  113DOPC   D2B 1329  -0.429   7.604  16.730 -0.0438 -0.2236 -0.0764
  113DOPC   C3B 1330  -0.634   7.800  17.102  0.3140  0.1531 -0.1402
  113DOPC   C4B 1331  -0.614   8.066  17.553 -0.0081  0.0633  0.4068
  114DOPC   NC3 1332  14.332   1.752  10.320 -0.4311  0.1338  0.0741
  114DOPC   PO4 1333  14.392   2.110  10.361  0.0628  0.0761  0.2325
  114DOPC   GL1 1334  14.309   2.065  10.767 -0.4431 -0.0462  0.1873
  114DOPC   GL2 1335  14.161   1.795  10.738  0.0142  0.4597  0.3439
  114DOPC   C1A 1336  14.333   2.378  11.095  0.1979  0.0137 -0.0393
  114DOPC   D2A 1337  14.110   2.528  11.486  0.0160 -0.2997  0.4637
  114DOPC   C3A 1338  14.234   2.364  11.870  0.1866  0.0329  0.0830
  114DOPC   C4A 1339  14.308   1.890  12.097 -0.0791 -0.2550  0.2435
  114DOPC   C1B 1340  14.087   1.650  11.153  0.1195  0.3128 -0.0453
  114DOPC   D2B 1341  14.187   1.481  11.609 -0.0344 -0.0936 -0.0592
  114DOPC   C3B 1342  14.368   1.187  11.914  0.3276 -0.1128 -0.3252
  114DOPC   C4B 1343  14.674   1.444  12.182  0.0151  0.0866 -0.0132
  115DOPC   NC3 1344   7.301   2.137  17.223 -0.1668 -0.1441 -0.2153
  115DOPC   PO4 1345   7.134   1.823  17.413  0.0700 -0.1269 -0.0525
  115DOPC   GL1 1346   7.389   1.848  17.654 -0.1648  0.0129  0.2868
  115DOPC   GL2 1347   7.456   2.095  17.726 -0.0162 -0.0742 -0.1210
  115DOPC   C1A 1348   7.422   1.769  18.066  0.0513  0.3424  0.0443
  115DOPC   D2A 1349   7.492   1.469  18.418  0.1873  0.2560  0.0030
  115DOPC   C3A 1350   7.656   1.197  18.740 -0.0580 -0.1436  0.3053
  115DOPC   C4A 1351   7.511   0.789  18.951 -0.0600  0.3536  0.3911
  115DOPC   C1B 1352   7.907   2.110  17.744  0.1376 -0.1828 -0.0613
  115DOPC   D2B 1353   8.356   2.048  17.942  0.0334 -0.0240  0.2578
  115DOPC   C3B 1354   8.542   2.118  18.332 -0.1943 -0.2385 -0.3122
  115DOPC   C4B 1355   8.771   1.990  18.779 -0.4916 -0.2127 -0.0144
  116DOPC   NC3 1356  21.878   1.373  12.631 -0.2207  0.2823 -0.0732
  116DOPC   PO4 1357  21.993   1.304  12.984  0.1846  0.2287 -0.1933
  116DOPC   GL1 1358  21.788   1.109  13.438 -0.2737  0.3443 -0.0751
  116DOPC   GL2 1359  21.555   1.142  13.257  0.0617  0.2396  0.3532
  116DOPC   C1A 1360  21.655   1.038  13.826 -0.0454  0.0273 -0.1677
  116DOPC   D2A 1361  21.314   1.090  14.167 -0.0769  0.2656  0.1625
  116DOPC   C3A 1362  21.257   1.228  14.603  0.0058  0.1001  0.2722
  116DOPC   C4A 1363  21.104   1.252  15.089 -0.1518  0.0936  0.0934
  116DOPC   C1B 1364  21.139   1.284  13.375  0.2284 -0.0803 -0.3055
  116DOPC   D2B 1365  20.666   1.437  13.426  0.0275 -0.0012  0.3635
  116DOPC   C3B 1366  20.351   1.351  13.741 -0.2272  0.0382  0.1161
  116DOPC   C4B 1367  20.238   1.190  14.223 -0.0233  0.2059  0.3841
  117DOPC   NC3 1368   3.974   3.955  19.062  0.0613  0.1260  0.0681
  117DOPC   PO4 1369   3.847   3.711  18.770 -0.0732 -0.0953 -0.2471
  117DOPC   GL1 1370   3.381   3.479  18.867 -0.2205 -0.0694 -0.0864
  117DOPC   GL2 1371   3.672   3.435  19.082  0.0270 -0.2845  0.1685
  117DOPC   C1A 1372   3.031   3.656  19.139  0.2978  0.0203 -0.1187
  117DOPC   D2A 1373   2.656   3.716  19.474  0.2929 -0.2278 -0.0595
  117DOPC   C3A 1374   2.292   3.832  19.713  0.2653  0.0625  0.0131
  117DOPC   C4A 1375   1.919   4.077  19.912  0.0291 -0.2350  0.2348
  117DOPC   C1B 1376   3.395   3.384  19.364 -0.0862 -0.0292  0.3810
  117DOPC   D2B 1377   3.235   3.030  19.761 -0.0928  0.1267  0.1957
  117DOPC   C3B 1378   2.810   3.067  19.984  0.0925 -0.2762 -0.1111
  117DOPC   C4B 1379   2.516   3.427  20.123 -0.0067 -0.1324  0.0397
  118DOPC   NC3 1380   8.999   5.105  14.546  0.0266  0.2154  0.0373
  118DOPC   PO4 1381   9.004   5.518  14.667  0.0422  0.2158  0.0175
  118DOPC   GL1 1382   9.269   5.683  15.005 -0.1720  0.3904 -0.0049
  118DOPC   GL2 1383   9.537   5.634  14.775  0.1277  0.2003  0.0420
  118DOPC   C1A 1384   9.317   5.577  15.450  0.1092 -0.0825  0.2424
  118DOPC   D2A 1385   9.167   5.755  15.949 -0.3357  0.3720 -0.0162
  118DOPC   C3A 1386   9.217   5.541  16.367  0.0624 -0.2468 -0.1392
  118DOPC   C4A 1387   9.674   5.350  16.552 -0.1115  0.1784  0.0166
  118DOPC   C1B 1388   9.889   5.513  14.696  0.1512  0.0837 -0.0905
  118DOPC   D2B 1389  10.444   5.452  14.684  0.0507  0.0751  0.1891
  118DOPC   C3B 1390  10.534   5.807  14.925 -0.1283 -0.1971 -0.0578
  118DOPC   C4B 1391  10.407   6.294  15.121  0.3844 -0.1847  0.1445
  119DOPC   NC3 1392   0.311   0.306  16.008  0.1622 -0.0890  0.2508
  119DOPC   PO4 1393   0.514   0.613  16.151  0.1623 -0.1658 -0.0551
  119DOPC   GL1 1394   0.287   0.816  16.366  0.4221 -0.1987 -0.1581
  119DOPC   GL2 1395   0.406   1.076  16.427  0.1079  0.0761  0.0305
  119DOPC   C1A 1396  -0.103   0.786  16.526 -0.1129  0.4323  0.0291
  119DOPC   D2A 1397  -0.436   0.496  16.696  0.1319  0.1806 -0.0978
  119DOPC   C3A 1398  -0.803   0.477  16.968  0.1916  0.1423  0.3076
  119DOPC   C4A 1399  -1.154   0.376  17.386  0.2306  0.0942 -0.3481
  119DOPC   C1B 1400   0.233   1.328  16.755  0.0050  0.0112  0.0681
  119DOPC   D2B 1401  -0.136   1.675  16.924 -0.0947 -0.0474 -0.0089
  119DOPC   C3B 1402  -0.481   1.830  17.213  0.0934  0.0637 -0.0521
  119DOPC   C4B 1403  -0.835   2.073  17.439  0.0739 -0.0286  0.0528
  120DOPC   NC3 1404   8.048   2.620  16.023  0.3457  0.4406 -0.0708
  120DOPC   PO4 1405   8.357   2.494  15.828 -0.2097 -0.2531 -0.0217
  120DOPC   GL1 1406   8.652   2.589  16.024  0.1955  0.3405  0.3841
  120DOPC   GL2 1407   8.453   2.771  16.166 -0.2049 -0.2277 -0.1429
  120DOPC   C1A 1408   9.012   2.335  16.149  0.1333 -0.1051  0.1391
  120DOPC   D2A 1409   9.345   2.314  16.522  0.0535 -0.2086  0.1803
  120DOPC   C3A 1410   9.569   2.664  16.676  0.1154 -0.1043 -0.1164
  120DOPC   C4A 1411   9.601   3.041  16.956  0.2142  0.1147  0.2031
  120DOPC   C1B 1412   8.781   2.654  16.474 -0.1985  0.1100 -0.2445
  120DOPC   D2B 1413   9.078   2.698  16.787  0.3014 -0.1195 -0.0178
  120DOPC   C3B 1414   9.303   2.406  17.077  0.1496 -0.1645  0.0101
  120DOPC   C4B 1415   9.634   2.033  17.139  0.0874  0.1928  0.1062
  121DOPC   NC3 1416  16.541   3.778  10.478 -0.0826 -0.1783  0.0298
  121DOPC   PO4 1417  16.322   4.082  10.643  0.1985 -0.0825  0.4049
  121DOPC   GL1 1418  16.161   4.049  10.985 -0.1652 -0.2602 -0.5368
  121DOPC   GL2 1419  15.998   4.313  11.049  0.2454 -0.4665  0.0010
  121DOPC   C1A 1420  16.191   3.762  11.313 -0.1121  0.1123 -0.1354
  121DOPC   D2A 1421  16.599   4.028  11.530  0.1572  0.1151  0.0842
  121DOPC   C3A 1422  16.498   4.385  11.822 -0.1235 -0.0914  0.0776
  121DOPC   C4A 1423  16.384   4.652  12.197  0.1331  0.0730  0.1028
  121DOPC   C1B 1424  15.718   4.410  11.400  0.0957 -0.0613 -0.0909
  121DOPC   D2B 1425  15.422   4.470  11.841  0.0237  0.1681 -0.2162
  121DOPC   C3B 1426  15.034   4.729  11.850 -0.0834  0.1727  0.0013
  121DOPC   C4B 1427  14.631   4.986  11.757  0.3566  0.2017  0.0124
  122DOPC   NC3 1428  15.797   4.583  10.495  0.0025  0.6571 -0.2150
  122DOPC   PO4 1429  15.434   4.394  10.388 -0.1588 -0.1608 -0.1040
  122DOPC   GL1 1430  15.465   4.276  10.820  0.1085  0.0637  0.1571
  122DOPC   GL2 1431  15.561   4.535  10.912 -0.2207  0.0247 -0.1278
  122DOPC   C1A 1432  15.251   4.088  11.183 -0.0109 -0.0112  0.0735
  122DOPC   D2A 1433  15.209   3.918  11.612 -0.0752 -0.1713 -0.3229
  122DOPC   C3A 1434  15.192   3.750  12.070 -0.0750 -0.0617 -0.0006
  122DOPC   C4A 1435  14.887   3.912  12.407  0.0777 -0.0442  0.0165
  122DOPC   C1B 1436  15.196   4.706  11.032 -0.1497  0.1754 -0.1496
  122DOPC   D2B 1437  15.062   5.120  11.284 -0.1697  0.0847  0.0214
  122DOPC   C3B 1438  15.334   5.382  11.564  0.2242 -0.0109  0.3386
  122DOPC   C4B 1439  15.629   5.569  11.896 -0.1099  0.2035  0.0674
  123DOPC   NC3 1440   5.127   6.594  18.345 -0.0467 -0.0856 -0.0871
  123DOPC   PO4 1441   4.881   6.312  18.521  0.1941  0.1358 -0.1272
  123DOPC   GL1 1442   5.180   6.222  18.883 -0.0016  0.0505 -0.4059
  123DOPC   GL2 1443   5.110   6.015  18.865 -0.0222  0.1485  0.0579
  123DOPC   C1A 1444   5.286   6.468  19.316  0.1631 -0.1738  0.1068
  123DOPC   D2A 1445   5.687   6.636  19.584  0.1705 -0.6320 -0.0717
  123DOPC   C3A 1446   6.056   6.427  19.617 -0.2176  0.1372 -0.2504
  123DOPC   C4A 1447   6.469   6.184  19.676  0.1544 -0.0578 -0.3196
  123DOPC   C1B 1448   4.899   5.884  19.218  0.1789  0.0649  0.3899
  123DOPC   D2B 1449   4.662   5.966  19.675 -0.0316  0.2534  0.4191
  123DOPC   C3B 1450   4.904   5.851  20.136 -0.1372  0.4371  0.2190
  123DOPC   C4B 1451   4.997   5.591  20.609  0.1689  0.0854  0.0768
  124DOPC   NC3 1452   7.958   5.114  15.481 -0.1473 -0.0019 -0.2365
  124DOPC   PO4 1453   8.325   5.020  15.307  0.2644  0.0104  0.0249
  124DOPC   GL1 1454   8.729   5.056  15.449 -0.0159 -0.0829 -0.1339
  124DOPC   GL2 1455   8.746   4.754  15.398 -0.4655  0.1667 -0.0539
  124DOPC   C1A 1456   9.042   5.238  15.677  0.0188 -0.1028 -0.0933
  124DOPC   D2A 1457   9.437   5.359  15.969 -0.0854  0.0625 -0.1164
  124DOPC   C3A 1458   9.735   5.020  16.191 -0.0854 -0.1228 -0.1182
  124DOPC   C4A 1459  10.062   4.930  16.640 -0.0000 -0.0086  0.1214
  124DOPC   C1B 1460   9.121   4.671  15.591  0.1057 -0.0171  0.1724
  124DOPC   D2B 1461   9.351   4.688  15.988 -0.2749 -0.1188 -0.0742
  124DOPC   C3B 1462   9.659   4.495  16.167  0.0360  0.0883 -0.1701
  124DOPC   C4B 1463  10.039   4.412  16.456 -0.1486 -0.3317  0.0472
  125DOPC   NC3 1464   8.063   5.065  16.097  0.1323 -0.1812 -0.2072
  125DOPC   PO4 1465   8.234   5.448  16.083  0.2179 -0.2234 -0.1041
  125DOPC   GL1 1466   8.488   5.290  16.313 -0.1914 -0.2457 -0.0557
  125DOPC   GL2 1467   8.516   4.981  16.270 -0.0221 -0.0083  0.0325
  125DOPC   C1A 1468   8.729   5.552  16.587  0.2380 -0.0405  0.1630
  125DOPC   D2A 1469   9.139   5.604  16.872 -0.2949 -0.0241 -0.1721
  125DOPC   C3A 1470   9.034   5.672  17.329 -0.3601 -0.1217  0.2386
  125DOPC   C4A 1471   8.791   5.720  17.752 -0.0238 -0.0957  0.0455
  125DOPC   C1B 1472   8.832   4.845  16.493 -0.1082  0.1819 -0.2789
  125DOPC   D2B 1473   9.226   4.617  16.481  0.1476  0.1597 -0.0815
  125DOPC   C3B 1474   9.511   4.256  16.666 -0.2338  0.2069  0.1765
  125DOPC   C4B 1475   9.795   3.993  16.978  0.0843  0.1927  0.1519
  126DOPC   NC3 1476   5.369   1.682  18.289 -0.0900  0.3232  0.0942
  126DOPC   PO4 1477   5.726   1.871  18.344  0.0206 -0.0677 -0.1253
  126DOPC   GL1 1478   5.759   1.785  18.767 -0.1772  0.0939  0.2002
  126DOPC   GL2 1479   5.514   1.804  18.724  0.0627 -0.0409  0.0905
  126DOPC   C1A 1480   5.883   2.041  19.120  0.0537 -0.2942  0.0232
  126DOPC   D2A 1481   5.880   2.209  19.593  0.0372  0.1638  0.0113
  126DOPC   C3A 1482   6.191   2.436  19.974 -0.1334  0.0313 -0.0529
  126DOPC   C4A 1483   6.409   2.779  20.209 -0.0382  0.0173 -0.1252
  126DOPC   C1B 1484   5.384   1.837  19.157 -0.1569 -0.1070 -0.3006
  126DOPC   D2B 1485   5.651   1.731  19.570 -0.1315  0.1075  0.3649
  126DOPC   C3B 1486   5.791   1.520  19.950  0.1500  0.1763  0.3586
  126DOPC   C4B 1487   6.114   1.177  20.044 -0.1648  0.0660 -0.1030
  127DOPC   NC3 1488   6.849   5.430  17.991  0.1356 -0.2676  0.0060
  127DOPC   PO4 1489   6.549   5.379  18.234 -0.0545  0.1384  0.2161
  127DOPC   GL1 1490   6.666   5.490  18.585 -0.0048 -0.3787  0.0681
  127DOPC   GL2 1491   6.947   5.455  18.523 -0.1136 -0.0198  0.0767
  127DOPC   C1A 1492   6.685   5.394  19.033  0.2412 -0.2051  0.1548
  127DOPC   D2A 1493   6.729   5.377  19.502 -0.1431 -0.0943  0.0626
  127DOPC   C3A 1494   7.008   5.007  19.571  0.0034 -0.0087 -0.0878
  127DOPC   C4A 1495   7.372   4.746  19.530 -0.2008  0.0265  0.1132
  127DOPC   C1B 1496   7.069   5.654  18.883  0.0977 -0.2926 -0.0013
  127DOPC   D2B 1497   7.331   6.008  19.259  0.1081  0.0022 -0.2256
  127DOPC   C3B 1498   7.563   6.292  19.532  0.0323  0.1778  0.1035
  127DOPC   C4B 1499   7.840   6.750  19.544  0.5376  0.1514 -0.0354
  128DOPC   NC3 1500  18.283   2.284  10.396  0.2013  0.1414 -0.2567
  128DOPC   PO4 1501  18.155   2.642  10.510 -0.2529  0.1259 -0.0137
  128DOPC   GL1 1502  17.872   2.648  10.842 -0.3217  0.0645 -0.0895
  128DOPC   GL2 1503  17.950   2.325  10.846 -0.1107 -0.2317  0.0031
  128DOPC   C1A 1504  18.032   2.698  11.301 -0.5002  0.2323 -0.0741
  128DOPC   D2A 1505  18.022   2.566  11.794 -0.0992  0.1449 -0.1271
  128DOPC   C3A 1506  18.297   2.667  12.200 -0.0710 -0.3056 -0.1771
  128DOPC   C4A 1507  18.524   2.976  12.488 -0.0701  0.2327 -0.2029
  128DOPC   C1B 1508  18.065   2.173  11.233 -0.2143 -0.1226 -0.1223
  128DOPC   D2B 1509  18.303   2.161  11.679 -0.1048 -0.0262 -0.0909
  128DOPC   C3B 1510  18.275   2.215  12.136  0.1429 -0.4035  0.1174
  128DOPC   C4B 1511  18.280   2.240  12.568 -0.1528  0.1331  0.0661
  129DOPC   NC3 1512   8.724   2.342  14.887  0.0495 -0.2197  0.0274
  129DOPC   PO4 1513   8.629   2.050  15.171  0.1331 -0.0017 -0.1449
  129DOPC   GL1 1514   8.962   1.890  15.455 -0.0169  0.2875  0.0750
  129DOPC   GL2 1515   8.763   1.754  15.589 -0.2441 -0.1384  0.2381
  129DOPC   C1A 1516   9.410   1.871  15.402  0.1001  0.2139 -0.0552
  129DOPC   D2A 1517   9.809   1.906  15.675 -0.1385 -0.0810  0.0789
  129DOPC   C3A 1518  10.020   1.625  15.988 -0.2511 -0.0063 -0.1192
  129DOPC   C4A 1519  10.335   1.328  16.137 -0.1532 -0.0827 -0.1395
  129DOPC   C1B 1520   9.044   1.535  15.786  0.0061 -0.1042 -0.2780
  129DOPC   D2B 1521   9.549   1.517  15.858 -0.0052  0.2062 -0.0795
  129DOPC   C3B 1522   9.707   1.308  16.183 -0.0220  0.3912  0.0366
  129DOPC   C4B 1523  10.002   1.182  16.504 -0.1860  0.5533 -0.0947
  130DOPC   NC3 1524   7.941   7.738  15.932  0.0432  0.1139 -0.1168
  130DOPC   PO4 1525   7.773   7.701  16.314 -0.1779 -0.0781  0.0902
  130DOPC   GL1 1526   8.018   7.611  16.649 -0.2525 -0.1689  0.1501
  130DOPC   GL2 1527   7.829   7.704  16.853  0.0456  0.0473  0.2490
  130DOPC   C1A 1528   8.463   7.525  16.815  0.4659 -0.0584 -0.1026
  130DOPC   D2A 1529   8.889   7.266  16.937 -0.0313  0.1409  0.2615
  130DOPC   C3A 1530   9.240   7.074  17.150  0.3838  0.1082 -0.0470
  130DOPC   C4A 1531   9.709   6.975  17.403  0.1039 -0.0231 -0.2037
  130DOPC   C1B 1532   8.168   7.913  17.058  0.0098 -0.0059 -0.0747
  130DOPC   D2B 1533   8.373   7.954  17.532 -0.1332 -0.1900  0.0482
  130DOPC   C3B 1534   8.704   7.743  17.777 -0.1301 -0.0800 -0.0425
  130DOPC   C4B 1535   9.005   7.457  18.016 -0.1571  0.3930 -0.0508
  131DOPC   NC3 1536  11.769   0.812  12.120 -0.0678 -0.2796  0.0100
  131DOPC   PO4 1537  11.818   0.520  12.297  0.0068  0.0618 -0.0073
  131DOPC   GL1 1538  11.921   0.560  12.681  0.0091 -0.1039 -0.1265
  131DOPC   GL2 1539  11.737   0.572  12.850 -0.2065 -0.1082 -0.1452
  131DOPC   C1A 1540  12.320   0.735  12.789  0.0605 -0.0548  0.1304
  131DOPC   D2A 1541  12.435   1.055  13.149 -0.2068  0.0575 -0.0262
  131DOPC   C3A 1542  12.847   1.022  13.395 -0.1357 -0.0049 -0.1763
  131DOPC   C4A 1543  12.939   0.885  13.828  0.1351  0.1096 -0.0618
  131DOPC   C1B 1544  11.655   0.451  13.305 -0.0393  0.1923 -0.0276
  131DOPC   D2B 1545  11.773   0.359  13.750 -0.1473 -0.2494 -0.2556
  131DOPC   C3B 1546  11.969   0.683  14.034 -0.0230 -0.0310 -0.0585
  131DOPC   C4B 1547  12.255   0.664  14.459 -0.0278 -0.0129  0.1779
  132DOPC   NC3 1548  10.675   1.458  12.845 -0.3193 -0.1258 -0.0324
  132DOPC   PO4 1549  10.842   1.383  12.538  0.0065  0.1598  0.2256
  132DOPC   GL1 1550  11.138   1.136  12.647 -0.1039  0.0662  0.1543
  132DOPC   GL2 1551  10.963   1.027  12.911 -0.2446 -0.1151 -0.0490
  132DOPC   C1A 1552  11.505   1.326  12.865  0.0881  0.1019  0.0478
  132DOPC   D2A 1553  11.763   1.588  13.185 -0.1584 -0.0559 -0.0605
  132DOPC   C3A 1554  11.770   1.803  13.618 -0.0628 -0.1635 -0.1762
  132DOPC   C4A 1555  11.955   1.978  14.067  0.3415  0.0911  0.0701
  132DOPC   C1B 1556  11.070   1.087  13.306  0.1156 -0.1696 -0.0373
  132DOPC   D2B 1557  11.294   0.680  13.589  0.0092  0.1619  0.1585
  132DOPC   C3B 1558  11.746   0.859  13.653 -0.1674  0.0167  0.4593
  132DOPC   C4B 1559  12.006   1.160  13.934  0.0476 -0.1874  0.0626
  133DOPC   NC3 1560  10.384   2.453  12.937  0.3052  0.0320  0.0682
  133DOPC   PO4 1561  10.544   2.531  12.624 -0.0113 -0.0219 -0.2022
  133DOPC   GL1 1562  10.859   2.508  12.846 -0.1907 -0.2558  0.0968
  133DOPC   GL2 1563  10.823   2.446  13.108 -0.2357 -0.1725 -0.1297
  133DOPC   C1A 1564  11.318   2.383  12.807 -0.1423 -0.1944 -0.1243
  133DOPC   D2A 1565  11.668   2.585  13.064 -0.1249  0.0823 -0.0144
  133DOPC   C3A 1566  11.973   2.549  13.417  0.0977  0.1063 -0.2518
  133DOPC   C4A 1567  12.390   2.667  13.610  0.0853  0.0292  0.0356
  133DOPC   C1B 1568  11.227   2.325  13.311 -0.0700  0.1985 -0.0482
  133DOPC   D2B 1569  11.614   2.323  13.660 -0.1331  0.2533  0.0280
  133DOPC   C3B 1570  11.941   2.605  13.915 -0.1259  0.0617 -0.2212
  133DOPC   C4B 1571  12.220   2.751  14.265 -0.2713  0.0189 -0.1933
  134DOPC   NC3 1572   9.798   3.459  13.240  0.2620  0.1948  0.1616
  134DOPC   PO4 1573   9.526   3.551  13.493  0.0276 -0.0947  0.0138
  134DOPC   GL1 1574   9.789   3.691  13.827 -0.3646  0.0398 -0.1827
  134DOPC   GL2 1575   9.730   3.901  13.947  0.1098 -0.1706 -0.1163
  134DOPC   C1A 1576  10.227   3.696  13.971 -0.0527 -0.3289  0.1418
  134DOPC   D2A 1577  10.663   3.526  14.180 -0.0671  0.0329  0.0854
  134DOPC   C3A 1578  11.081   3.756  14.170 -0.1237  0.2010  0.2707
  134DOPC   C4A 1579  11.347   3.736  13.762 -0.0137  0.0502 -0.0559
  134DOPC   C1B 1580   9.771   4.000  14.426 -0.1793 -0.0902  0.1434
  134DOPC   D2B 1581  10.253   4.088  14.650  0.0249  0.1039 -0.1018
  134DOPC   C3B 1582  10.495   4.052  15.047  0.0846 -0.0478  0.2947
  134DOPC   C4B 1583  10.778   4.141  15.410 -0.2559 -0.1778  0.0798
  135DOPC   NC3 1584  20.239   6.301  11.705 -0.2020  0.0283  0.0572
  135DOPC   PO4 1585  19.968   6.009  11.718  0.0871  0.1128  0.0529
  135DOPC   GL1 1586  19.714   5.890  11.897  0.2157 -0.1546 -0.2055
  135DOPC   GL2 1587  19.933   5.669  12.056  0.0861 -0.0258 -0.1375
  135DOPC   C1A 1588  19.352   5.935  12.131 -0.0782 -0.0629 -0.0040
  135DOPC   D2A 1589  18.998   5.986  12.436  0.0952  0.3655  0.0059
  135DOPC   C3A 1590  19.110   5.808  12.857 -0.0530  0.0232  0.1281
  135DOPC   C4A 1591  19.369   5.804  13.223 -0.2606 -0.0456 -0.1983
  135DOPC   C1B 1592  20.129   5.591  12.437 -0.3343  0.0070  0.0072
  135DOPC   D2B 1593  19.945   5.219  12.662  0.0327 -0.1317 -0.0150
  135DOPC   C3B 1594  20.058   4.996  12.954 -0.0377  0.2377 -0.0783
  135DOPC   C4B 1595  20.054   5.058  13.395  0.0505 -0.0039 -0.0599
  136DOPC   NC3 1596  10.853   0.886  12.460 -0.1426 -0.0790 -0.1142
  136DOPC   PO4 1597  10.834   0.541  12.623 -0.0376 -0.0343  0.1787
  136DOPC   GL1 1598  11.107   0.458  12.797 -0.0549 -0.2732 -0.2396
  136DOPC   GL2 1599  11.354   0.413  12.819 -0.1931 -0.0408 -0.0014
  136DOPC   C1A 1600  10.967   0.546  13.202 -0.2844  0.0556 -0.0952
  136DOPC   D2A 1601  10.797   0.405  13.693  0.1921  0.1672  0.2798
  136DOPC   C3A 1602  11.139   0.328  13.983 -0.2321 -0.0634  0.0694
  136DOPC   C4A 1603  11.445   0.643  14.093 -0.0463  0.0535 -0.3622
  136DOPC   C1B 1604  11.415   0.884  12.996 -0.0014  0.0065 -0.0650
  136DOPC   D2B 1605  11.548   1.168  13.345 -0.0556 -0.0941  0.2992
  136DOPC   C3B 1606  12.042   1.281  13.392 -0.2469  0.2758  0.1701
  136DOPC   C4B 1607  12.455   1.311  13.709 -0.0378  0.0467 -0.0777
  137DOPC   NC3 1608  10.167   4.037  12.693 -0.1443  0.3671 -0.1056
  137DOPC   PO4 1609  10.071   3.971  13.059 -0.2683  0.1515 -0.0344
  137DOPC   GL1 1610  10.312   3.983  13.334  0.2433  0.0155 -0.2592
  137DOPC   GL2 1611  10.543   3.754  13.222 -0.0437  0.2005 -0.0652
  137DOPC   C1A 1612  10.421   4.088  13.682 -0.2162  0.0493  0.0123
  137DOPC   D2A 1613  10.615   4.051  14.158  0.1136 -0.1228 -0.0743
  137DOPC   C3A 1614  10.761   3.922  14.597 -0.0749 -0.0460 -0.1181
  137DOPC   C4A 1615  10.923   3.786  15.018 -0.3252 -0.3744 -0.0475
  137DOPC   C1B 1616  10.918   3.897  13.262  0.0865  0.0517 -0.1708
  137DOPC   D2B 1617  11.329   4.251  13.312  0.3735 -0.0148 -0.1132
  137DOPC   C3B 1618  11.680   4.123  13.586 -0.3119 -0.0739  0.1911
  137DOPC   C4B 1619  11.943   3.758  13.841  0.0452  0.0179  0.0261
  138DOPC   NC3 1620  20.094   1.488  11.458 -0.1741  0.0387 -0.0410
  138DOPC   PO4 1621  19.829   1.714  11.242 -0.1078  0.0257  0.1142
  138DOPC   GL1 1622  19.604   2.044  11.329  0.2190  0.0358 -0.4834
  138DOPC   GL2 1623  19.825   2.261  11.406  0.3134  0.0130  0.3332
  138DOPC   C1A 1624  19.295   2.050  11.643 -0.0475 -0.0840 -0.0461
  138DOPC   D2A 1625  18.955   2.301  11.981 -0.0918  0.1328  0.2427
  138DOPC   C3A 1626  18.717   2.339  12.358 -0.3662 -0.0006  0.1900
  138DOPC   C4A 1627  18.558   2.580  12.775 -0.0267 -0.1120 -0.0549
  138DOPC   C1B 1628  19.585   2.484  11.721 -0.1283  0.0696 -0.1414
  138DOPC   D2B 1629  19.434   2.485  12.203 -0.3888 -0.0398 -0.0431
  138DOPC   C3B 1630  19.537   2.832  12.507 -0.3082 -0.2645  0.1421
  138DOPC   C4B 1631  19.398   3.058  12.958 -0.1350 -0.0244  0.2523
  139DOPC   NC3 1632   8.855   4.418  15.118  0.0490 -0.2729  0.0560
  139DOPC   PO4 1633   8.508   4.208  15.244 -0.0003  0.4768 -0.0255
  139DOPC   GL1 1634   8.570   4.422  15.637  0.1881  0.1165 -0.1081
  139DOPC   GL2 1635   8.788   4.262  15.579 -0.0890  0.2206 -0.0301
  139DOPC   C1A 1636   8.793   4.759  15.921  0.1249  0.0404  0.0467
  139DOPC   D2A 1637   9.017   5.168  16.157  0.0493  0.1902  0.2079
  139DOPC   C3A 1638   9.255   5.058  16.515 -0.3555 -0.0866  0.1517
  139DOPC   C4A 1639   9.579   4.915  16.800 -0.3775 -0.1981 -0.1108
  139DOPC   C1B 1640   9.089   4.176  15.889 -0.1214  0.1233  0.0479
  139DOPC   D2B 1641   9.499   4.038  16.157 -0.1839  0.0608 -0.0039
  139DOPC   C3B 1642   9.829   3.933  16.401 -0.0750  0.1017 -0.2184
  139DOPC   C4B 1643  10.274   3.912  16.499 -0.0839 -0.0985 -0.0343
  140DOPC   NC3 1644  15.498   7.539  10.197  0.4031  0.2531  0.0106
  140DOPC   PO4 1645  15.252   7.781  10.382  0.2917 -0.1364  0.3220
  140DOPC   GL1 1646  15.079   7.910  10.797  0.0057  0.1610  0.1289
  140DOPC   GL2 1647  15.237   7.705  10.912 -0.2487 -0.1489  0.3660
  140DOPC   C1A 1648  14.800   8.160  11.018 -0.0727 -0.0148  0.0482
  140DOPC   D2A 1649  14.558   8.529  11.227  0.1464  0.0138 -0.0209
  140DOPC   C3A 1650  14.691   8.735  11.657 -0.1512  0.0370  0.0879
  140DOPC   C4A 1651  14.962   8.938  11.960 -0.1893 -0.1681 -0.1101
  140DOPC   C1B 1652  15.284   7.722  11.358 -0.1279  0.0548  0.0174
  140DOPC   D2B 1653  15.165   7.817  11.870  0.2761  0.1142  0.0542
  140DOPC   C3B 1654  15.122   7.639  12.258 -0.0699  0.3424 -0.0447
  140DOPC   C4B 1655  15.243   7.729  12.721 -0.0019  0.0216 -0.2986
  141DOPC   NC3 1656  21.823   2.279  12.002 -0.0654  0.1727  0.0641
  141DOPC   PO4 1657  21.486   2.319  12.149  0.2089 -0.1715 -0.1975
  141DOPC   GL1 1658  21.198   2.194  12.511  0.3188  0.2062 -0.1258
  141DOPC   GL2 1659  21.237   2.435  12.526 -0.2537  0.0296 -0.0149
  141DOPC   C1A 1660  20.831   2.066  12.779 -0.1709  0.0034 -0.2908
  141DOPC   D2A 1661  20.454   1.929  13.178 -0.0689  0.2594 -0.0413
  141DOPC   C3A 1662  20.348   1.831  13.624 -0.0725 -0.1489  0.1081
  141DOPC   C4A 1663  20.270   1.888  14.097  0.0522  0.1449 -0.0967
  141DOPC   C1B 1664  21.068   2.631  12.848  0.0062  0.1263 -0.3076
  141DOPC   D2B 1665  21.143   2.809  13.326 -0.0914  0.1191 -0.1984
  141DOPC   C3B 1666  21.143   3.006  13.773 -0.0674 -0.1274  0.1433
  141DOPC   C4B 1667  21.296   3.417  13.944 -0.1205 -0.1440 -0.0594
  142DOPC   NC3 1668  19.715   2.965  10.608  0.1845 -0.0979 -0.0003
  142DOPC   PO4 1669  19.874   2.886  10.955  0.0815  0.1075  0.0569
  142DOPC   GL1 1670  19.885   2.714  11.276  0.1900  0.3813 -0.1080
  142DOPC   GL2 1671  19.597   2.702  11.349  0.1310  0.0261  0.0877
  142DOPC   C1A 1672  19.838   2.949  11.627  0.1334 -0.0858  0.1006
  142DOPC   D2A 1673  19.532   2.976  12.015 -0.0900  0.0149  0.0183
  142DOPC   C3A 1674  19.245   3.249  12.172 -0.0445 -0.3726  0.1301
  142DOPC   C4A 1675  18.933   3.298  12.531 -0.0907 -0.1903 -0.0895
  142DOPC   C1B 1676  19.380   3.065  11.501  0.1654  0.2586 -0.0184
  142DOPC   D2B 1677  19.041   3.340  11.738  0.1930 -0.0578  0.1433
  142DOPC   C3B 1678  19.047   3.819  11.709  0.2723  0.1337  0.0847
  142DOPC   C4B 1679  19.158   4.247  11.906 -0.0790 -0.1362  0.0651
  143DOPC   NC3 1680  22.587   2.345  13.699  0.0222  0.3802 -0.3419
  143DOPC   PO4 1681  22.774   2.521  13.967  0.0632 -0.2084 -0.0375
  143DOPC   GL1 1682  22.660   2.381  14.288  0.3183 -0.2363 -0.1736
  143DOPC   GL2 1683  22.397   2.259  14.200 -0.1432  0.0427  0.1535
  143DOPC   C1A 1684  22.640   2.516  14.743  0.3778  0.2159 -0.1553
  143DOPC   D2A 1685  22.813   2.494  15.244  0.2654  0.0867 -0.3333
  143DOPC   C3A 1686  22.758   2.374  15.697 -0.1121  0.0227 -0.2401
  143DOPC   C4A 1687  22.810   2.369  16.145 -0.1731 -0.1038  0.0978
  143DOPC   C1B 1688  22.346   2.096  14.551 -0.1346 -0.1994 -0.1636
  143DOPC   D2B 1689  22.178   2.065  15.004  0.3492  0.0618  0.0833
  143DOPC   C3B 1690  22.294   2.440  15.306  0.0613 -0.1262 -0.1272
  143DOPC   C4B 1691  22.331   2.665  15.805  0.0977  0.0398  0.4648
  144DOPC   NC3 1692  19.679   4.665  11.031  0.1511  0.0010 -0.2628
  144DOPC   PO4 1693  19.327   4.529  11.022 -0.1246 -0.0624 -0.0282
  144DOPC   GL1 1694  18.976   4.594  11.204  0.0069  0.2762 -0.0166
  144DOPC   GL2 1695  18.779   4.400  11.114 -0.2471  0.0607  0.2891
  144DOPC   C1A 1696  18.899   4.732  11.599  0.2136  0.0249  0.3101
  144DOPC   D2A 1697  18.681   4.609  11.997 -0.2146 -0.3263 -0.2179
  144DOPC   C3A 1698  18.703   4.392  12.420  0.0395  0.2205  0.2706
  144DOPC   C4A 1699  18.387   4.123  12.736 -0.0358  0.1895 -0.1101
  144DOPC   C1B 1700  18.597   4.337  11.529  0.2234 -0.0155 -0.1899
  144DOPC   D2B 1701  18.256   4.021  11.684  0.0327 -0.1237  0.2358
  144DOPC   C3B 1702  18.214   3.725  11.999 -0.3423  0.0709 -0.0408
  144DOPC   C4B 1703  18.258   3.506  12.444  0.1724  0.4908  0.0784
  145DOPC   NC3 1704   8.340   1.976  15.593 -0.0088 -0.1144  0.3695
  145DOPC   PO4 1705   8.352   1.614  15.382  0.2752 -0.1450  0.2444
  145DOPC   GL1 1706   8.695   1.355  15.357  0.0277 -0.0172  0.0573
  145DOPC   GL2 1707   8.863   1.562  15.174 -0.0262 -0.0761 -0.0307
  145DOPC   C1A 1708   8.907   1.084  15.610 -0.0765  0.0312  0.0094
  145DOPC   D2A 1709   9.171   0.688  15.765  0.2164 -0.0546 -0.1059
  145DOPC   C3A 1710   9.085   0.488  16.212  0.1755 -0.0411  0.0266
  145DOPC   C4A 1711   9.061   0.406  16.700  0.1424 -0.3078  0.1272
  145DOPC   C1B 1712   9.272   1.428  15.323 -0.2371  0.0162  0.3106
  145DOPC   D2B 1713   9.740   1.359  15.394 -0.0727 -0.1254 -0.3547
  145DOPC   C3B 1714   9.944   1.197  15.793 -0.1141  0.2164 -0.1446
  145DOPC   C4B 1715  10.099   0.901  16.107  0.1599  0.3434 -0.1248
  146DOPC   NC3 1716  19.185   0.255  10.855  0.0820 -0.0195 -0.0147
  146DOPC   PO4 1717  19.266   0.652  10.815  0.0966 -0.0210  0.1324
  146DOPC   GL1 1718  19.043   0.792  11.166 -0.0788  0.2986 -0.1596
  146DOPC   GL2 1719  19.208   0.599  11.301 -0.0817  0.1274  0.3322
  146DOPC   C1A 1720  18.840   1.113  11.437 -0.2007 -0.3012 -0.1442
  146DOPC   D2A 1721  18.581   1.349  11.812 -0.2436 -0.1991  0.3297
  146DOPC   C3A 1722  18.620   1.416  12.236  0.3533 -0.0548 -0.1536
  146DOPC   C4A 1723  18.607   1.396  12.731 -0.1018 -0.0478 -0.1832
  146DOPC   C1B 1724  19.093   0.637  11.745  0.1193  0.2056 -0.2023
  146DOPC   D2B 1725  18.962   0.579  12.251 -0.1893  0.0703  0.0194
  146DOPC   C3B 1726  18.934   0.482  12.695 -0.4155 -0.1280  0.0601
  146DOPC   C4B 1727  18.623   0.374  13.026 -0.2489 -0.1172 -0.0105
  147DOPC   NC3 1728  11.517   3.343  11.600  0.0104 -0.0187  0.2879
  147DOPC   PO4 1729  11.614   3.605  11.890 -0.0710  0.0981  0.0120
  147DOPC   GL1 1730  11.948   3.624  12.063 -0.1268  0.2522 -0.2694
  147DOPC   GL2 1731  11.767   3.854  12.249  0.1687  0.1565  0.1612
  147DOPC   C1A 1732  11.991   3.417  12.444  0.3416 -0.1829  0.0620
  147DOPC   D2A 1733  11.956   3.469  12.936 -0.0631 -0.0000  0.2081
  147DOPC   C3A 1734  12.387   3.548  13.192  0.0226  0.0484  0.1786
  147DOPC   C4A 1735  12.793   3.545  13.495 -0.0829 -0.1154 -0.2048
  147DOPC   C1B 1736  11.985   4.004  12.586  0.4865 -0.0442  0.3239
  147DOPC   D2B 1737  11.998   3.918  13.143 -0.0720  0.1151  0.1996
  147DOPC   C3B 1738  12.258   3.987  13.500  0.1730  0.2123 -0.0180
  147DOPC   C4B 1739  12.469   3.831  13.924 -0.1794  0.3797 -0.0489
  148DOPC   NC3 1740  14.244   3.752  10.491 -0.0453  0.1141  0.0233
  148DOPC   PO4 1741  14.113   4.097  10.307 -0.2108 -0.2755 -0.2375
  148DOPC   GL1 1742  14.125   4.328  10.667 -0.2770 -0.2310 -0.0268
  148DOPC   GL2 1743  14.352   4.351  10.710 -0.2699 -0.0273 -0.1490
  148DOPC   C1A 1744  13.814   4.226  10.954 -0.0057  0.0298 -0.0880
  148DOPC   D2A 1745  13.518   4.248  11.322  0.1014 -0.1849 -0.0128
  148DOPC   C3A 1746  13.211   4.577  11.412 -0.0808 -0.1460 -0.2043
  148DOPC   C4A 1747  12.847   4.554  11.722 -0.3497  0.0840  0.1444
  148DOPC   C1B 1748  14.513   4.145  10.943 -0.2084  0.0773 -0.3318
  148DOPC   D2B 1749  14.771   4.322  11.380 -0.1432 -0.2116 -0.1114
  148DOPC   C3B 1750  14.777   4.257  11.860 -0.2500  0.3919  0.0054
  148DOPC   C4B 1751  14.511   4.146  12.220  0.2210 -0.0459 -0.2086
  149DOPC   NC3 1752   1.395   3.857  17.317  0.0124  0.2480  0.0623
  149DOPC   PO4 1753   1.163   3.964  17.045 -0.1908  0.0001 -0.1341
  149DOPC   GL1 1754   0.895   4.016  17.368  0.2818 -0.0739  0.0335
  149DOPC   GL2 1755   1.029   3.943  17.649  0.3110  0.1223 -0.0346
  149DOPC   C1A 1756   0.643   4.266  17.547  0.0347 -0.1054  0.0789
  149DOPC   D2A 1757   0.327   4.632  17.620 -0.0524  0.4232 -0.0104
  149DOPC   C3A 1758   0.164   4.989  17.838  0.1805  0.0101  0.2651
  149DOPC   C4A 1759   0.211   5.465  17.987 -0.0650 -0.0317 -0.0085
  149DOPC   C1B 1760   0.750   3.930  18.074  0.0822  0.0212 -0.1279
  149DOPC   D2B 1761   0.434   3.636  18.315 -0.1211  0.0561  0.0552
  149DOPC   C3B 1762  -0.023   3.608  18.270  0.0690 -0.0906  0.0111
  149DOPC   C4B 1763  -0.441   3.754  18.109 -0.0762 -0.1044 -0.1979
  150DOPC   NC3 1764  14.601   5.373  10.550  0.1839 -0.2873  0.1015
  150DOPC   PO4 1765  14.856   5.106  10.564  0.0184  0.1532  0.1424
  150DOPC   GL1 1766  14.781   5.121  10.963  0.0242  0.1102 -0.1032
  150DOPC   GL2 1767  14.733   5.437  10.975 -0.3152  0.4572 -0.1190
  150DOPC   C1A 1768  14.669   4.811  11.261  0.1917 -0.3715  0.0438
  150DOPC   D2A 1769  14.400   4.562  11.697 -0.0509  0.2857  0.0080
  150DOPC   C3A 1770  14.521   4.646  12.128  0.0837 -0.0445 -0.1716
  150DOPC   C4A 1771  14.809   5.074  12.203  0.1154 -0.0964 -0.0066
  150DOPC   C1B 1772  14.947   5.606  11.277  0.1625  0.1092 -0.0427
  150DOPC   D2B 1773  15.220   5.877  11.645  0.0914  0.0623  0.3626
  150DOPC   C3B 1774  15.084   5.856  12.077  0.1711 -0.3849  0.0979
  150DOPC   C4B 1775  14.771   5.747  12.386 -0.0344  0.0492 -0.0449
  151DOPC   NC3 1776  12.053   6.186  12.037 -0.0623  0.0467 -0.0962
  151DOPC   PO4 1777  12.131   5.802  11.941  0.0032 -0.0605  0.0343
  151DOPC   GL1 1778  12.495   5.640  12.174 -0.1481 -0.2075 -0.4087
  151DOPC   GL2 1779  12.643   5.779  11.995 -0.0967 -0.3074  0.3311
  151DOPC   C1A 1780  12.560   5.621  12.616 -0.2990 -0.1290  0.3820
  151DOPC   D2A 1781  12.731   5.676  13.029 -0.0180 -0.0003  0.1737
  151DOPC   C3A 1782  13.177   5.504  13.026 -0.2710  0.0418 -0.1320
  151DOPC   C4A 1783  13.318   5.145  13.258 -0.0024  0.1076 -0.0356
  151DOPC   C1B 1784  12.956   5.856  12.242 -0.1089 -0.2655  0.1581
  151DOPC   D2B 1785  13.191   5.837  12.664 -0.0247  0.1230 -0.2494
  151DOPC   C3B 1786  13.609   5.916  12.736 -0.4245  0.0123 -0.0532
  151DOPC   C4B 1787  13.993   5.612  12.636 -0.4426 -0.0787  0.0901
  152DOPC   NC3 1788   0.116   2.403  15.703  0.0477  0.1777 -0.1601
  152DOPC   PO4 1789  -0.090   2.643  15.447 -0.2240  0.0228 -0.3175
  152DOPC   GL1 1790  -0.408   2.690  15.688 -0.0230  0.1824 -0.1606
  152DOPC   GL2 1791  -0.263   2.499  15.927  0.1329 -0.2855 -0.0561
  152DOPC   C1A 1792  -0.671   2.871  15.982 -0.2253 -0.2881 -0.1895
  152DOPC   D2A 1793  -1.117   2.913  16.221 -0.1757 -0.1655  0.0312
  152DOPC   C3A 1794  -1.358   2.669  16.537  0.0975  0.0534  0.0286
  152DOPC   C4A 1795  -1.686   2.498  16.881  0.2250  0.0868  0.1162
  152DOPC   C1B 1796  -0.498   2.409  16.330 -0.2014  0.0046  0.1892
  152DOPC   D2B 1797  -0.790   2.707  16.618  0.1523  0.0272  0.2768
  152DOPC   C3B 1798  -1.098   2.762  16.990 -0.1258  0.0548  0.0831
  152DOPC   C4B 1799  -1.525   2.752  17.248 -0.1067 -0.0348 -0.3020
  153DOPC   NC3 1800   0.953   2.815  16.702  0.0914 -0.1427  0.1124
  153DOPC   PO4 1801   1.077   2.996  17.032 -0.0622  0.1403  0.0787
  153DOPC   GL1 1802   0.975   3.108  17.472  0.0702 -0.2603  0.1936
  153DOPC   GL2 1803   0.689   3.147  17.282 -0.2325 -0.0443 -0.0804
  153DOPC   C1A 1804   0.756   3.002  17.873 -0.0246  0.2115  0.1952
  153DOPC   D2A 1805   0.418   2.802  18.172 -0.1654  0.0641 -0.0907
  153DOPC   C3A 1806   0.395   2.856  18.666  0.0799 -0.0536 -0.0751
  153DOPC   C4A 1807   0.620   2.979  19.035  0.0581 -0.0935 -0.1412
  153DOPC   C1B 1808   0.364   3.399  17.380 -0.1004  0.0987  0.5839
  153DOPC   D2B 1809  -0.026   3.297  17.722 -0.2459 -0.1991  0.2769
  153DOPC   C3B 1810  -0.304   3.221  18.060 -0.3931  0.1936 -0.1367
  153DOPC   C4B 1811  -0.733   3.216  18.401 -0.2722  0.0646 -0.2829
  154DOPC   NC3 1812   6.092   6.377  18.495 -0.3000 -0.3111  0.0713
  154DOPC   PO4 1813   6.376   6.589  18.265 -0.1468  0.1198 -0.0530
  154DOPC   GL1 1814   6.505   6.672  18.705 -0.2216  0.0727 -0.2236
  154DOPC   GL2 1815   6.808   6.425  18.678  0.3145 -0.0829  0.0696
  154DOPC   C1A 1816   6.516   6.672  19.182 -0.0314  0.0284 -0.0040
  154DOPC   D2A 1817   6.461   6.711  19.656 -0.2100  0.0931 -0.1812
  154DOPC   C3A 1818   6.381   6.513  20.055  0.2961  0.1077 -0.0592
  154DOPC   C4A 1819   6.243   6.599  20.572  0.0532  0.0438  0.1436
  154DOPC   C1B 1820   6.890   6.315  19.075  0.1313 -0.1240 -0.1830
  154DOPC   D2B 1821   6.986   6.314  19.627  0.2760 -0.0036 -0.0541
  154DOPC   C3B 1822   6.891   6.584  19.990 -0.0691  0.0950 -0.0895
  154DOPC   C4B 1823   6.619   6.820  20.329 -0.1039  0.0392 -0.1187
  155DOPC   NC3 1824   2.597   4.567  17.457  0.1709  0.0808 -0.1144
  155DOPC   PO4 1825   2.485   4.552  17.818 -0.0201 -0.3163  0.1566
  155DOPC   GL1 1826   2.238   4.666  18.053 -0.2169  0.1987  0.2081
  155DOPC   GL2 1827   2.382   4.519  18.220 -0.0671 -0.1659 -0.2349
  155DOPC   C1A 1828   2.128   4.876  18.392  0.0601  0.0205 -0.0166
  155DOPC   D2A 1829   1.831   5.133  18.727  0.2127  0.1251 -0.0374
  155DOPC   C3A 1830   1.716   5.524  18.897 -0.1237  0.1877 -0.0405
  155DOPC   C4A 1831   1.350   5.769  19.090 -0.1501 -0.1900  0.1350
  155DOPC   C1B 1832   2.022   4.300  18.420  0.1531  0.1923  0.2223
  155DOPC   D2B 1833   1.895   4.110  18.829  0.0664 -0.2469  0.0829
  155DOPC   C3B 1834   1.914   4.055  19.291 -0.1677  0.3026  0.1648
  155DOPC   C4B 1835   1.556   4.172  19.588 -0.3597  0.2499  0.0130
  156DOPC   NC3 1836   5.640   5.657  18.087  0.2665 -0.0444 -0.0769
  156DOPC   PO4 1837   5.742   5.957  18.329  0.2043  0.2649  0.1726
  156DOPC   GL1 1838   5.885   5.741  18.587  0.1100  0.2229 -0.1763
  156DOPC   GL2 1839   6.023   5.898  18.697 -0.1786 -0.6236  0.3317
  156DOPC   C1A 1840   5.758   5.532  18.943  0.3619 -0.2265 -0.1856
  156DOPC   D2A 1841   5.756   5.429  19.413 -0.0317  0.0126  0.0015
  156DOPC   C3A 1842   5.529   5.335  19.795  0.1524 -0.2048  0.0616
  156DOPC   C4A 1843   5.342   5.391  20.300  0.0853 -0.2480 -0.0745
  156DOPC   C1B 1844   6.258   5.754  19.062 -0.0568 -0.1639  0.3240
  156DOPC   D2B 1845   6.380   5.712  19.512  0.1278 -0.1842 -0.4303
  156DOPC   C3B 1846   6.439   5.694  19.992  0.0596 -0.0282  0.1217
  156DOPC   C4B 1847   6.297   6.041  20.229 -0.1978  0.0085  0.1285
  157DOPC   NC3 1848  21.051   3.168  11.347  0.0567 -0.0018  0.1452
  157DOPC   PO4 1849  21.041   3.114  11.747  0.0232 -0.2608  0.0446
  157DOPC   GL1 1850  20.640   2.922  11.810 -0.1299  0.0392 -0.4261
  157DOPC   GL2 1851  20.741   2.709  11.925  0.2020 -0.2049 -0.0387
  157DOPC   C1A 1852  20.315   2.832  11.871 -0.2420  0.0238 -0.0801
  157DOPC   D2A 1853  19.917   2.643  12.044  0.1720  0.1562 -0.2934
  157DOPC   C3A 1854  19.868   2.419  12.457  0.1102  0.1186 -0.1553
  157DOPC   C4A 1855  19.704   2.563  12.953  0.3065 -0.0201  0.2589
  157DOPC   C1B 1856  20.826   2.982  12.372  0.0393  0.0857  0.1494
  157DOPC   D2B 1857  20.911   3.116  12.868 -0.0820 -0.0168 -0.0042
  157DOPC   C3B 1858  20.626   3.034  13.230 -0.3738 -0.0839 -0.0756
  157DOPC   C4B 1859  20.272   2.988  13.569  0.1653  0.0692  0.0181
  158DOPC   NC3 1860   0.922   1.513  16.859 -0.0554  0.0411  0.3749
  158DOPC   PO4 1861   0.853   1.757  17.148 -0.2955  0.0312 -0.4065
  158DOPC   GL1 1862   0.623   1.770  17.434 -0.0426 -0.0761 -0.3924
  158DOPC   GL2 1863   0.598   1.454  17.544  0.0381  0.0562 -0.0399
  158DOPC   C1A 1864   0.384   2.048  17.642  0.2716 -0.1488  0.2547
  158DOPC   D2A 1865   0.007   2.366  17.811 -0.0890  0.1594 -0.0993
  158DOPC   C3A 1866  -0.063   2.406  18.235 -0.2532  0.0160  0.0477
  158DOPC   C4A 1867  -0.043   2.702  18.629  0.2895 -0.0222  0.1967
  158DOPC   C1B 1868   0.322   1.202  17.707 -0.0124 -0.1480  0.0268
  158DOPC   D2B 1869   0.045   0.844  17.824 -0.2586 -0.0204 -0.1655
  158DOPC   C3B 1870  -0.238   0.496  17.980 -0.0299  0.0224  0.2285
  158DOPC   C4B 1871  -0.518   0.062  18.013  0.1841  0.0462 -0.0680
  159DOPC   NC3 1872  10.813   3.523  12.412 -0.4007 -0.1150  0.0034
  159DOPC   PO4 1873  10.711   3.185  12.589  0.0174  0.1420 -0.1633
  159DOPC   GL1 1874  10.852   3.132  12.906 -0.1130 -0.1528 -0.0209
  159DOPC   GL2 1875  10.718   3.297  13.064 -0.1718 -0.1465  0.0285
  159DOPC   C1A 1876  11.117   2.837  13.139  0.3274 -0.0540  0.0301
  159DOPC   D2A 1877  11.398   2.728  13.521  0.0389 -0.0386 -0.1686
  159DOPC   C3A 1878  11.503   2.906  13.978  0.1795 -0.2913 -0.1491
  159DOPC   C4A 1879  11.708   3.022  14.381 -0.1548 -0.3181 -0.4917
  159DOPC   C1B 1880  11.060   3.393  13.367  0.0752 -0.0995  0.3289
  159DOPC   D2B 1881  11.455   3.275  13.630  0.0805  0.1574 -0.0483
  159DOPC   C3B 1882  11.646   3.411  14.058  0.0169  0.0733  0.0823
  159DOPC   C4B 1883  11.981   3.462  14.386 -0.0221 -0.0035 -0.1533
  160DOPC   NC3 1884  21.049   1.250  11.703  0.1859 -0.0421 -0.5142
  160DOPC   PO4 1885  20.988   1.380  12.097  0.2240 -0.1468  0.2102
  160DOPC   GL1 1886  20.685   1.647  12.347  0.0875 -0.2417  0.3012
  160DOPC   GL2 1887  20.923   1.610  12.491 -0.1778  0.2056 -0.0731
  160DOPC   C1A 1888  20.299   1.673  12.654 -0.2151  0.1970  0.0333
  160DOPC   D2A 1889  19.889   1.704  12.895  0.0688 -0.0501 -0.3223
  160DOPC   C3A 1890  19.660   1.804  13.314  0.0473  0.1923  0.0694
  160DOPC   C4A 1891  19.924   1.625  13.723 -0.0019  0.0227  0.1021
  160DOPC   C1B 1892  20.729   1.572  12.885  0.3195  0.0062 -0.0041
  160DOPC   D2B 1893  20.283   1.458  13.120 -0.0799  0.1649 -0.1747
  160DOPC   C3B 1894  19.936   1.232  13.282  0.5215 -0.0525  0.0426
  160DOPC   C4B 1895  19.447   1.255  13.393 -0.1250  0.1548 -0.0884
  161DOPC   NC3 1896   3.440   4.300  17.976 -0.1800 -0.0729  0.2498
  161DOPC   PO4 1897   3.189   4.037  17.978  0.0077  0.0733  0.1799
  161DOPC   GL1 1898   3.050   3.951  18.426 -0.4123  0.1216 -0.1437
  161DOPC   GL2 1899   2.868   4.191  18.341 -0.2827  0.0127  0.0915
  161DOPC   C1A 1900   3.237   3.874  18.731 -0.0512 -0.1201 -0.0853
  161DOPC   D2A 1901   3.423   3.914  19.157 -0.1963  0.3176  0.2077
  161DOPC   C3A 1902   3.224   3.772  19.567  0.0706  0.3591 -0.0453
  161DOPC   C4A 1903   3.113   3.491  19.939 -0.3236  0.0717 -0.1458
  161DOPC   C1B 1904   2.900   4.439  18.689  0.1537 -0.0358 -0.2297
  161DOPC   D2B 1905   2.912   4.824  18.973 -0.2682  0.2421 -0.2034
  161DOPC   C3B 1906   2.657   4.886  19.386  0.3134  0.2937  0.1446
  161DOPC   C4B 1907   2.256   4.909  19.687 -0.3861  0.1013  0.1554
  162DOPC   NC3 1908  14.742   7.235  10.302 -0.0881  0.1084  0.0808
  162DOPC   PO4 1909  15.127   7.208  10.370  0.2047 -0.1809 -0.2174
  162DOPC   GL1 1910  15.232   7.134  10.828  0.1114  0.0545  0.2721
  162DOPC   GL2 1911  15.493   7.324  10.692 -0.0341  0.2966 -0.1524
  162DOPC   C1A 1912  15.213   7.242  11.289  0.1973 -0.2504 -0.2706
  162DOPC   D2A 1913  15.458   7.372  11.707  0.0685 -0.1687  0.5449
  162DOPC   C3A 1914  15.641   7.070  11.980 -0.0273 -0.2099 -0.0327
  162DOPC   C4A 1915  15.537   6.844  12.382  0.2746 -0.0769 -0.0047
  162DOPC   C1B 1916  15.623   7.450  11.101 -0.0380  0.1283  0.0364
  162DOPC   D2B 1917  15.987   7.455  11.424 -0.0783  0.2329  0.2604
  162DOPC   C3B 1918  16.195   7.776  11.647  0.1797 -0.0169 -0.0123
  162DOPC   C4B 1919  16.287   8.115  11.932  0.0414 -0.2205  0.0523
  163DOPC   NC3 1920  10.919   4.149  12.127  0.0413  0.0563 -0.0158
  163DOPC   PO4 1921  10.901   4.071  12.556 -0.0936  0.0969  0.1007
  163DOPC   GL1 1922  11.074   3.708  12.785  0.2016 -0.0820 -0.3689
  163DOPC   GL2 1923  11.214   3.943  12.889 -0.1115 -0.2320  0.1580
  163DOPC   C1A 1924  11.289   3.337  12.937 -0.1515 -0.1173 -0.0172
  163DOPC   D2A 1925  11.622   3.065  13.185  0.2743  0.2254  0.3263
  163DOPC   C3A 1926  11.821   2.997  13.575  0.0755  0.0968  0.0641
  163DOPC   C4A 1927  12.056   3.103  14.001 -0.0041  0.0272 -0.0128
  163DOPC   C1B 1928  11.456   3.751  13.190  0.1307  0.1008  0.1037
  163DOPC   D2B 1929  11.858   3.486  13.436 -0.2897  0.0282  0.2271
  163DOPC   C3B 1930  12.280   3.425  13.685  0.0015 -0.1975 -0.1389
  163DOPC   C4B 1931  12.683   3.246  13.855 -0.1203 -0.0696 -0.0099
  164DOPC   NC3 1932   6.848   3.617  17.128  0.3015  0.2995 -0.0742
  164DOPC   PO4 1933   6.977   3.278  17.062 -0.5947 -0.3778  0.1764
  164DOPC   GL1 1934   7.087   3.421  17.486 -0.0149 -0.2162 -0.0258
  164DOPC   GL2 1935   6.892   3.211  17.524 -0.1084  0.2552 -0.0105
  164DOPC   C1A 1936   7.422   3.273  17.708  0.0348 -0.0666 -0.0258
  164DOPC   D2A 1937   7.775   3.071  17.539  0.0172  0.1328  0.0400
  164DOPC   C3A 1938   8.025   2.818  17.788  0.2020  0.1790 -0.0885
  164DOPC   C4A 1939   8.363   2.543  17.994  0.0705  0.0787 -0.2575
  164DOPC   C1B 1940   6.985   3.012  17.887  0.1681 -0.0967  0.4286
  164DOPC   D2B 1941   7.120   2.953  18.312 -0.0115  0.1755 -0.0045
  164DOPC   C3B 1942   7.495   3.080  18.510 -0.2304 -0.0366  0.1342
  164DOPC   C4B 1943   7.433   3.246  19.009 -0.0099  0.1176  0.0050
  165DOPC   NC3 1944  24.859   1.287  15.147  0.1135 -0.1022 -0.0569
  165DOPC   PO4 1945  24.806   1.215  15.541  0.0189  0.1005  0.0747
  165DOPC   GL1 1946  24.421   1.218  15.697 -0.0563 -0.2722  0.0666
  165DOPC   GL2 1947  24.649   1.057  15.870 -0.1417  0.1314  0.0363
  165DOPC   C1A 1948  24.102   1.229  15.950  0.3568  0.1266 -0.3771
  165DOPC   D2A 1949  23.866   1.105  16.420  0.0356 -0.3392  0.3329
  165DOPC   C3A 1950  23.561   1.139  16.796  0.0652  0.1892 -0.0994
  165DOPC   C4A 1951  23.494   1.242  17.269 -0.2608 -0.0118 -0.0198
  165DOPC   C1B 1952  24.498   1.238  16.232  0.0519  0.0507 -0.1426
  165DOPC   D2B 1953  24.669   1.215  16.719 -0.0564  0.3577  0.3694
  165DOPC   C3B 1954  24.611   0.871  17.114  0.0034  0.0923  0.3546
  165DOPC   C4B 1955  24.601   0.656  17.541 -0.2618 -0.3135 -0.1319
  166DOPC   NC3 1956   5.214   4.016  18.412  0.0876 -0.1515  0.1895
  166DOPC   PO4 1957   5.552   3.862  18.268  0.2875  0.1884 -0.1913
  166DOPC   GL1 1958   5.924   3.655  18.456  0.1646  0.0659 -0.1470
  166DOPC   GL2 1959   6.055   3.922  18.431  0.1885 -0.0102 -0.0043
  166DOPC   C1A 1960   6.113   3.622  18.860 -0.0064  0.2025  0.0436
  166DOPC   D2A 1961   6.457   3.613  19.247 -0.0931  0.0658 -0.1784
  166DOPC   C3A 1962   6.319   3.373  19.616  0.1594  0.0373  0.0482
  166DOPC   C4A 1963   6.586   3.135  19.878  0.0928  0.1462  0.0990
  166DOPC   C1B 1964   6.379   4.030  18.742 -0.0732  0.2595  0.0979
  166DOPC   D2B 1965   6.785   4.121  18.905  0.1861  0.2389 -0.0989
  166DOPC   C3B 1966   6.802   3.954  19.298 -0.2032 -0.1539 -0.0577
  166DOPC   C4B 1967   6.765   3.650  19.666 -0.1534 -0.1907 -0.1527
  167DOPC   NC3 1968   9.781   0.218  13.265 -0.0647  0.1111  0.0014
  167DOPC   PO4 1969   9.693  -0.002  13.586 -0.1340 -0.1563  0.0556
  167DOPC   GL1 1970   9.911   0.015  13.998 -0.0571  0.2047  0.2535
  167DOPC   GL2 1971  10.014  -0.198  14.044 -0.4440 -0.4440  0.2307
  167DOPC   C1A 1972   9.959   0.427  14.165  0.1451  0.0501 -0.0538
  167DOPC   D2A 1973   9.996   0.906  14.286 -0.0703  0.1779  0.0905
  167DOPC   C3A 1974  10.276   1.156  14.493  0.0641  0.2484  0.2085
  167DOPC   C4A 1975  10.426   1.439  14.844  0.4095 -0.3067 -0.0616
  167DOPC   C1B 1976  10.368  -0.166  14.313  0.2616 -0.1070 -0.0225
  167DOPC   D2B 1977  10.616  -0.029  14.662  0.1711 -0.4217 -0.3300
  167DOPC   C3B 1978  10.894   0.320  14.848 -0.2767 -0.0034  0.0121
  167DOPC   C4B 1979  11.265   0.595  14.967 -0.3609  0.3520 -0.1357
  168DOPC   NC3 1980   8.746   5.534  15.977  0.0394 -0.5411  0.2758
  168DOPC   PO4 1981   8.753   5.881  15.764 -0.0473  0.0045 -0.1411
  168DOPC   GL1 1982   8.914   6.085  16.157 -0.2392 -0.1966  0.0656
  168DOPC   GL2 1983   8.725   5.934  16.251 -0.0667  0.2823  0.2066
  168DOPC   C1A 1984   9.115   6.010  16.499  0.1800  0.0373 -0.1084
  168DOPC   D2A 1985   8.939   6.069  17.050  0.0865  0.1735 -0.0518
  168DOPC   C3A 1986   9.072   6.176  17.477  0.0204  0.2959  0.4880
  168DOPC   C4A 1987   9.388   6.134  17.900  0.5120  0.1854 -0.0499
  168DOPC   C1B 1988   8.539   6.125  16.598 -0.0138 -0.1507  0.1941
  168DOPC   D2B 1989   8.246   6.275  17.007 -0.3604 -0.5964 -0.4897
  168DOPC   C3B 1990   8.015   5.978  17.277 -0.3885  0.1609  0.1866
  168DOPC   C4B 1991   7.896   5.622  17.556  0.3727 -0.0728 -0.0131
  169DOPC   NC3 1992  15.554   1.065  10.593 -0.3751 -0.0745 -0.2629
  169DOPC   PO4 1993  15.244   0.944  10.457  0.0584  0.1369  0.0465
  169DOPC   GL1 1994  15.029   0.623  10.722 -0.3250  0.2224  0.0231
  169DOPC   GL2 1995  15.297   0.796  10.845 -0.1326  0.0973  0.1835
  169DOPC   C1A 1996  15.241   0.432  11.151  0.0005  0.1456 -0.0039
  169DOPC   D2A 1997  15.375   0.430  11.660 -0.2087  0.1785 -0.1992
  169DOPC   C3A 1998  15.730   0.133  11.853  0.0686  0.1171  0.2980
  169DOPC   C4A 1999  16.006  -0.261  12.015 -0.0838 -0.0526  0.1384
  169DOPC   C1B 2000  15.334   1.220  11.116 -0.0491  0.4235 -0.1272
  169DOPC   D2B 2001  15.409   1.479  11.498 -0.0847  0.3279 -0.0129
  169DOPC   C3B 2002  15.394   1.377  11.935  0.1338 -0.1164  0.1481
  169DOPC   C4B 2003  15.293   1.502  12.369 -0.1150  0.0856  0.0253
  170DOPC   NC3 2004  23.807   5.268  15.193  0.2085 -0.2222 -0.2185
  170DOPC   PO4 2005  24.023   5.564  15.046 -0.1984  0.1409 -0.1647
  170DOPC   GL1 2006  24.126   5.714  15.420  0.2318  0.1967 -0.0886
  170DOPC   GL2 2007  24.153   5.435  15.548 -0.1696 -0.0756 -0.1213
  170DOPC   C1A 2008  23.694   5.651  15.652  0.2871 -0.2231  0.3026
  170DOPC   D2A 2009  23.278   5.693  15.940  0.1599  0.0234  0.1481
  170DOPC   C3A 2010  22.884   5.719  16.140 -0.1336  0.1948 -0.1734
  170DOPC   C4A 2011  22.435   5.724  16.289  0.3147  0.1389  0.0346
  170DOPC   C1B 2012  24.008   5.533  15.991  0.0157 -0.0181 -0.0078
  170DOPC   D2B 2013  23.731   5.612  16.375 -0.0972 -0.1056 -0.3128
  170DOPC   C3B 2014  23.369   5.788  16.628  0.1945  0.0335  0.1165
  170DOPC   C4B 2015  22.872   5.782  16.713  0.0857  0.1112 -0.0600
  171DOPC   NC3 2016   3.055   1.448  18.570  0.0077 -0.0824 -0.4070
  171DOPC   PO4 2017   2.722   1.227  18.533  0.0835 -0.1255 -0.2928
  171DOPC   GL1 2018   2.631   1.188  18.838 -0.1160  0.0780 -0.0315
  171DOPC   GL2 2019   2.613   1.505  18.921 -0.2673 -0.3514 -0.4691
  171DOPC   C1A 2020   2.621   1.000  19.185  0.2254 -0.2796  0.2935
  171DOPC   D2A 2021   2.617   0.838  19.664  0.1951 -0.1648 -0.0778
  171DOPC   C3A 2022   2.740   1.213  19.894  0.3823 -0.3936 -0.1444
  171DOPC   C4A 2023   3.104   1.536  20.046  0.1139  0.0011  0.0323
  171DOPC   C1B 2024   2.402   1.705  19.316  0.1119 -0.1865  0.0181
  171DOPC   D2B 2025   2.087   1.669  19.703 -0.3169  0.2049 -0.2873
  171DOPC   C3B 2026   1.808   1.521  20.044  0.0356 -0.0434  0.0467
  171DOPC   C4B 2027   1.349   1.573  20.076 -0.0279 -0.2551 -0.0855
  172DOPC   NC3 2028   3.929   0.795  19.009 -0.1020 -0.2298  0.1678
  172DOPC   PO4 2029   3.583   0.704  18.845  0.0463 -0.0697 -0.3188
  172DOPC   GL1 2030   3.280   0.740  19.148  0.0474  0.1444 -0.0799
  172DOPC   GL2 2031   3.458   0.526  19.283  0.1109  0.1686  0.0147
  172DOPC   C1A 2032   3.099   1.021  19.367  0.0692  0.0779  0.0714
  172DOPC   D2A 2033   2.842   1.408  19.399 -0.0662  0.0345  0.0419
  172DOPC   C3A 2034   2.645   1.661  19.728 -0.1127  0.2154 -0.2098
  172DOPC   C4A 2035   2.424   2.047  19.977  0.1034  0.0799 -0.4536
  172DOPC   C1B 2036   3.483   0.417  19.719 -0.2184 -0.0621  0.0244
  172DOPC   D2B 2037   3.537   0.252  20.154  0.1336  0.0470 -0.1711
  172DOPC   C3B 2038   3.447  -0.179  20.172 -0.3090 -0.1430  0.2632
  172DOPC   C4B 2039   3.634  -0.611  20.403  0.3952 -0.1282 -0.0962
  173DOPC   NC3 2040   1.431   3.339  17.345  0.2390  0.3514  0.1285
  173DOPC   PO4 2041   1.533   2.981  17.434  0.1640 -0.3800 -0.0657
  173DOPC   GL1 2042   1.411   3.025  17.821 -0.3974 -0.0472  0.2317
  173DOPC   GL2 2043   1.681   3.138  17.816  0.2530 -0.0082  0.0488
  173DOPC   C1A 2044   1.182   3.191  18.206  0.1470  0.3711 -0.1511
  173DOPC   D2A 2045   0.696   3.218  18.445 -0.0087  0.2038  0.1370
  173DOPC   C3A 2046   0.540   3.454  18.815  0.3040  0.1604 -0.2690
  173DOPC   C4A 2047   0.394   3.683  19.184 -0.0850 -0.0124 -0.1055
  173DOPC   C1B 2048   1.719   2.906  18.180 -0.0989  0.0832  0.1255
  173DOPC   D2B 2049   1.721   2.914  18.666 -0.1536  0.1524  0.0278
  173DOPC   C3B 2050   1.368   2.784  18.874  0.1369  0.0068  0.1010
  173DOPC   C4B 2051   1.111   2.942  19.265  0.5215  0.0030  0.1276
  174DOPC   NC3 2052   0.276   2.027  16.452  0.3010 -0.2620  0.3114
  174DOPC   PO4 2053   0.022   1.983  16.168 -0.2250  0.0251  0.0858
  174DOPC   GL1 2054  -0.248   1.945  16.430  0.0290  0.0209 -0.2543
  174DOPC   GL2 2055  -0.311   1.613  16.441  0.5627  0.3878 -0.2019
  174DOPC   C1A 2056  -0.330   2.164  16.810 -0.1281 -0.3025  0.2942
  174DOPC   D2A 2057  -0.654   2.388  17.057  0.1473  0.0748  0.0663
  174DOPC   C3A 2058  -0.848   2.574  17.385  0.0955 -0.0178 -0.0607
  174DOPC   C4A 2059  -1.162   2.934  17.515  0.1220 -0.0942  0.1158
  174DOPC   C1B 2060  -0.687   1.497  16.680  0.1551  0.0782  0.0209
  174DOPC   D2B 2061  -0.553   1.352  17.117 -0.0533  0.0755 -0.0853
  174DOPC   C3B 2062  -0.797   0.996  17.291  0.0321  0.0328  0.1185
  174DOPC   C4B 2063  -1.194   0.871  17.561 -0.0185 -0.3177  0.2351
  175DOPC   NC3 2064   0.805   6.344  15.576  0.0976  0.1178  0.1716
  175DOPC   PO4 2065   0.421   6.396  15.755 -0.2574  0.0619  0.3363
  175DOPC   GL1 2066   0.253   6.408  16.130  0.1403  0.2216  0.3185
  175DOPC   GL2 2067   0.291   6.721  16.119  0.2787 -0.2569 -0.2267
  175DOPC   C1A 2068   0.512   6.190  16.403 -0.0521 -0.0701 -0.0336
  175DOPC   D2A 2069   0.630   5.887  16.796  0.0784 -0.0631 -0.0610
  175DOPC   C3A 2070   0.955   5.932  17.115 -0.1218 -0.2439  0.1907
  175DOPC   C4A 2071   1.320   6.191  17.445  0.0577 -0.0972  0.1911
  175DOPC   C1B 2072  -0.120   6.805  16.094 -0.0291 -0.0161  0.1703
  175DOPC   D2B 2073  -0.565   6.966  15.945 -0.4439 -0.1553  0.0691
  175DOPC   C3B 2074  -0.916   6.858  16.191  0.2868  0.2106  0.2666
  175DOPC   C4B 2075  -1.233   6.542  16.082  0.3652  0.1839 -0.2521
  176DOPA   PO4 2076   5.682   3.324  18.303 -0.0412  0.0502  0.1598
  176DOPA   GL1 2077   5.621   3.462  18.777 -0.3024 -0.1195 -0.1952
  176DOPA   GL2 2078   5.570   3.773  18.727  0.2887  0.0654 -0.0099
  176DOPA   C1A 2079   5.572   3.330  19.227 -0.0527  0.0373 -0.1082
  176DOPA   D2A 2080   5.740   3.175  19.637  0.0250  0.0154  0.1205
  176DOPA   C3A 2081   5.885   3.472  19.899 -0.1735 -0.1496 -0.0389
  176DOPA   C4A 2082   5.991   3.830  20.188  0.0553 -0.2792 -0.0562
  176DOPA   C1B 2083   5.561   3.825  19.144 -0.1786 -0.0748 -0.0035
  176DOPA   D2B 2084   5.401   3.946  19.616 -0.0038  0.3124  0.3812
  176DOPA   C3B 2085   5.455   4.052  20.053 -0.0233  0.2263 -0.0008
  176DOPA   C4B 2086   5.571   4.117  20.569 -0.0125  0.0060 -0.0688
  177DOPA   PO4 2087  11.410   2.042  12.098  0.0520 -0.0559 -0.3196
  177DOPA   GL1 2088  11.794   2.131  12.307 -0.1224  0.2176 -0.3482
  177DOPA   GL2 2089  11.813   1.860  12.407  0.4560 -0.0590  0.0617
  177DOPA   C1A 2090  11.925   2.453  12.616 -0.0910  0.0915  0.0110
  177DOPA   D2A 2091  12.249   2.644  12.948 -0.0804  0.2526  0.2309
  177DOPA   C3A 2092  12.698   2.809  12.928  0.0247  0.1582 -0.0301
  177DOPA   C4A 2093  13.093   3.039  13.045 -0.0715  0.0665 -0.0477
  177DOPA   C1B 2094  11.999   1.540  12.753 -0.2510  0.0337 -0.1729
  177DOPA   D2B 2095  12.405   1.642  13.091 -0.2596 -0.1442 -0.0389
  177DOPA   C3B 2096  12.413   1.891  13.434 -0.1551  0.1447 -0.3395
  177DOPA   C4B 2097  12.277   2.229  13.751  0.4460  0.0167  0.0026
  178DOPA   PO4 2098   1.147   6.290  16.302 -0.0836  0.1298 -0.4724
  178DOPA   GL1 2099   0.887   6.496  16.545 -0.3209 -0.1379 -0.2071
  178DOPA   GL2 2100   0.950   6.315  16.790  0.2008 -0.1803 -0.0848
  178DOPA   C1A 2101   0.499   6.701  16.570 -0.0120 -0.2680 -0.1698
  178DOPA   D2A 2102   0.013   6.982  16.555 -0.0791  0.0817  0.0421
  178DOPA   C3A 2103  -0.320   7.139  16.846 -0.0502  0.1063  0.2045
  178DOPA   C4A 2104  -0.595   7.301  17.242 -0.0788  0.1947 -0.0955
  178DOPA   C1B 2105   0.605   6.328  17.059 -0.0275  0.1705  0.0424
  178DOPA   D2B 2106   0.192   6.206  17.334 -0.0230  0.0410 -0.4188
  178DOPA   C3B 2107   0.514   5.903  17.308  0.1647  0.0277  0.0407
  178DOPA   C4B 2108   0.807   5.520  17.313 -0.4605 -0.2264 -0.1164
  179DOPA   PO4 2109  11.750   1.009  11.663 -0.1593 -0.1930  0.0594
  179DOPA   GL1 2110  11.683   1.253  12.049  0.1185  0.1608  0.0875
  179DOPA   GL2 2111  11.903   1.289  11.872 -0.2863  0.0582 -0.1645
  179DOPA   C1A 2112  11.833   1.157  12.486 -0.0199 -0.5239  0.2521
  179DOPA   D2A 2113  11.956   1.003  12.915  0.0843 -0.0662  0.2242
  179DOPA   C3A 2114  12.091   0.729  13.248  0.1820 -0.0240 -0.1535
  179DOPA   C4A 2115  12.348   0.841  13.655 -0.1674  0.0650  0.0097
  179DOPA   C1B 2116  12.202   1.166  12.159 -0.1660 -0.1730 -0.2376
  179DOPA   D2B 2117  12.409   1.265  12.645 -0.3075  0.0967  0.3718
  179DOPA   C3B 2118  12.775   1.348  12.946  0.1758  0.0434  0.4363
  179DOPA   C4B 2119  12.861   1.526  13.396 -0.0287  0.1969  0.0712
  180DOPA   PO4 2120  24.196   7.516  14.697 -0.0866 -0.0824  0.0281
  180DOPA   GL1 2121  23.800   7.402  14.903 -0.3143 -0.0014  0.0993
  180DOPA   GL2 2122  23.628   7.551  14.648  0.2057 -0.1622  0.0194
  180DOPA   C1A 2123  23.726   7.204  15.358 -0.4363  0.0266 -0.0987
  180DOPA   D2A 2124  23.392   7.136  15.721 -0.3554  0.0452  0.5158
  180DOPA   C3A 2125  22.957   7.029  15.867  0.0955 -0.2071 -0.0196
  180DOPA   C4A 2126  22.588   6.976  16.203  0.0091 -0.3129  0.0832
  180DOPA   C1B 2127  23.535   7.821  15.020  0.0870  0.0227  0.0018
  180DOPA   D2B 2128  23.699   8.254  15.161  0.1417  0.0078  0.1727
  180DOPA   C3B 2129  23.554   8.158  15.584  0.2204 -0.0691  0.2068
  180DOPA   C4B 2130  23.419   8.212  16.113  0.3913  0.2675 -0.1690
  181DOPA   PO4 2131   5.302   6.147  18.449 -0.0476 -0.2044  0.3585
  181DOPA   GL1 2132   5.597   5.991  18.762 -0.0902  0.2224 -0.2779
  181DOPA   GL2 2133   5.701   6.295  18.680  0.0774  0.1075 -0.4328
  181DOPA   C1A 2134   5.542   5.917  19.128 -0.1634 -0.0695  0.1813
  181DOPA   D2A 2135   5.359   6.064  19.567 -0.0522 -0.0725 -0.0708
  181DOPA   C3A 2136   5.422   5.820  19.927 -0.0706  0.1954  0.0881
  181DOPA   C4A 2137   5.360   5.930  20.376 -0.1851  0.1943  0.2130
  181DOPA   C1B 2138   5.652   6.572  18.946  0.1598  0.1013  0.0140
  181DOPA   D2B 2139   5.495   6.973  19.199  0.0596 -0.0979 -0.0990
  181DOPA   C3B 2140   5.674   7.174  19.567 -0.0528  0.1224 -0.2865
  181DOPA   C4B 2141   5.593   7.695  19.685  0.0928 -0.0523  0.0702
  182DOPA   PO4 2142   4.100   6.858  18.630  0.1311  0.0442  0.0800
  182DOPA   GL1 2143   3.987   6.837  18.997  0.0680 -0.0623 -0.0203
  182DOPA   GL2 2144   3.903   6.605  19.086 -0.3101 -0.0364 -0.0012
  182DOPA   C1A 2145   3.683   7.037  19.168 -0.1076  0.2080 -0.1952
  182DOPA   D2A 2146   3.381   7.376  19.382 -0.2767  0.1514 -0.1469
  182DOPA   C3A 2147   3.324   7.244  19.821  0.1595 -0.0600  0.2101
  182DOPA   C4A 2148   3.146   6.960  20.215 -0.1256  0.2188  0.1736
  182DOPA   C1B 2149   3.935   6.695  19.516 -0.1242 -0.0797  0.1715
  182DOPA   D2B 2150   4.154   6.923  19.849  0.1945 -0.0258 -0.0183
  182DOPA   C3B 2151   4.572   6.841  20.005 -0.1737 -0.0514  0.0047
  182DOPA   C4B 2152   5.037   6.948  20.179  0.0875  0.3463  0.3063
  183DOPA   PO4 2153  14.694   0.853  10.435 -0.1396  0.1292  0.4242
  183DOPA   GL1 2154  14.714   1.001  10.829 -0.2491 -0.0212  0.2391
  183DOPA   GL2 2155  14.938   1.223  10.709  0.0619 -0.0704  0.0536
  183DOPA   C1A 2156  14.966   0.931  11.183  0.1143  0.1700 -0.1031
  183DOPA   D2A 2157  15.294   0.961  11.574 -0.0634 -0.0556  0.1336
  183DOPA   C3A 2158  15.398   0.902  12.018 -0.0753  0.0678  0.0823
  183DOPA   C4A 2159  15.578   1.002  12.495  0.1943  0.0939 -0.0592
  183DOPA   C1B 2160  14.986   1.568  11.039  0.2157  0.1143 -0.3391
  183DOPA   D2B 2161  15.038   1.901  11.440 -0.0225 -0.0090  0.1652
  183DOPA   C3B 2162  14.574   1.848  11.508 -0.1427 -0.0498 -0.0287
  183DOPA   C4B 2163  14.126   1.987  11.549  0.0124  0.0317 -0.3076
  184DOPA   PO4 2164   1.190   5.361  16.354 -0.2420 -0.2742  0.0340
  184DOPA   GL1 2165   1.038   5.492  16.706  0.3336 -0.1203  0.1215
  184DOPA   GL2 2166   0.778   5.338  16.735 -0.1449 -0.2541  0.2639
  184DOPA   C1A 2167   1.257   5.586  17.087  0.1175  0.0279 -0.3049
  184DOPA   D2A 2168   1.308   5.355  17.554 -0.1608 -0.1930 -0.0507
  184DOPA   C3A 2169   1.053   5.419  17.985  0.0882  0.2037  0.4385
  184DOPA   C4A 2170   0.988   5.661  18.385  0.1649  0.0154  0.3191
  184DOPA   C1B 2171   0.471   5.470  16.967 -0.0159  0.0345  0.2026
  184DOPA   D2B 2172   0.042   5.717  17.083  0.2830  0.0674 -0.2007
  184DOPA   C3B 2173  -0.288   5.904  17.344 -0.1323  0.1262 -0.1811
  184DOPA   C4B 2174  -0.622   6.221  17.562  0.1962  0.0684  0.0316
  185DOPA   PO4 2175   1.927   3.298  17.401  0.4158  0.1836  0.2201
  185DOPA   GL1 2176   1.685   3.601  17.565  0.0098  0.0432 -0.0880
  185DOPA   GL2 2177   1.811   3.517  17.797 -0.3050  0.3387 -0.0280
  185DOPA   C1A 2178   1.329   3.527  17.795  0.0296  0.1267  0.0693
  185DOPA   D2A 2179   0.794   3.464  17.898 -0.0983 -0.1379 -0.1784
  185DOPA   C3A 2180   0.365   3.261  18.049  0.2865  0.0095 -0.0310
  185DOPA   C4A 2181   0.053   3.129  18.404  0.2118 -0.0560  0.0781
  185DOPA   C1B 2182   1.642   3.418  18.131  0.1342 -0.1034  0.0467
  185DOPA   D2B 2183   1.515   3.370  18.612  0.0012  0.3749  0.0895
  185DOPA   C3B 2184   1.512   3.196  19.069 -0.4096  0.1966 -0.0511
  185DOPA   C4B 2185   1.575   3.326  19.507  0.1507  0.0078 -0.1492
  186DOPA   PO4 2186   5.536   0.356  18.553 -0.3159 -0.1390  0.0546
  186DOPA   GL1 2187   5.786   0.533  18.908 -0.2520  0.4997 -0.2045
  186DOPA   GL2 2188   5.935   0.275  19.022  0.1138 -0.0484  0.1907
  186DOPA   C1A 2189   5.498   0.760  19.253  0.2099  0.1642  0.0632
  186DOPA   D2A 2190   5.221   1.037  19.572  0.2519 -0.1584 -0.0401
  186DOPA   C3A 2191   5.482   1.154  19.925 -0.0699  0.2177 -0.2847
  186DOPA   C4A 2192   5.415   0.737  20.234 -0.1235  0.1713  0.1279
  186DOPA   C1B 2193   6.258   0.100  19.261  0.1077  0.1011  0.2567
  186DOPA   D2B 2194   6.561  -0.155  19.562 -0.0055 -0.1624 -0.1695
  186DOPA   C3B 2195   6.633  -0.114  20.010  0.0579  0.0407 -0.0409
  186DOPA   C4B 2196   6.536  -0.171  20.465  0.0230  0.1567 -0.0507
  187DOPA   PO4 2197   6.951   3.831  17.577 -0.2072  0.0086 -0.1437
  187DOPA   GL1 2198   7.192   3.688  17.850 -0.2845  0.2091 -0.0736
  187DOPA   GL2 2199   7.415   3.784  17.615 -0.0053 -0.0647  0.0871
  187DOPA   C1A 2200   7.414   3.724  18.222  0.1749 -0.1524  0.3304
  187DOPA   D2A 2201   7.701   3.553  18.574  0.0607 -0.2173  0.2460
  187DOPA   C3A 2202   8.126   3.541  18.818  0.0667 -0.1591  0.1726
  187DOPA   C4A 2203   8.605   3.627  18.942 -0.2064 -0.1608 -0.2770
  187DOPA   C1B 2204   7.611   4.137  17.813  0.0078  0.0867  0.0884
  187DOPA   D2B 2205   7.961   4.408  18.143  0.1327  0.1023  0.0396
  187DOPA   C3B 2206   8.057   4.607  18.553  0.0214  0.2697 -0.3516
  187DOPA   C4B 2207   8.229   5.115  18.517  0.0432  0.0515 -0.0560
  188DOPA   PO4 2208   0.696   2.395  16.524 -0.2132 -0.0822 -0.0853
  188DOPA   GL1 2209   0.508   2.624  16.830  0.0047 -0.0967 -0.0369
  188DOPA   GL2 2210   0.701   2.674  17.067 -0.1896  0.0066 -0.2402
  188DOPA   C1A 2211   0.055   2.537  16.844 -0.0946  0.2942  0.2602
  188DOPA   D2A 2212  -0.356   2.713  16.803 -0.4777 -0.1402 -0.3386
  188DOPA   C3A 2213  -0.561   2.871  17.144  0.2270  0.1268  0.0529
  188DOPA   C4A 2214  -0.835   3.186  17.254  0.0588 -0.2040  0.0752
  188DOPA   C1B 2215   0.693   2.643  17.519 -0.0131  0.2079  0.1361
  188DOPA   D2B 2216   0.573   2.409  17.932 -0.0696  0.1466  0.3614
  188DOPA   C3B 2217   0.598   2.400  18.381 -0.0420 -0.0259 -0.0654
  188DOPA   C4B 2218   0.548   2.378  18.845 -0.0867  0.2864 -0.2206
  189DOPA   PO4 2219  16.840   2.899  10.253 -0.0718 -0.0284  0.0803
  189DOPA   GL1 2220  16.804   2.675  10.548 -0.0669 -0.0403 -0.0895
  189DOPA   GL2 2221  16.751   2.951  10.713 -0.0212 -0.0043  0.0705
  189DOPA   C1A 2222  16.901   2.538  10.906 -0.1892  0.1754  0.1066
  189DOPA   D2A 2223  17.169   2.256  11.256 -0.1861  0.0896  0.0243
  189DOPA   C3A 2224  17.077   2.379  11.677 -0.1988  0.3227  0.1836
  189DOPA   C4A 2225  17.282   2.272  12.173 -0.2391 -0.0506  0.0496
  189DOPA   C1B 2226  16.903   3.049  11.104 -0.1263 -0.1475 -0.0460
  189DOPA   D2B 2227  17.292   3.246  11.431  0.1641  0.0468 -0.1155
  189DOPA   C3B 2228  17.078   3.619  11.532  0.0480 -0.0807  0.0320
  189DOPA   C4B 2229  16.934   3.942  11.878  0.3130 -0.1318  0.0370
  190DOPA   PO4 2230   8.127   0.854  15.795 -0.3109  0.2097  0.3722
  190DOPA   GL1 2231   8.365   0.874  16.159  0.3326  0.2158  0.1294
  190DOPA   GL2 2232   8.265   1.135  16.224  0.2622 -0.3097  0.1328
  190DOPA   C1A 2233   8.572   0.447  16.336 -0.1086  0.1138  0.3268
  190DOPA   D2A 2234   8.743   0.041  16.507 -0.1940  0.1612  0.2174
  190DOPA   C3A 2235   8.969  -0.066  16.890 -0.0943 -0.0623  0.1345
  190DOPA   C4A 2236   9.253  -0.204  17.219 -0.0532  0.0494  0.1929
  190DOPA   C1B 2237   8.609   1.403  16.305 -0.2688  0.2082  0.0647
  190DOPA   D2B 2238   9.064   1.681  16.326  0.0168  0.1659 -0.0673
  190DOPA   C3B 2239   8.895   1.372  16.726 -0.1381  0.1935 -0.1914
  190DOPA   C4B 2240   8.736   1.041  17.069  0.2118 -0.1469  0.0660
  191DOPA   PO4 2241  20.618   6.389  12.103  0.3179  0.1476 -0.0969
  191DOPA   GL1 2242  20.402   6.346  12.442  0.3403 -0.1108 -0.2130
  191DOPA   GL2 2243  20.163   6.506  12.248  0.1758 -0.0867  0.0065
  191DOPA   C1A 2244  20.436   6.381  12.904  0.1521  0.0325 -0.0603
  191DOPA   D2A 2245  20.861   6.578  13.155  0.2615 -0.1129 -0.2048
  191DOPA   C3A 2246  20.649   6.741  13.501  0.0151  0.0258 -0.0187
  191DOPA   C4A 2247  20.424   6.709  13.958  0.0276 -0.0573  0.1348
  191DOPA   C1B 2248  19.908   6.626  12.606  0.0242  0.1544  0.1969
  191DOPA   D2B 2249  19.487   6.713  12.897  0.1064 -0.2723  0.6183
  191DOPA   C3B 2250  19.065   6.742  13.032  0.0387 -0.2158 -0.0948
  191DOPA   C4B 2251  18.897   6.551  13.493  0.3047 -0.2816  0.2553
  192DOPA   PO4 2252   3.880   6.334  18.649  0.1181 -0.0869 -0.2673
  192DOPA   GL1 2253   4.190   6.295  18.976  0.2740  0.1573 -0.2269
  192DOPA   GL2 2254   4.339   6.547  18.952  0.0744  0.2263 -0.1277
  192DOPA   C1A 2255   4.282   6.004  19.269 -0.0565  0.0025  0.1887
  192DOPA   D2A 2256   4.171   5.903  19.714  0.1178  0.0370 -0.5817
  192DOPA   C3A 2257   4.406   5.752  20.148  0.1079  0.1488 -0.1039
  192DOPA   C4A 2258   4.637   5.893  20.559  0.2147 -0.3162 -0.1015
  192DOPA   C1B 2259   4.332   6.641  19.292  0.0737  0.0455 -0.2998
  192DOPA   D2B 2260   4.392   6.420  19.734 -0.1724 -0.1620  0.2301
  192DOPA   C3B 2261   4.695   6.342  20.118 -0.0251  0.3340 -0.0882
  192DOPA   C4B 2262   4.845   6.508  20.572  0.0125  0.0402  0.0798
  193DOPA   PO4 2263   3.550   1.162  18.614  0.0221  0.0600 -0.0887
  193DOPA   GL1 2264   3.769   1.259  19.001  0.1443  0.1138  0.2199
  193DOPA   GL2 2265   3.489   1.085  19.156  0.0931 -0.2300  0.3887
  193DOPA   C1A 2266   3.937   1.667  19.247  0.0119  0.3940 -0.0626
  193DOPA   D2A 2267   4.203   2.012  19.509 -0.0307  0.0279 -0.0602
  193DOPA   C3A 2268   4.270   2.336  19.747  0.0635  0.0591  0.0339
  193DOPA   C4A 2269   4.361   2.765  20.001 -0.2601 -0.0709  0.3466
  193DOPA   C1B 2270   3.648   0.883  19.553  0.1310 -0.2527 -0.1665
  193DOPA   D2B 2271   3.593   0.778  20.025 -0.1399  0.1772 -0.2146
  193DOPA   C3B 2272   3.974   0.504  20.206 -0.2532  0.0989 -0.0089
  193DOPA   C4B 2273   4.107   0.161  20.541  0.3323 -0.1055  0.0316
  194DOPA   PO4 2274   5.615   1.223  18.266  0.2114  0.1828  0.1281
  194DOPA   GL1 2275   5.739   1.250  18.635  0.2747  0.3027  0.0292
  194DOPA   GL2 2276   5.489   1.348  18.736  0.0387  0.0224  0.2759
  194DOPA   C1A 2277   5.859   0.973  18.965 -0.0944  0.2469 -0.0802
  194DOPA   D2A 2278   6.023   0.621  19.284 -0.0225  0.1792  0.1023
  194DOPA   C3A 2279   6.386   0.724  19.556 -0.1899 -0.2679  0.1258
  194DOPA   C4A 2280   6.606   0.636  19.968  0.0150 -0.0760  0.1033
  194DOPA   C1B 2281   5.512   1.303  19.146 -0.2383  0.0385  0.4906
  194DOPA   D2B 2282   5.858   1.171  19.500 -0.0309  0.0353  0.1657
  194DOPA   C3B 2283   5.932   0.803  19.791  0.1671  0.0396 -0.1879
  194DOPA   C4B 2284   5.759   0.449  20.085 -0.1637  0.1007 -0.0145
  195DOPA   PO4 2285  12.306   7.043  11.756 -0.0039 -0.3596  0.1150
  195DOPA   GL1 2286  12.222   7.049  12.130  0.2153 -0.2532 -0.1160
  195DOPA   GL2 2287  12.272   7.325  12.169 -0.3392 -0.2948  0.3090
  195DOPA   C1A 2288  12.449   7.028  12.507 -0.3154  0.0696 -0.0458
  195DOPA   D2A 2289  12.609   7.277  12.988 -0.0369 -0.1887 -0.1985
  195DOPA   C3A 2290  12.868   7.234  13.341  0.1418  0.0933  0.0518
  195DOPA   C4A 2291  13.147   7.070  13.689  0.0552  0.3047 -0.0959
  195DOPA   C1B 2292  12.685   7.429  12.291 -0.2079 -0.1317 -0.3066
  195DOPA   D2B 2293  13.192   7.438  12.418  0.3007 -0.0318 -0.0946
  195DOPA   C3B 2294  13.569   7.358  12.645 -0.0241 -0.4080  0.1029
  195DOPA   C4B 2295  14.008   7.351  12.888  0.1633  0.1732  0.3679
  196DOPA   PO4 2296  24.263   1.430  15.276 -0.0417 -0.2534 -0.0097
  196DOPA   GL1 2297  24.200   1.626  15.654  0.2583 -0.3833  0.1394
  196DOPA   GL2 2298  23.924   1.566  15.632  0.1574 -0.0928 -0.0688
  196DOPA   C1A 2299  24.223   1.728  16.046 -0.0027 -0.1407 -0.0570
  196DOPA   D2A 2300  24.265   1.993  16.507  0.1779  0.2455 -0.1256
  196DOPA   C3A 2301  24.085   1.861  16.918 -0.0545  0.1397  0.1650
  196DOPA   C4A 2302  23.723   1.774  17.305 -0.1440 -0.2432 -0.0794
  196DOPA   C1B 2303  23.648   1.594  16.021 -0.2144  0.0822  0.1186
  196DOPA   D2B 2304  23.766   1.716  16.488  0.3367  0.1665 -0.1767
  196DOPA   C3B 2305  23.557   1.881  16.790  0.3022  0.0403  0.0694
  196DOPA   C4B 2306  23.304   2.124  17.145  0.0164  0.0931 -0.0530
  197DOPA   PO4 2307  12.879   2.265  10.538 -0.1030 -0.0689  0.1111
  197DOPA   GL1 2308  13.146   2.098  10.896 -0.4819  0.0912  0.1307
  197DOPA   GL2 2309  12.907   2.047  11.081 -0.1890 -0.0579  0.0474
  197DOPA   C1A 2310  13.481   2.209  11.250 -0.0725 -0.1640 -0.2917
  197DOPA   D2A 2311  13.753   2.254  11.683 -0.1811 -0.2697 -0.0949
  197DOPA   C3A 2312  13.890   2.197  12.129  0.0812 -0.0578 -0.0715
  197DOPA   C4A 2313  14.167   2.133  12.539  0.0590 -0.0558 -0.1855
  197DOPA   C1B 2314  13.028   2.238  11.466 -0.1601  0.3841 -0.1747
  197DOPA   D2B 2315  13.340   2.492  11.775  0.1179 -0.0691  0.0886
  197DOPA   C3B 2316  13.469   2.806  12.115 -0.1443  0.0870 -0.1990
  197DOPA   C4B 2317  13.738   3.050  12.458  0.0169  0.2594 -0.0994
  198DOPA   PO4 2318   0.007   7.342  15.475  0.3417  0.0084  0.0354
  198DOPA   GL1 2319  -0.309   7.484  15.742 -0.2590 -0.1960  0.0417
  198DOPA   GL2 2320  -0.178   7.326  15.968  0.3155 -0.2550  0.0645
  198DOPA   C1A 2321  -0.731   7.436  15.762 -0.1108 -0.2521 -0.1758
  198DOPA   D2A 2322  -1.165   7.336  15.885  0.0184  0.2190  0.1724
  198DOPA   C3A 2323  -1.397   7.063  16.190 -0.0775  0.1096  0.1096
  198DOPA   C4A 2324  -1.582   6.681  16.379 -0.2426 -0.2267  0.0448
  198DOPA   C1B 2325  -0.460   7.165  16.365  0.0643  0.0036  0.0796
  198DOPA   D2B 2326  -0.766   6.974  16.759  0.0447  0.4278  0.0058
  198DOPA   C3B 2327  -1.005   7.055  17.157  0.1679 -0.0636  0.2911
  198DOPA   C4B 2328  -1.029   6.793  17.552 -0.0388  0.2790 -0.1353
  199DOPA   PO4 2329  19.014   1.519  10.816  0.2360  0.2055  0.0709
  199DOPA   GL1 2330  18.892   1.596  11.175  0.1831 -0.0767 -0.3671
  199DOPA   GL2 2331  18.600   1.449  11.041  0.0066  0.3146 -0.0128
  199DOPA   C1A 2332  18.985   1.617  11.542  0.1908 -0.0500  0.0402
  199DOPA   D2A 2333  19.147   1.490  12.054 -0.1596  0.3315  0.3431
  199DOPA   C3A 2334  18.998   1.612  12.440 -0.0457  0.0365  0.0385
  199DOPA   C4A 2335  18.876   1.762  12.912 -0.0929 -0.0637  0.0497
  199DOPA   C1B 2336  18.371   1.241  11.335 -0.1076 -0.2996  0.0565
  199DOPA   D2B 2337  18.093   1.109  11.757  0.0146  0.1590  0.1820
  199DOPA   C3B 2338  18.129   1.232  12.220 -0.2853 -0.0600 -0.0318
  199DOPA   C4B 2339  18.113   1.375  12.681  0.0249 -0.0245 -0.5278
  200DOPA   PO4 2340   6.218   0.324  18.089  0.1683 -0.2621 -0.2577
  200DOPA   GL1 2341   6.498   0.306  18.390 -0.1625  0.2499 -0.0783
  200DOPA   GL2 2342   6.378   0.193  18.634 -0.1008  0.2029 -0.1397
  200DOPA   C1A 2343   6.872   0.170  18.449 -0.1342 -0.2318 -0.4000
  200DOPA   D2A 2344   7.309   0.022  18.595 -0.0449 -0.0394 -0.0111
  200DOPA   C3A 2345   7.613  -0.353  18.671 -0.1007 -0.1601 -0.3186
  200DOPA   C4A 2346   7.946  -0.719  18.729  0.0653  0.1976  0.2316
  200DOPA   C1B 2347   6.700   0.039  18.884  0.2451 -0.1116  0.0938
  200DOPA   D2B 2348   7.018  -0.005  19.172 -0.0183 -0.0230 -0.0423
  200DOPA   C3B 2349   7.365   0.173  19.114  0.2178 -0.0124 -0.1567
  200DOPA   C4B 2350   7.785   0.448  19.171  0.0525 -0.1754  0.1305
  201W        W 2351  11.391   6.115  31.206 -0.0665 -0.1489 -0.1201
  202W        W 2352   6.264   3.562  22.828  0.0936 -0.1000  0.3072
  203W        W 2353   4.654   6.067  28.193  0.1222 -0.2323  0.1041
  204W        W 2354   2.552   0.745  29.420 -0.2681  0.1962  0.0594
  205W        W 2355  14.110   0.460   1.057  0.1701  0.2193 -0.1870
  206W        W 2356  14.820   5.437  17.354  0.2206  0.3330  0.3355
  207W        W 2357   8.113   5.715  24.325  0.0957  0.0076 -0.0026
  208W        W 2358   5.802   4.475  12.603 -0.0700 -0.1620 -0.1570
  209W        W 2359  14.809   4.902  24.180 -0.1408  0.0117 -0.3167
  210W        W 2360   9.267   4.506  28.192 -0.0133  0.0816  0.2019
  211W        W 2361  12.364   7.652   0.694  0.1861 -0.0383 -0.0281
  212W        W 2362  16.203   5.581  20.691 -0.1364  0.3276 -0.2093
  213W        W 2363  22.529   0.178  24.941  0.2558  0.1399  0.0327
  214W        W 2364   6.575   1.961   4.672  0.2139  0.3651  0.0998
  215W        W 2365   7.634   6.952   7.120  0.1282  0.1135  0.1191
  216W        W 2366   4.946   0.007   5.838  0.0996 -0.2082  0.0481
  217W        W 2367   0.086   5.923  11.783  0.0762  0.1964 -0.2145
  218W        W 2368  23.406   6.346   4.247  0.0931  0.1387 -0.1650
  219W        W 2369  16.643   0.345   6.967  0.1849 -0.0484 -0.0242
  220W        W 2370  20.681   3.613  17.661  0.0102  0.1113 -0.5721
  221W        W 2371   4.004   7.007  10.227  0.2451  0.1056  0.0335
  222W        W 2372  24.180   1.200   7.370  0.1658  0.1197 -0.0672
  223W        W 2373  19.065   5.759   2.965 -0.0111  0.0326  0.2410
  224W        W 2374  15.542   2.150   9.074 -0.0299  0.0001  0.1482
  225W        W 2375   5.870   7.428   2.671  0.0027 -0.4434 -0.0760
  226W        W 2376  14.057   3.368  31.554 -0.0052 -0.0770 -0.0407
  227W        W 2377  18.960   0.760  31.296  0.0398  0.0127 -0.2056
  228W        W 2378  18.426   6.656  18.830 -0.2068  0.1457 -0.3212
  229W        W 2379   4.327   6.215  29.049  0.0699 -0.3580  0.0206
  230W        W 2380   7.151   7.552  10.803 -0.0356 -0.2972  0.0560
  231W        W 2381  15.253   3.531  21.540 -0.1733  0.0381 -0.0254
  232W        W 2382   2.137   5.998  30.710 -0.0514 -0.2006  0.1939
  233W        W 2383  14.761   1.545  24.417  0.1773  0.2845  0.3062
  234W        W 2384  20.219   1.041  10.555 -0.0133  0.1143 -0.2288
  235W        W 2385  17.531   5.070  27.445  0.1984  0.3390  0.1031
  236W        W 2386   9.472   5.853  30.547  0.0603 -0.0740  0.1942
  237W        W 2387   6.292   2.390   3.574  0.0896 -0.0486  0.0395
  238W        W 2388   9.243   5.713   2.576  0.0926 -0.2742 -0.1194
  239W        W 2389   1.739   3.506  16.481  0.4086 -0.0662 -0.1603
  240W        W 2390   8.918   4.957  22.022  0.1843 -0.1360  0.0418
  241W        W 2391  11.066   7.536  24.461 -0.0359 -0.1147 -0.0322
  242W        W 2392   1.219   3.034   4.360  0.0017 -0.2463  0.1380
  243W        W 2393   2.792   0.051  24.075 -0.1049 -0.5196  0.1626
  244W        W 2394   2.024   6.347  32.437 -0.1198  0.0350 -0.1201
  245W        W 2395   1.084   4.956  16.647 -0.0332 -0.0098 -0.2706
  246W        W 2396   1.936   5.925  28.144 -0.1198 -0.0483  0.0287
  247W        W 2397  12.698   1.713   1.154  0.0577 -0.1609  0.3002
  248W        W 2398   1.630   5.400   7.067 -0.0946 -0.0185 -0.2498
  249W        W 2399   2.401   0.740   2.523 -0.1468 -0.0712 -0.0501
  250W        W 2400  14.744   6.793   1.472 -0.1975  0.0045  0.0225
  251W        W 2401  12.054   4.172   2.695  0.0146 -0.0491  0.0850
  252W        W 2402  24.080   2.932  31.079 -0.3752  0.2472 -0.2814
  253W        W 2403   1.838   6.259   4.778  0.2271 -0.0067  0.1505
  254W        W 2404   3.107   6.863  16.168 -0.0848  0.1613 -0.2438
  255W        W 2405   9.252   7.205  13.332  0.0921  0.1523 -0.5364
  256W        W 2406  21.118   0.627  23.781  0.1454 -0.1408  0.1695
  257W        W 2407  23.105   2.691   1.121 -0.0713 -0.0748  0.0577
  258W        W 2408  13.410   0.147   3.826  0.2397 -0.3258 -0.0503
  259W        W 2409  20.294   0.862  26.785 -0.2364 -0.1103  0.1980
  260W        W 2410  13.096   5.338   7.126 -0.0190 -0.3139 -0.1920
  261W        W 2411  11.305   4.965  18.282  0.0079 -0.0221  0.2358
  262W        W 2412  20.374   0.340   1.012 -0.0921  0.2692 -0.0004
  263W        W 2413  24.803   4.031   0.743 -0.1652 -0.1325 -0.0505
  264W        W 2414  20.856   4.458   1.278 -0.2765 -0.2342 -0.3224
  265W        W 2415  21.786   1.914   7.165 -0.0120 -0.2959  0.0368
  266W        W 2416  21.275   0.484   7.410  0.0343 -0.0539 -0.0072
  267W        W 2417  19.273   0.370   8.161  0.1000 -0.2880 -0.0438
  268W        W 2418  14.417   4.778   9.343 -0.1844  0.0153  0.2237
  269W        W 2419   6.693   5.104   7.615 -0.0272 -0.0397  0.0860
  270W        W 2420  10.992   6.007   8.322  0.1103 -0.1407  0.0223
  271W        W 2421   7.121   5.784  29.083 -0.0590  0.3774 -0.1025
  272W        W 2422   1.748   4.894  12.194  0.1551 -0.0399 -0.0739
  273W        W 2423  14.528   6.841  30.437  0.3752 -0.1222  0.1161
  274W        W 2424   9.739   2.043   1.223 -0.1413  0.0065 -0.4489
  275W        W 2425   3.793   0.807  16.610 -0.0092 -0.1578 -0.2675
  276W        W 2426  14.955   1.780  31.619 -0.0920 -0.0203  0.1954
  277W        W 2427  17.596   5.232  30.013  0.2327  0.1864  0.1231
  278W        W 2428   2.663   2.999   5.005  0.0237  0.0487  0.1482
  279W        W 2429  13.330   4.168  25.015  0.0515 -0.2411  0.0170
  280W        W 2430  24.687   6.665  21.457 -0.3095 -0.1960  0.2003
  281W        W 2431  10.840   6.379  23.782 -0.0071  0.1351  0.0993
  282W        W 2432  12.171   2.423  17.944  0.0658  0.1216  0.2587
  283W        W 2433   3.088   4.940  11.940  0.0999 -0.2627  0.2055
  284W        W 2434  22.434   5.516  10.155  0.2267 -0.0099  0.2671
  285W        W 2435  18.334   4.390  22.282 -0.1512 -0.2337  0.0962
  286W        W 2436  14.346   1.961  17.443  0.0450  0.1027 -0.2119
  287W        W 2437  21.952   6.200  23.452  0.0656 -0.0061  0.1712
  288W        W 2438  15.152   6.089  18.657  0.2894 -0.1786 -0.0160
  289W        W 2439  24.385   3.261   3.284 -0.1050  0.1167  0.0165
  290W        W 2440   8.392   1.376  25.909  0.1142  0.2515  0.0461
  291W        W 2441  23.464   0.573  24.566  0.0600  0.3149  0.1198
  292W        W 2442   8.021   2.564  15.024  0.1739  0.2228 -0.1823
  293W        W 2443  10.049   3.705   2.867  0.3331 -0.0057 -0.1176
  294W        W 2444  23.491   0.395  22.679 -0.0178  0.0446 -0.1230
  295W        W 2445  23.414   5.943  26.771  0.0937  0.1873  0.0121
  296W        W 2446   6.375   1.732   0.290  0.2914 -0.0210 -0.2848
  297W        W 2447   0.126   0.093  31.546 -0.2520 -0.1510  0.0383
  298W        W 2448   5.956   5.273  12.425  0.2455  0.1199 -0.1241
  299W        W 2449  24.031   3.190  32.533 -0.1289  0.1770 -0.1513
  300W        W 2450   4.649   7.649  29.727 -0.0069  0.4413  0.1856
  301W        W 2451  10.467   7.641  24.577  0.1156 -0.0879 -0.1221
  302W        W 2452   3.463   6.334   6.205  0.0620 -0.1477 -0.2150
  303W        W 2453  22.125   6.786   6.585  0.0484  0.2190  0.0498
  304W        W 2454  18.184   2.792  22.852 -0.1792  0.2172  0.0274
  305W        W 2455   8.493   0.564  11.088  0.2759  0.1682  0.1819
  306W        W 2456  14.871   6.587  27.194 -0.0789  0.0880  0.1836
  307W        W 2457   9.647   1.363  26.196 -0.0983 -0.4252 -0.2303
  308W        W 2458  17.338   4.380  32.280  0.2011 -0.2333 -0.0903
  309W        W 2459   1.116   0.642  13.379  0.0005 -0.0122  0.0266
  310W        W 2460   0.135   6.976   9.842  0.1434 -0.1311  0.0391
  311W        W 2461  18.017   7.082  15.467 -0.0362  0.3131  0.3786
  312W        W 2462  15.184   1.779   9.487  0.1827  0.0286 -0.1104
  313W        W 2463   0.941   3.187  12.276 -0.0093  0.1730  0.1294
  314W        W 2464  15.483   7.516  29.928  0.3100 -0.0231  0.1524
  315W        W 2465   8.441   0.996  15.387 -0.1581 -0.2880  0.1070
  316W        W 2466  18.018   3.614   3.250  0.1210 -0.2457 -0.0834
  317W        W 2467   4.889   1.785  14.668 -0.1648 -0.4632 -0.0528
  318W        W 2468  17.632   1.380   8.396  0.3816 -0.0174 -0.1338
  319W        W 2469   3.099   0.354  23.709 -0.1173  0.2125 -0.1077
  320W        W 2470   6.670   2.501  16.812  0.0836  0.1059 -0.2066
  321W        W 2471   7.188   1.352  31.418 -0.2247 -0.0182  0.2176
  322W        W 2472  21.250   3.552  19.511  0.0859  0.1192 -0.1789
  323W        W 2473  22.680   0.821   0.868 -0.0326 -0.1403 -0.1397
  324W        W 2474  14.288   2.951   2.685 -0.0431 -0.1073 -0.0153
  325W        W 2475  13.839   2.799  18.333  0.4349 -0.2282  0.0671
  326W        W 2476   2.225   2.872   2.831 -0.2327  0.1206  0.1663
  327W        W 2477  12.038   7.458  23.832  0.3809 -0.2545 -0.1713
  328W        W 2478  15.762   5.743  16.376  0.1886  0.2052 -0.1730
  329W        W 2479  10.169   2.925   2.676  0.0094 -0.2015 -0.0218
  330W        W 2480  12.887   2.871   7.151  0.1656  0.2675 -0.2552
  331W        W 2481   9.301   1.386  22.312  0.0959 -0.0688  0.0457
  332W        W 2482   8.104   6.513   7.552  0.1686 -0.1001 -0.0046
  333W        W 2483   0.002   7.168   0.641  0.0630 -0.0656  0.3035
  334W        W 2484  23.347   3.027   0.689  0.1319  0.0191  0.0638
  335W        W 2485  12.068   2.023  18.808  0.1221  0.0118 -0.1832
  336W        W 2486   4.445   0.059  32.739  0.2858 -0.0085  0.0194
  337W        W 2487  18.070   6.510   2.538  0.2496  0.1539  0.1385
  338W        W 2488  22.243   6.624   2.173 -0.2073 -0.0823  0.1724
  339W        W 2489  23.986   3.521   9.374  0.3104  0.1890 -0.1168
  340W        W 2490  18.324   0.443   1.839 -0.1737 -0.1830  0.0130
  341W        W 2491  15.538   1.206  10.102 -0.2236  0.2679  0.0248
  342W        W 2492  13.479   6.765  28.386  0.0927 -0.0739  0.0755
  343W        W 2493   2.372   4.874  28.704 -0.2161  0.1261  0.1480
  344W        W 2494   2.634   0.345  17.341  0.1365  0.2648  0.0406
  345W        W 2495   1.720   4.155   4.336  0.0235  0.4534  0.0422
  346W        W 2496   0.187   7.299  28.253  0.0030  0.1256  0.2076
  347W        W 2497  16.521   0.928   9.474  0.0733 -0.0371 -0.2251
  348W        W 2498  20.660   4.212  30.593 -0.1416 -0.0316 -0.0690
  349W        W 2499   3.397   0.871  30.355  0.0165 -0.1916 -0.1528
  350W        W 2500   5.604   3.760  14.761 -0.1330 -0.2436  0.5409
  351W        W 2501   3.960   6.304   6.229  0.1194 -0.3082 -0.0213
  352W        W 2502  13.446   4.749  29.955 -0.0863  0.1116  0.1900
  353W        W 2503  11.549   5.578   7.823 -0.2431 -0.1120  0.4455
  354W        W 2504   4.856   4.812  27.823 -0.0114 -0.0834 -0.1488
  355W        W 2505   9.494   7.127   7.619 -0.1922  0.0148  0.2168
  356W        W 2506  20.312   1.201  31.416 -0.3392  0.0769 -0.0443
  357W        W 2507   9.889   0.377  32.528 -0.0095 -0.3150  0.3946
  358W        W 2508   3.734   5.204   0.162 -0.3148  0.0227 -0.0073
  359W        W 2509  11.189   0.292  26.140  0.0071 -0.1068 -0.2326
  360W        W 2510   8.255   3.053   2.349 -0.2190 -0.3121  0.1490
  361W        W 2511  18.438   4.024  27.127  0.1957  0.0220  0.2563
  362W        W 2512  22.534   6.023   4.519 -0.1346 -0.1129  0.2371
  363W        W 2513   6.554   4.280  25.200  0.0493 -0.4431  0.2684
  364W        W 2514  15.356   7.135   3.114  0.0882 -0.0269  0.0505
  365W        W 2515   9.053   0.089   4.832 -0.2224 -0.3466  0.1619
  366W        W 2516   0.774   0.305  22.070 -0.0523 -0.0157 -0.1356
  367W        W 2517   6.729   2.766   4.340  0.1150 -0.1229  0.1206
  368W        W 2518   5.478   6.270  24.202 -0.2378 -0.3607  0.1558
  369W        W 2519   7.254   5.307  28.268 -0.1073  0.1415  0.0372
  370W        W 2520  20.579   7.389  23.132 -0.1765  0.1735  0.1824
  371W        W 2521  16.403   2.978   8.223  0.1637  0.0790 -0.1751
  372W        W 2522   9.075   1.095  10.716 -0.2475  0.0805  0.1157
  373W        W 2523  11.304   0.014  31.207  0.1304 -0.2871 -0.1156
  374W        W 2524  19.471   1.919   3.736  0.2294  0.0774  0.7067
  375W        W 2525  21.492   1.034   4.534 -0.2530 -0.1094 -0.1834
  376W        W 2526  21.517   2.190   7.584  0.0656  0.2996  0.2587
  377W        W 2527  13.206   2.563  22.796  0.0547 -0.1534 -0.0133
  378W        W 2528  10.628   0.682   1.881  0.0988  0.0752 -0.2582
  379W        W 2529  17.430   0.163   1.565  0.5314  0.1637 -0.2466
  380W        W 2530   9.622   5.043  12.211  0.4083  0.0034  0.1305
  381W        W 2531   7.303   7.244   4.397 -0.0960 -0.0278 -0.3128
  382W        W 2532  18.949   7.494  24.843 -0.2738 -0.2244 -0.1670
  383W        W 2533  19.765   0.110  10.238 -0.0022 -0.0286  0.1068
  384W        W 2534  15.245   3.068   0.051 -0.2708 -0.0575 -0.0347
  385W        W 2535   3.251   1.759  17.775  0.0636  0.2309  0.0332
  386W        W 2536  19.958   6.980   9.851  0.0670 -0.1533 -0.3256
  387W        W 2537  14.376   1.258   2.706  0.0997  0.1500  0.0899
  388W        W 2538  18.224   5.904  18.293 -0.1555 -0.0633 -0.2715
  389W        W 2539  14.422   2.084   7.216  0.2854  0.1322  0.0964
  390W        W 2540   5.350   6.097  25.789  0.1761  0.1220 -0.2238
  391W        W 2541  10.857   5.667  11.762  0.0829 -0.0159 -0.0728
  392W        W 2542   7.308   5.025  14.958 -0.1685 -0.0665  0.1281
  393W        W 2543  24.004   0.874  29.331  0.1004  0.3334 -0.1698
  394W        W 2544  22.615   2.624  27.345  0.4498  0.1327 -0.0497
  395W        W 2545  21.467   2.828   8.345 -0.0541  0.0318  0.1786
  396W        W 2546   5.446   5.327  29.431  0.2276  0.1163  0.1007
  397W        W 2547  20.095   1.906   5.700 -0.3838  0.0240 -0.1757
  398W        W 2548  18.082   7.138  23.638 -0.0222  0.5588  0.0991
  399W        W 2549  21.343   0.997  18.378 -0.5211 -0.0732 -0.0088
  400W        W 2550   2.291   5.101  13.866 -0.4248 -0.2786  0.1785
  401W        W 2551  13.657   1.353   4.679 -0.0472 -0.1802  0.0791
  402W        W 2552  17.261   7.412  24.447 -0.1979  0.0247 -0.1640
  403W        W 2553  14.860   0.284   8.529 -0.0974 -0.1772 -0.0331
  404W        W 2554  23.741   5.770   3.063  0.1081  0.1147 -0.2794
  405W        W 2555  13.076   2.729   4.057  0.0293  0.2595  0.0504
  406W        W 2556   4.668   5.967   8.914 -0.0647  0.0863 -0.2199
  407W        W 2557  21.523   0.810  26.683  0.3119 -0.2928  0.1418
  408W        W 2558  11.299   6.597  25.459  0.0064 -0.0347  0.1142
  409W        W 2559   0.025   4.405   1.037 -0.0185 -0.0255  0.0460
  410W        W 2560   6.004   3.097   0.984  0.2912 -0.0316 -0.4232
  411W        W 2561   6.103   1.648  27.175 -0.3262  0.0464  0.0510
  412W        W 2562  19.268   3.813  21.810  0.0732 -0.0589 -0.0144
  413W        W 2563  12.955   4.664  24.648  0.2165 -0.3029 -0.2794
  414W        W 2564  12.040   4.583  30.559 -0.2210  0.0295 -0.0520
  415W        W 2565  20.012   3.188   8.270  0.0725  0.1894 -0.0137
  416W        W 2566  11.534   7.075  26.539 -0.0956 -0.4246  0.0402
  417W        W 2567   5.505   7.378  32.139 -0.1286 -0.3394 -0.1318
  418W        W 2568  16.818   3.694  30.304 -0.0085 -0.3134 -0.0661
  419W        W 2569  17.253   2.691  17.196  0.0131  0.0107 -0.1216
  420W        W 2570  19.952   2.271   1.702  0.1131 -0.0333 -0.0556
  421W        W 2571  19.414   1.861  18.582 -0.2039  0.1571  0.2217
  422W        W 2572  19.443   1.404   3.962  0.1120  0.0517 -0.0594
  423W        W 2573   5.240   0.399  11.570  0.0339  0.0173 -0.0735
  424W        W 2574  14.763   2.188  32.130 -0.1409 -0.2741 -0.2218
  425W        W 2575  17.791   2.126  19.263  0.1342 -0.0723 -0.0357
  426W        W 2576  13.087   4.643  30.298 -0.0524  0.3462 -0.0591
  427W        W 2577  23.377   1.661   3.226  0.3447 -0.0416 -0.1150
  428W        W 2578  24.342   0.480  27.580 -0.0951  0.1399  0.0498
  429W        W 2579   4.344   3.490   2.429  0.0088  0.6828 -0.1608
  430W        W 2580  14.167   3.139  27.489 -0.2119 -0.3040 -0.0609
  431W        W 2581  10.950   4.136   8.048 -0.1240  0.0192 -0.0972
  432W        W 2582   0.827   0.161  31.975 -0.1955  0.2516 -0.0878
  433W        W 2583  21.166   4.260  24.482  0.1294  0.0397  0.2973
  434W        W 2584  18.518   2.837  19.336  0.1910 -0.3893 -0.0000
  435W        W 2585  11.452   3.618   0.010  0.2447  0.0804  0.4178
  436W        W 2586   4.368   3.518  14.108  0.0487  0.3317  0.0664
  437W        W 2587   2.760   2.938  12.147  0.4223  0.0496  0.0221
  438W        W 2588  24.007   3.519   7.571 -0.1007  0.0113  0.0052
  439W        W 2589  24.943   1.691  32.106 -0.2179  0.0383 -0.0707
  440W        W 2590   8.747   0.315   7.931 -0.0924 -0.3119 -0.3507
  441W        W 2591  11.373   1.296  20.210 -0.2243 -0.1141  0.0877
  442W        W 2592  15.623   4.363   8.281 -0.0330 -0.3169 -0.2048
  443W        W 2593   5.355   1.588  14.601  0.1921 -0.0871 -0.2063
  444W        W 2594  20.346   4.006  25.516 -0.0320  0.0108 -0.3246
  445W        W 2595   8.451   5.116  12.833 -0.1662  0.0134 -0.1276
  446W        W 2596  20.153   4.092  22.997  0.0416 -0.1445  0.0549
  447W        W 2597   0.703   1.418  31.340 -0.0484  0.2537 -0.2512
  448W        W 2598   6.156   5.550   4.840 -0.0431  0.0198 -0.0727
  449W        W 2599  22.326   1.486  30.122 -0.1336 -0.0656  0.2362
  450W        W 2600  14.300   6.871   6.001 -0.2317 -0.1076  0.1928
  451W        W 2601  20.129   5.689   2.259  0.2387 -0.0096  0.2137
  452W        W 2602  13.672   5.101  19.787 -0.0583 -0.1120  0.2797
  453W        W 2603  11.511   4.181  19.457 -0.1839  0.2628 -0.2454
  454W        W 2604   3.056   3.373  27.945 -0.0998  0.3684  0.0847
  455W        W 2605  13.047   3.423   5.269 -0.0090 -0.3258  0.1704
  456W        W 2606  12.261   2.332   4.282  0.1136  0.0215  0.0382
  457W        W 2607  12.132   2.891  19.071  0.0725 -0.2187 -0.3351
  458W        W 2608   4.959   2.841  32.004 -0.1274 -0.0861  0.0040
  459W        W 2609  15.698   3.661  15.749 -0.2493 -0.1526 -0.0380
  460W        W 2610  11.349   3.375  29.132 -0.0829  0.0370  0.0271
  461W        W 2611   3.548   5.663   8.693 -0.1201  0.1142 -0.1624
  462W        W 2612  24.350   3.982   3.797 -0.2243  0.1025  0.0467
  463W        W 2613  12.811   0.084  24.257 -0.1764 -0.1106  0.1327
  464W        W 2614   5.059   1.779   2.574  0.1850 -0.3421  0.2959
  465W        W 2615  24.758   4.639   4.264 -0.2045 -0.3609  0.0620
  466W        W 2616  14.572   4.966   2.616 -0.3152  0.0944  0.1263
  467W        W 2617   1.047   6.738   0.541  0.3085  0.0155  0.1858
  468W        W 2618   0.707   2.208   1.182 -0.2462  0.0919 -0.0441
  469W        W 2619  20.915   2.194  19.641 -0.0587  0.0053  0.0916
  470W        W 2620  18.305   7.213  26.879  0.2467  0.0287 -0.2713
  471W        W 2621  20.779   0.259   6.171 -0.1780  0.0395 -0.0566
  472W        W 2622   4.304   7.062  30.714  0.1115  0.0846 -0.0317
  473W        W 2623  17.533   6.693  31.071 -0.0034 -0.2439  0.2494
  474W        W 2624  11.071   3.846  28.014  0.1773  0.1310 -0.2850
  475W        W 2625   3.686   6.034  28.023  0.3189  0.1569 -0.1903
  476W        W 2626  24.524   4.028   4.389  0.1518 -0.0887  0.0165
  477W        W 2627   8.462   2.713   1.153 -0.1151 -0.0217 -0.2224
  478W        W 2628   3.429   5.287   5.475  0.0711  0.0151 -0.1680
  479W        W 2629  18.592   5.436  18.144 -0.0001  0.2493 -0.0746
  480W        W 2630  17.228   1.466   8.073 -0.1337  0.2483  0.0083
  481W        W 2631  23.389   4.224  28.402 -0.0903  0.1027  0.4474
  482W        W 2632  22.264   0.797  18.941  0.1465 -0.1402  0.1990
  483W        W 2633   8.857   1.834  29.081 -0.0550  0.1354 -0.1759
  484W        W 2634  17.756   5.681   0.498  0.2525  0.2539 -0.1457
  485W        W 2635   4.952   6.919  14.988  0.6357  0.0065  0.1773
  486W        W 2636   6.237   0.481   2.570  0.1085 -0.1079  0.1783
  487W        W 2637   3.868   7.500   0.250  0.1868 -0.2244  0.1068
  488W        W 2638  11.080   2.455   6.152 -0.2627 -0.0091 -0.1903
  489W        W 2639  16.937   6.774  17.271 -0.0140 -0.2346  0.0188
  490W        W 2640  17.567   4.000  29.940 -0.0950  0.1763  0.0428
  491W        W 2641  13.679   6.828  28.967 -0.0271  0.0841 -0.1206
  492W        W 2642  18.527   1.286  23.017  0.3429 -0.0208  0.1199
  493W        W 2643   8.387   6.059  32.039  0.0181 -0.0005 -0.2155
  494W        W 2644  24.342   2.726   4.926 -0.1235 -0.1145  0.0867
  495W        W 2645  15.776   6.233  16.601 -0.2171  0.4365 -0.4478
  496W        W 2646   1.127   1.545   5.318 -0.0412  0.1740 -0.1575
  497W        W 2647  17.071   3.820   0.382 -0.0884  0.1785  0.1689
  498W        W 2648   1.884   0.204   3.413 -0.1168 -0.1583  0.1163
  499W        W 2649  13.453   4.546  28.889 -0.0049  0.2662  0.0456
  500W        W 2650  23.986   1.814  13.710 -0.0830 -0.1088  0.0605
  501W        W 2651   3.706   7.427  11.074  0.2306  0.2821  0.0195
  502W        W 2652   4.260   4.862  23.176 -0.1618 -0.0013  0.0590
  503W        W 2653  10.602   7.663  23.588  0.0802  0.0630  0.2034
  504W        W 2654  17.667   7.248  29.779 -0.2108  0.0455 -0.0669
  505W        W 2655  12.273   3.458   1.704  0.0592 -0.1203 -0.3246
  506W        W 2656   7.882   5.944  12.906  0.0004 -0.0568  0.4120
  507W        W 2657   6.928   4.363  22.347  0.0361  0.0960  0.4313
  508W        W 2658   3.225   1.066  26.119  0.0537 -0.0360 -0.0328
  509W        W 2659  21.964   7.753  10.799  0.0820 -0.1473  0.0196
  510W        W 2660   5.847   2.465  32.216  0.3524 -0.2182 -0.3414
  511W        W 2661   7.642   7.346  12.488  0.1759  0.0464  0.2564
  512W        W 2662   0.034   7.642  29.587 -0.1627  0.1060 -0.0918
  513W        W 2663  17.777   7.337  20.532  0.0744  0.0166  0.2135
  514W        W 2664  10.141   7.016  31.135 -0.1279 -0.1204 -0.0644
  515W        W 2665  22.169   6.656   5.448 -0.1240 -0.0164  0.2125
  516W        W 2666  14.106   1.714  18.992  0.0448 -0.0407  0.0809
  517W        W 2667   3.802   6.657   9.900  0.0862  0.2720  0.0678
  518W        W 2668   2.862   3.796   9.758 -0.2652  0.0836  0.2180
  519W        W 2669  14.815   7.800  30.559  0.2073 -0.2589  0.2355
  520W        W 2670  23.457   7.515   1.974 -0.0947 -0.0839  0.0701
  521W        W 2671  19.063   3.688   8.336 -0.1225  0.0448  0.0132
  522W        W 2672  19.635   0.532  22.712 -0.0928  0.0872 -0.1587
  523W        W 2673  17.397   0.023   3.762  0.1664  0.0959 -0.2647
  524W        W 2674   8.734   7.377  26.362  0.0389 -0.1151 -0.2953
  525W        W 2675   9.313   7.455  27.198  0.0236  0.1014  0.1671
  526W        W 2676  17.197   5.863  25.053  0.0275  0.0061 -0.2827
  527W        W 2677  22.576   0.252  32.712 -0.0750  0.1264  0.1931
  528W        W 2678   8.742   0.243  27.804  0.1281 -0.0495  0.1489
  529W        W 2679   8.559   3.857  22.645  0.1180 -0.0828 -0.1200
  530W        W 2680  15.398   2.275  19.792 -0.3795 -0.3176  0.3118
  531W        W 2681  17.890   2.151  25.783 -0.1667 -0.0217 -0.1504
  532W        W 2682  20.234   0.655  18.776 -0.0989 -0.1305  0.0614
  533W        W 2683   5.974   3.924  30.790  0.0494  0.0766 -0.0617
  534W        W 2684  12.887   0.257  26.943  0.1264  0.1100 -0.3449
  535W        W 2685  18.940   6.420  25.098 -0.3348 -0.1729  0.2799
  536W        W 2686   9.574   3.472   8.327  0.1801  0.0744  0.2426
  537W        W 2687   2.947   6.333  23.128 -0.2449 -0.1482 -0.1861
  538W        W 2688  18.854   4.641  10.133 -0.1445  0.1579 -0.0421
  539W        W 2689   9.931   6.048  21.405  0.0715 -0.1484 -0.0358
  540W        W 2690   4.107   4.052   1.992  0.0038  0.0054  0.1010
  541W        W 2691  17.646   1.379  18.027 -0.1113  0.2490 -0.1693
  542W        W 2692  10.182   4.373  24.935  0.0600  0.1742  0.0191
  543W        W 2693  21.085   0.721  26.939  0.0730  0.1576 -0.0287
  544W        W 2694  10.432   0.374  25.768  0.0536  0.0472 -0.3528
  545W        W 2695   0.859   6.786  27.831  0.3421 -0.4074  0.2099
  546W        W 2696   7.240   1.540  10.444  0.1140  0.1373 -0.3329
  547W        W 2697  18.754   4.326   7.042  0.0458  0.2750 -0.0061
  548W        W 2698   7.050   6.545  25.414  0.1977  0.1794  0.0173
  549W        W 2699  12.504   1.339  27.037 -0.1341  0.0210 -0.0363
  550W        W 2700  11.221   5.612   6.881 -0.1172  0.0529  0.0086
  551W        W 2701  22.877   4.392   2.205  0.0765  0.1549  0.0075
  552W        W 2702   3.283   6.625  14.012 -0.0193 -0.0507 -0.0749
  553W        W 2703   7.618   4.415   5.275  0.0956  0.1189  0.0583
  554W        W 2704  18.416   3.828  30.247  0.1625 -0.1270 -0.2515
  555W        W 2705   5.380   1.198  14.932  0.0622  0.0625 -0.0251
  556W        W 2706   5.674   0.232  25.826 -0.0401  0.0237  0.0086
  557W        W 2707  14.787   1.400  28.623 -0.2949  0.1010  0.4871
  558W        W 2708   8.422   6.669  22.468  0.0555  0.3673 -0.0521
  559W        W 2709  18.315   5.312  21.614  0.0107 -0.4374 -0.0380
  560W        W 2710  18.406   4.386   8.981  0.0590 -0.0760 -0.1124
  561W        W 2711  15.769   0.774  28.573 -0.1787  0.1765  0.1184
  562W        W 2712   4.071   2.549   8.061  0.0711  0.0007  0.5072
  563W        W 2713  17.406   3.157  20.268 -0.0980  0.2358  0.4968
  564W        W 2714  12.159   6.160   9.277  0.0001 -0.1343 -0.1468
  565W        W 2715  17.229   7.076  15.891 -0.0229  0.4808  0.0576
  566W        W 2716  10.525   7.324   5.088 -0.1160  0.3485 -0.1481
  567W        W 2717  20.096   2.993  28.364 -0.2140  0.1222  0.0414
  568W        W 2718  16.510   6.383  23.447  0.2097 -0.0454  0.1036
  569W        W 2719  14.963   1.350  32.394 -0.3851 -0.2208 -0.1011
  570W        W 2720  15.105   7.022  21.768 -0.2127 -0.2138  0.0545
  571W        W 2721   3.436   2.983  27.995 -0.2108  0.0618  0.3546
  572W        W 2722  14.429   4.160  22.759  0.2049  0.0732  0.1977
  573W        W 2723  21.889   2.083  18.931  0.2369 -0.1728 -0.0010
  574W        W 2724   5.603   2.371  10.625 -0.1151  0.0068 -0.2304
  575W        W 2725  23.372   5.174  20.943 -0.2162 -0.0735 -0.3175
  576W        W 2726   9.077   4.640  23.745  0.0869 -0.0875 -0.0386
  577W        W 2727  12.885   6.456  30.081  0.0693 -0.0231  0.0255
  578W        W 2728  19.773   0.326   4.458 -0.0174  0.3459 -0.0156
  579W        W 2729  10.419   1.206   4.875  0.2826 -0.0662 -0.1513
  580W        W 2730   5.049   4.245  12.997 -0.1757  0.0363  0.0927
  581W        W 2731  24.197   7.409   4.867  0.0922 -0.1184 -0.3747
  582W        W 2732   4.396   0.726   1.373  0.0502 -0.0258  0.2723
  583W        W 2733   5.283   1.369   7.766  0.1119  0.0000 -0.1934
  584W        W 2734   8.466   6.211  25.223 -0.1839  0.0393  0.0581
  585W        W 2735  15.475   1.299   4.768 -0.3013  0.0372 -0.0895
  586W        W 2736  22.980   6.574  12.235  0.1108 -0.3039  0.1451
  587W        W 2737   6.371   5.419  14.213  0.0339  0.2083 -0.0239
  588W        W 2738  15.570   1.287  31.103  0.1593  0.1801  0.2673
  589W        W 2739   3.858   5.878  10.796  0.0265 -0.1290  0.0945
  590W        W 2740  18.274   5.159  25.119 -0.1391 -0.0950 -0.1277
  591W        W 2741   2.697   4.568   7.423 -0.2326  0.1456  0.1542
  592W        W 2742  21.262   3.117  30.952  0.1908  0.2383  0.2059
  593W        W 2743  22.126   0.486  24.336  0.1579 -0.0239  0.1922
  594W        W 2744   4.566   0.509  31.116 -0.1834  0.1103 -0.0156
  595W        W 2745  16.663   1.298   6.691  0.0761 -0.2251  0.0627
  596W        W 2746   6.742   7.106  30.633 -0.0793 -0.0725  0.1645
  597W        W 2747   9.122   4.749  13.401 -0.4571  0.0513 -0.1577
  598W        W 2748   3.643   7.799  27.914 -0.1633 -0.0172  0.0231
  599W        W 2749  23.006   6.600   8.044 -0.1126  0.0012 -0.0309
  600W        W 2750  19.242   6.312  24.622 -0.1459  0.0248  0.2645
  601W        W 2751   9.796   3.876  29.244 -0.0062  0.0625  0.4084
  602W        W 2752   7.015   4.622   2.886 -0.2292  0.3877  0.1485
  603W        W 2753   9.817   5.193  25.728 -0.0645 -0.1012 -0.1647
  604W        W 2754   7.986   5.931  31.344  0.0737 -0.3327 -0.4635
  605W        W 2755  15.009   2.033   7.181  0.1273  0.0599 -0.1695
  606W        W 2756  11.586   0.554   0.068 -0.2196 -0.3165  0.1684
  607W        W 2757   3.223   4.504  31.640 -0.1769 -0.0268 -0.0003
  608W        W 2758  24.749   1.835  24.696  0.0366  0.1856 -0.2210
  609W        W 2759  16.460   7.710  24.803  0.0290  0.2880 -0.1178
  610W        W 2760  23.859   6.571   2.119  0.1305  0.1779 -0.0749
  611W        W 2761  20.792   7.124   6.353 -0.0514 -0.1255 -0.0198
  612W        W 2762  24.576   2.055  21.748  0.0353  0.0355  0.1143
  613W        W 2763   1.121   4.367   7.972  0.2742 -0.3621  0.1004
  614W        W 2764   0.785   0.042  10.626 -0.0264  0.0288 -0.1161
  615W        W 2765  21.811   3.215   3.365  0.0229  0.0577 -0.0510
  616W        W 2766  15.505   2.630  16.449 -0.2176  0.4307  0.2970
  617W        W 2767   1.784   2.249   6.810  0.1800  0.0426  0.0213
  618W        W 2768   8.915   3.599  10.567 -0.0135  0.2664  0.0089
  619W        W 2769   5.934   2.552  12.113  0.0105  0.1956 -0.1004
  620W        W 2770   9.495   1.256  10.542  0.1541  0.2949  0.0710
  621W        W 2771  14.853   4.182  27.922  0.2025 -0.1518 -0.0903
  622W        W 2772  10.226   6.837  29.255  0.1172  0.0506 -0.1726
  623W        W 2773  12.520   2.358   6.583  0.0673  0.2894 -0.1665
  624W        W 2774  15.902   6.847  28.334  0.1694  0.1005  0.3532
  625W        W 2775  15.646   1.352  26.693 -0.2495 -0.2598  0.1196
  626W        W 2776   5.899   4.949   4.351  0.0288 -0.2552 -0.3207
  627W        W 2777  11.430   4.057   3.989 -0.0020 -0.0418 -0.1701
  628W        W 2778  11.288   5.051   2.039 -0.0721  0.0233 -0.2065
  629W        W 2779  12.859   0.371  22.654 -0.4483 -0.4282 -0.1484
  630W        W 2780   2.764   5.136  27.320 -0.0671  0.0862 -0.2056
  631W        W 2781   6.803   5.499   1.083 -0.1416  0.2309 -0.0380
  632W        W 2782  18.382   7.384   2.084 -0.2081  0.1664 -0.2499
  633W        W 2783   1.065   3.914   7.300 -0.2072 -0.0117 -0.2246
  634W        W 2784  11.818   6.192  26.006 -0.1737 -0.0724  0.2440
  635W        W 2785   3.728   6.861  11.184 -0.1962  0.1981 -0.0072
  636W        W 2786  20.652   2.169  27.406 -0.1424 -0.1817  0.2487
  637W        W 2787   7.655   3.706   4.756 -0.0690 -0.1913  0.1986
  638W        W 2788   0.731   3.338  27.677  0.0741 -0.1231 -0.1848
  639W        W 2789  20.908   4.235   6.435 -0.0683 -0.3510  0.1591
  640W        W 2790   5.142   0.839  24.139 -0.2832  0.3623  0.2488
  641W        W 2791   7.919   6.306  25.071  0.0363 -0.3442  0.0976
  642W        W 2792   6.694   1.071  25.771  0.2650  0.1248  0.1253
  643W        W 2793   0.799   2.839   6.955 -0.2435 -0.0973 -0.1627
  644W        W 2794   4.787   3.420  13.789 -0.2169 -0.3308 -0.0042
  645W        W 2795  11.195   4.939  26.184  0.1815 -0.0450 -0.2210
  646W        W 2796  20.543   5.267   3.665 -0.4022 -0.0312 -0.2552
  647W        W 2797   1.451   5.560  32.221  0.1131  0.1756 -0.2014
  648W        W 2798  17.916   5.969  28.775  0.1203 -0.0045  0.3313
  649W        W 2799  17.393   5.187  25.278 -0.0278 -0.1922  0.1879
  650W        W 2800  10.621   5.944   2.472 -0.0951 -0.0427 -0.1956
  651W        W 2801  15.319   7.002   6.031  0.1075  0.0964 -0.2956
  652W        W 2802  21.176   6.476  28.820 -0.1244 -0.2121  0.2107
  653W        W 2803  15.255   7.108   6.871  0.1077  0.3045 -0.0483
  654W        W 2804   3.479   6.965  13.555  0.1277 -0.0118 -0.0486
  655W        W 2805  17.956   0.760  24.188 -0.1050  0.1946 -0.1071
  656W        W 2806  13.318   6.521   4.157  0.1177  0.3089 -0.1243
  657W        W 2807  10.655   2.595   5.863  0.2392 -0.1174 -0.0206
  658W        W 2808  21.380   5.511  24.060 -0.0727 -0.1043 -0.0927
  659W        W 2809   3.186   1.630   4.395 -0.0902 -0.0542  0.3080
  660W        W 2810  12.608   5.370  28.734  0.1777 -0.3649 -0.0199
  661W        W 2811  20.923   7.592  22.109 -0.0123  0.0099  0.0143
  662W        W 2812   6.627   1.257  30.773  0.1163  0.2072 -0.2098
  663W        W 2813  13.066   5.714  10.443  0.0773  0.0869 -0.3226
  664W        W 2814   7.520   4.794  22.843 -0.1053 -0.0075  0.0030
  665W        W 2815  11.066   7.092  21.260 -0.0040  0.1173  0.3975
  666W        W 2816   5.348   5.980   6.170 -0.0854  0.0677 -0.0214
  667W        W 2817  13.846   4.550   2.465  0.2195  0.2532 -0.2351
  668W        W 2818  11.102   4.828  22.277 -0.2425  0.0075  0.0080
  669W        W 2819  24.495   4.233   3.387  0.1075 -0.0585 -0.0199
  670W        W 2820  11.876   6.830  19.584  0.1688 -0.1590 -0.0157
  671W        W 2821  14.378   0.488   4.165 -0.1556  0.3464  0.2997
  672W        W 2822   0.584   5.079   9.242 -0.0405 -0.2330 -0.0750
  673W        W 2823  23.391   1.054  14.153  0.4073  0.0676 -0.1335
  674W        W 2824  11.740   4.066  26.323 -0.0427  0.0625  0.0048
  675W        W 2825  15.959   6.066  15.304 -0.2137 -0.0676  0.1479
  676W        W 2826  10.187   2.819  27.226 -0.0023 -0.3608 -0.0471
  677W        W 2827   4.028   4.735   5.040  0.0856  0.2869 -0.1839
  678W        W 2828  20.761   0.858  24.910 -0.0557 -0.0821 -0.3330
  679W        W 2829   2.973   1.546   1.478 -0.1790  0.1961  0.0716
  680W        W 2830   9.539   7.706  23.280 -0.0955  0.1229  0.1797
  681W        W 2831  15.924   4.639  23.242 -0.2264 -0.0242 -0.0222
  682W        W 2832  22.963   4.939  11.490  0.1995  0.1315  0.3121
  683W        W 2833  10.440   4.463  32.607 -0.0929  0.0912 -0.1285
  684W        W 2834   5.622   0.566   0.606  0.1678  0.3323 -0.0661
  685W        W 2835  14.525   4.271  10.075  0.1170  0.3385 -0.1114
  686W        W 2836  24.084   3.434  22.572  0.1719  0.0077 -0.0042
  687W        W 2837  19.373   4.799   2.991  0.1135 -0.2196  0.3131
  688W        W 2838   7.012   5.237  27.199  0.1253  0.0361 -0.0259
  689W        W 2839  22.190   0.953   8.438  0.4932 -0.1093 -0.0969
  690W        W 2840  22.079   5.039  24.206  0.1870 -0.1842  0.1320
  691W        W 2841  24.353   6.605   3.271 -0.0653 -0.0565  0.0119
  692W        W 2842   1.830   0.582  28.485 -0.1704  0.1323 -0.1513
  693W        W 2843  24.602   2.274  29.315 -0.1127 -0.2396  0.0260
  694W        W 2844   4.679   4.681  26.527  0.0191 -0.1747 -0.3725
  695W        W 2845  23.095   3.435   7.862  0.0072  0.0409 -0.1534
  696W        W 2846   6.015   7.794   8.644 -0.2179  0.0498  0.1491
  697W        W 2847  18.127   0.072   7.512  0.2989 -0.0671  0.2481
  698W        W 2848  24.779   1.322  12.015  0.0047  0.3289 -0.0320
  699W        W 2849  21.040   6.022   9.935 -0.3356 -0.1661  0.1907
  700W        W 2850   6.858   4.972  29.130 -0.0808  0.0901  0.2689
  701W        W 2851   1.511   2.117  29.664 -0.0391  0.1263  0.0997
  702W        W 2852  10.664   3.321  22.738  0.1526 -0.0124  0.1438
  703W        W 2853  19.600   0.210  31.382 -0.0889 -0.4592 -0.1667
  704W        W 2854   6.988   5.749  17.071  0.1863  0.0001  0.1542
  705W        W 2855   6.092   4.091  32.290  0.1878  0.0733  0.1270
  706W        W 2856  11.808   3.270  26.450  0.0065 -0.0153  0.1731
  707W        W 2857  13.999   2.675  30.355  0.1361 -0.0144  0.1345
  708W        W 2858  20.728   2.612  19.890  0.2096 -0.0882 -0.0243
  709W        W 2859  23.997   5.180  31.641  0.1217  0.1405  0.0352
  710W        W 2860  22.608   1.523  21.451 -0.1241 -0.6230  0.1509
  711W        W 2861  10.120   5.227  23.929 -0.0647 -0.0836 -0.0547
  712W        W 2862  24.696   4.373  22.395 -0.1311  0.1077 -0.1872
  713W        W 2863  17.124   2.849   1.393 -0.0640 -0.0237 -0.3314
  714W        W 2864  18.949   5.974  16.517 -0.3381  0.1914 -0.0047
  715W        W 2865   9.616   0.607   5.626 -0.0069 -0.0054  0.0120
  716W        W 2866  21.282   4.577   6.433 -0.1464  0.2417  0.1101
  717W        W 2867  24.445   4.435   4.678 -0.0064  0.2879  0.3235
  718W        W 2868  19.573   5.786   5.656 -0.1548 -0.1476  0.2989
  719W        W 2869  15.887   6.717   3.780 -0.1328  0.1973 -0.0833
  720W        W 2870  14.682   0.511  22.014 -0.0979  0.0611  0.1504
  721W        W 2871  17.818   1.921  25.289 -0.0953 -0.0551 -0.4855
  722W        W 2872   9.965   3.393  22.809 -0.2125  0.0451  0.0061
  723W        W 2873  10.231   3.049  27.887  0.1689 -0.1460  0.0925
  724W        W 2874  12.889   7.712  21.493 -0.0738  0.1018  0.3733
  725W        W 2875  11.946   1.308   0.822  0.4604  0.0376 -0.0375
  726W        W 2876  13.083   3.955   7.183 -0.1937  0.0082  0.0180
  727W        W 2877  24.917   1.253  28.702  0.0295  0.1531  0.1791
  728W        W 2878  16.974   5.638  32.325 -0.4762 -0.0408 -0.0245
  729W        W 2879  12.697   5.164  25.730  0.0949  0.0924 -0.1507
  730W        W 2880  23.387   5.223   9.329 -0.2031 -0.2250  0.3524
  731W        W 2881  12.290   5.155  22.571  0.0072 -0.2771 -0.1284
  732W        W 2882  10.416   7.164  20.638  0.0481  0.0620 -0.0844
  733W        W 2883   4.144   0.181  14.937  0.1534 -0.2571 -0.0713
  734W        W 2884  21.393   2.555  32.880 -0.3769  0.1780 -0.1481
  735W        W 2885   1.450   7.641  24.680  0.2659 -0.1116 -0.1612
  736W        W 2886   4.794   5.358  18.708 -0.0436 -0.0417  0.1418
  737W        W 2887  17.368   1.377   7.618 -0.2232  0.0596  0.0149
  738W        W 2888  19.814   4.738  26.049 -0.1370  0.3039  0.0144
  739W        W 2889   4.640   1.604   2.771  0.0971  0.0802  0.2135
  740W        W 2890  11.151   1.169  21.727 -0.1828 -0.2962  0.0883
  741W        W 2891   9.628   6.088   0.735  0.0092  0.1718 -0.0970
  742W        W 2892   0.633   3.444  27.206  0.1481 -0.1377 -0.1922
  743W        W 2893   1.192   7.623   7.201 -0.0566  0.2086 -0.0493
  744W        W 2894  21.213   0.284  30.532 -0.1801  0.0643 -0.1413
  745W        W 2895   6.476   5.755  10.001 -0.0285  0.0428 -0.0460
  746W        W 2896  15.778   7.131  10.272  0.1860  0.1794 -0.1769
  747W        W 2897   8.988   1.044  24.958  0.2334  0.0255  0.1253
  748W        W 2898   8.417   0.484   1.880 -0.2869 -0.0749  0.2056
  749W        W 2899  21.677   6.797   3.079  0.0719 -0.0579  0.3451
  750W        W 2900  15.698   0.948   7.781 -0.3077 -0.0158 -0.1009
  751W        W 2901  15.752   5.542   2.638  0.0441 -0.2553 -0.0334
  752W        W 2902   6.657   1.176  11.396 -0.0981  0.0807 -0.2144
  753W        W 2903   6.693   4.271  12.389 -0.1771  0.1775 -0.1269
  754W        W 2904  24.926   3.084   8.642 -0.1254  0.1872  0.0762
  755W        W 2905  10.599   4.842  27.699 -0.1526 -0.1981  0.1404
  756W        W 2906  24.202   1.622   5.887  0.1399 -0.1125  0.0878
  757W        W 2907   3.315   4.699  24.826  0.3386 -0.1227  0.0001
  758W        W 2908   6.068   0.663  29.703  0.0065  0.2952 -0.0879
  759W        W 2909  10.638   1.005  26.365 -0.0640  0.4012  0.0313
  760W        W 2910  14.515   7.352   2.390 -0.0473  0.1612  0.0716
  761W        W 2911  16.445   2.153  26.126 -0.3466 -0.0764  0.0144
  762W        W 2912   8.485   3.646   1.649 -0.0667 -0.2666 -0.2700
  763W        W 2913  23.842   4.097  31.111 -0.1903  0.4189 -0.0942
  764W        W 2914  23.899   3.220   2.400  0.4460 -0.1208 -0.0190
  765W        W 2915   9.033   6.011   5.408  0.0166 -0.1109 -0.0234
  766W        W 2916  23.757   0.885  10.535 -0.1288  0.0868 -0.0388
  767W        W 2917  22.226   0.422   8.244 -0.0336  0.0640 -0.0291
  768W        W 2918  23.025   2.418  21.507  0.1313 -0.2133  0.2621
  769W        W 2919  22.915   5.923  26.814 -0.1916  0.2485  0.0014
  770W        W 2920   1.749   2.839   6.712 -0.0009  0.1868 -0.0671
  771W        W 2921  18.891   4.339   4.632 -0.1718  0.2234 -0.2882
  772W        W 2922   0.482   0.834  28.823 -0.1072  0.1401  0.1139
  773W        W 2923   3.379   5.516   2.275 -0.2105  0.0848 -0.2490
  774W        W 2924  12.386   0.726   4.044  0.1632  0.1143  0.0396
  775W        W 2925  12.591   5.695  27.794 -0.0816  0.2801  0.0807
  776W        W 2926  21.118   3.959  25.712 -0.1179  0.0090 -0.0174
  777W        W 2927  17.231   4.875   9.303  0.1686  0.1014  0.0289
  778W        W 2928  14.879   1.700  15.375 -0.0182 -0.1077  0.0564
  779W        W 2929  13.975   2.097   7.654  0.2983  0.1173  0.0544
  780W        W 2930  24.004   2.899  11.628  0.0966  0.0516  0.2132
  781W        W 2931  22.167   6.247   6.470  0.1213 -0.2976 -0.2616
  782W        W 2932  10.089   5.396   3.953  0.1064  0.0807  0.0635
  783W        W 2933  14.903   5.368   3.375 -0.0278 -0.0124 -0.1361
  784W        W 2934   2.828   2.379   8.828 -0.1135 -0.1330  0.5844
  785W        W 2935  18.317   4.952   4.825  0.1004 -0.1392 -0.0482
  786W        W 2936   8.385   5.791  23.882 -0.0893  0.0342  0.2730
  787W        W 2937  21.878   2.985   8.027 -0.2552  0.0514  0.3682
  788W        W 2938  11.165   3.584   8.411 -0.0101  0.1080  0.0695
  789W        W 2939  12.563   6.906  22.653  0.1425 -0.1391  0.1848
  790W        W 2940   7.484   6.670   2.143 -0.0670 -0.0203 -0.1210
  791W        W 2941  19.608   4.350  16.805 -0.1871  0.1381 -0.1260
  792W        W 2942   9.363   5.284   5.355  0.4606 -0.0279 -0.0725
  793W        W 2943   4.119   2.861  28.128  0.1611 -0.0073 -0.1853
  794W        W 2944  23.492   7.461  23.354  0.0652  0.4403 -0.0085
  795W        W 2945   8.770   3.579  31.567 -0.0041  0.2571 -0.0834
  796W        W 2946  23.708   4.551  32.972  0.1568 -0.0845 -0.0927
  797W        W 2947   0.191   0.650  23.134 -0.2290 -0.1314 -0.1682
  798W        W 2948   1.211   6.627  15.906  0.2575  0.2561 -0.1785
  799W        W 2949  18.569   5.211  15.892  0.2239 -0.2247 -0.0016
  800W        W 2950  13.762   6.330  29.717 -0.2951 -0.1548  0.1804
  801W        W 2951  10.056   3.603  24.456 -0.3240  0.0652  0.3770
  802W        W 2952  24.466   6.763  31.157  0.0870  0.1618 -0.0038
  803W        W 2953   1.562   0.782   9.588  0.0276 -0.0418 -0.0538
  804W        W 2954   6.726   5.012  16.527 -0.0608 -0.1054 -0.0733
  805W        W 2955  23.004   4.777   4.546 -0.1425  0.0325  0.0060
  806W        W 2956  16.588   3.757  20.265 -0.1851 -0.0700  0.0817
  807W        W 2957  18.845   5.942   7.848  0.4239  0.0052  0.0732
  808W        W 2958   3.786   0.011   8.042 -0.4055 -0.0485  0.3867
  809W        W 2959  23.258   7.566   1.468  0.3790 -0.1608 -0.1912
  810W        W 2960  19.025   2.566  30.872  0.1180  0.0219 -0.0996
  811W        W 2961   3.481   6.952  10.244 -0.0517  0.0429  0.0361
  812W        W 2962   4.234   7.362   5.435 -0.1567 -0.1722 -0.1250
  813W        W 2963  16.527   4.849  16.800 -0.3052  0.1604  0.1368
  814W        W 2964  15.444   3.421  25.385 -0.0410 -0.1351 -0.0847
  815W        W 2965   4.470   1.422   4.834 -0.0131 -0.2321 -0.0234
  816W        W 2966   4.856   4.710  30.880 -0.0426  0.1497 -0.1010
  817W        W 2967  21.009   4.868  29.572 -0.1757  0.0796 -0.0826
  818W        W 2968  14.301   5.489  17.752  0.2348 -0.0290 -0.2419
  819W        W 2969   5.331   2.524   6.933 -0.0190  0.2093  0.0984
  820W        W 2970  16.067   2.117  26.570 -0.1364  0.0461  0.2943
  821W        W 2971  18.467   3.537  26.277 -0.2419  0.3405 -0.0972
  822W        W 2972  23.641   1.350  20.541 -0.1973 -0.2886  0.3812
  823W        W 2973   0.221   3.517  25.029 -0.0565  0.1229  0.2390
  824W        W 2974   2.765   4.525   5.927 -0.1848  0.2991 -0.0295
  825W        W 2975   9.156   2.608   0.054  0.0232 -0.2977  0.0970
  826W        W 2976  16.228   3.449  16.301  0.0413 -0.0050 -0.1501
  827W        W 2977   9.045   1.195  29.704 -0.1412 -0.1199 -0.1133
  828W        W 2978  21.463   4.459   5.609  0.1250  0.2275 -0.1000
  829W        W 2979   6.416   1.994  16.919 -0.0100  0.2553  0.1397
  830W        W 2980  11.635   6.136  27.633  0.1599 -0.0411 -0.0182
  831W        W 2981  19.616   2.684  24.794  0.1575 -0.0034 -0.1269
  832W        W 2982   0.520   2.064   0.456  0.0760  0.0773  0.0467
  833W        W 2983  18.616   5.610  24.842 -0.0401 -0.1371 -0.0359
  834W        W 2984  16.681   2.884  23.016  0.0202 -0.0411  0.1327
  835W        W 2985  15.911   6.289  24.593 -0.1048 -0.4625 -0.0587
  836W        W 2986  14.167   0.472  24.972 -0.1223  0.0661 -0.3017
  837W        W 2987   4.913   7.457  28.398  0.2239 -0.0469  0.1349
  838W        W 2988   7.670   5.279  31.420  0.0647 -0.0230  0.1445
  839W        W 2989  22.280   5.501  19.799 -0.2899 -0.2216  0.2739
  840W        W 2990  11.755   7.255  26.948 -0.2271 -0.0944  0.2405
  841W        W 2991  23.639   0.272  20.681  0.1449  0.2001 -0.2975
  842W        W 2992  12.585   6.931   2.104  0.2699 -0.0093  0.3529
  843W        W 2993  12.715   2.300  22.642  0.0114 -0.0448 -0.3532
  844W        W 2994  24.620   1.510  25.103 -0.1161  0.1654  0.0012
  845W        W 2995  19.376   0.360   0.804 -0.1402 -0.1855  0.0172
  846W        W 2996  15.608   7.063  30.773 -0.0832 -0.1470 -0.1744
  847W        W 2997  24.722   1.843  27.745 -0.1176  0.3067  0.1146
  848W        W 2998  24.831   5.808   0.709  0.1415  0.0668 -0.1080
  849W        W 2999  21.378   4.462  10.499 -0.1506 -0.1390  0.2670
  850W        W 3000  15.934   6.749  29.389 -0.1646  0.2524 -0.0593
  851W        W 3001  14.182   7.372  17.310 -0.1905  0.0053  0.1285
  852W        W 3002   0.098   0.796   6.566  0.0174  0.1302 -0.0162
  853W        W 3003  16.468   7.618   2.618  0.0474  0.2339 -0.0056
  854W        W 3004   8.519   6.400   9.268  0.1592  0.1354 -0.0685
  855W        W 3005  13.813   3.667   1.726 -0.1772  0.0496 -0.1272
  856W        W 3006  10.038   5.337  12.282  0.0693  0.0412 -0.1384
  857W        W 3007  12.941   3.644  29.282  0.0269 -0.0447 -0.0751
  858W        W 3008   5.379   7.596   3.525  0.1656  0.1121  0.0034
  859W        W 3009  14.531   5.508  31.667  0.0593  0.7063 -0.3058
  860W        W 3010   2.905   1.191  15.560 -0.0950  0.1542 -0.3304
  861W        W 3011   5.117   1.727  15.676  0.1568 -0.2162  0.0637
  862W        W 3012   8.254   4.090  11.094  0.2455  0.1314 -0.1365
  863W        W 3013   5.235   2.529  14.887  0.5410  0.2513 -0.1012
  864W        W 3014   4.562   7.205  15.304 -0.1796 -0.2152  0.0115
  865W        W 3015   8.770   1.021  25.938  0.0401  0.1085 -0.0475
  866W        W 3016   1.384   0.011  31.951 -0.1610 -0.2407 -0.1056
  867W        W 3017  21.903   2.345  20.339 -0.0870  0.1449 -0.2894
  868W        W 3018   8.156   5.808   3.412  0.3672 -0.0468  0.0306
  869W        W 3019   9.923   3.114  23.518  0.2439 -0.0188  0.1977
  870W        W 3020   9.702   3.791   2.470 -0.2737  0.2389  0.0386
  871W        W 3021   0.052   2.477  28.365 -0.1754  0.1422  0.3331
  872W        W 3022  13.668   4.962   6.232  0.0438  0.1610  0.3023
  873W        W 3023   1.439   3.846  24.484  0.3166 -0.0223 -0.1438
  874W        W 3024  18.120   2.594  25.711  0.0482 -0.1623 -0.3467
  875W        W 3025  13.221   6.378   5.180 -0.2614  0.4833  0.3930
  876W        W 3026  12.767   7.071   8.043  0.1624 -0.0062  0.2358
  877W        W 3027  20.651   4.206  24.756 -0.1174 -0.1222 -0.2048
  878W        W 3028  24.564   0.326  24.512  0.2307  0.1281  0.0616
  879W        W 3029  13.311   1.249  24.025 -0.1635 -0.2335 -0.1777
  880W        W 3030  21.095   1.012  22.576  0.0314  0.1562 -0.3498
  881W        W 3031  10.256   5.771  25.063 -0.1927 -0.0288 -0.1280
  882W        W 3032  18.511   6.171  28.078  0.1275 -0.0849  0.1717
  883W        W 3033  23.218   0.308   8.944 -0.0429  0.1509 -0.0465
  884W        W 3034   6.844   1.655  15.426  0.0787 -0.0565 -0.2318
  885W        W 3035  20.106   3.382  19.507 -0.0937  0.1177  0.2504
  886W        W 3036  13.829   2.577   7.426  0.1267  0.0118  0.1083
  887W        W 3037   9.019   4.077  25.175 -0.0106  0.0073 -0.0579
  888W        W 3038  13.059   5.365   4.540  0.1058  0.2444  0.0086
  889W        W 3039  22.683   0.201   6.513  0.0783  0.0111 -0.1244
  890W        W 3040  15.720   5.642   9.617  0.3027 -0.0273  0.1480
  891W        W 3041   4.928   1.950  18.229 -0.2357  0.0152 -0.2366
  892W        W 3042  16.903   4.074   5.246 -0.3428 -0.0452 -0.2347
  893W        W 3043   0.517   6.056   9.315 -0.3299 -0.0946 -0.1506
  894W        W 3044  11.723   0.429  19.586  0.0946  0.2156 -0.3608
  895W        W 3045   6.145   2.517   1.705  0.0163 -0.0753  0.0713
  896W        W 3046  18.673   0.759  17.320 -0.2724  0.0338  0.0847
  897W        W 3047  18.144   1.795  14.756  0.1253  0.1843 -0.0299
  898W        W 3048  11.952   5.369  11.195  0.0802 -0.2304  0.0928
  899W        W 3049   6.286   3.580   4.043 -0.3159  0.0564 -0.1824
  900W        W 3050  21.312   1.308  17.997 -0.2928 -0.0621  0.0111
  901W        W 3051  18.777   1.991  26.940 -0.0840 -0.2769 -0.1071
  902W        W 3052  12.404   1.244  26.187 -0.0400  0.4053  0.0119
  903W        W 3053   7.463   6.945  31.652  0.1579 -0.3757  0.0879
  904W        W 3054   9.120   7.117  28.899  0.0223 -0.1047 -0.0040
  905W        W 3055  15.017   0.268   3.575 -0.1328  0.0405  0.2988
  906W        W 3056  15.675   7.483  15.610 -0.1003  0.2008 -0.0248
  907W        W 3057   8.098   2.618  30.939 -0.0261 -0.0715  0.0915
  908W        W 3058   4.570   4.052  23.047  0.0078  0.1286  0.0024
  909W        W 3059  20.550   7.019  20.482 -0.0492  0.2389 -0.0956
  910W        W 3060   6.792   1.811   1.480  0.1942  0.1321 -0.2594
  911W        W 3061  21.168   5.508  26.598 -0.2404 -0.2994 -0.0345
  912W        W 3062  16.358   5.359  10.211  0.1640 -0.0649 -0.0312
  913W        W 3063  11.800   2.672  27.140 -0.0384 -0.1487 -0.1425
  914W        W 3064   7.348   7.020  28.457  0.2115  0.1999 -0.0363
  915W        W 3065   3.179   4.958  11.401  0.2336  0.3090 -0.2199
  916W        W 3066  14.492   5.198  24.478  0.3145 -0.1704 -0.1063
  917W        W 3067  16.240   0.257   5.944 -0.0915 -0.3237  0.1405
  918W        W 3068   8.158   0.252  10.767  0.0141 -0.0857  0.0485
  919W        W 3069  16.197   2.228  30.271 -0.2495  0.1299 -0.0830
  920W        W 3070   9.833   7.543   1.786  0.0370  0.0068  0.0469
  921W        W 3071  21.068   7.582   8.595  0.0308 -0.2242 -0.0328
  922W        W 3072  24.474   5.885  32.172 -0.1114  0.0303  0.0265
  923W        W 3073  11.740   2.373  25.348 -0.0327  0.0030  0.1239
  924W        W 3074   1.710   1.738  27.300 -0.2458  0.0496 -0.0068
  925W        W 3075  13.893   3.445   7.612 -0.0233  0.0177 -0.1361
  926W        W 3076  24.181   1.494  25.405 -0.0080 -0.1347 -0.1390
  927W        W 3077  24.931   2.753  30.612 -0.0031 -0.0431 -0.2440
  928W        W 3078  14.504   5.138   9.736 -0.0546 -0.1123  0.3141
  929W        W 3079   5.016   3.375  29.887 -0.0030 -0.0428  0.3375
  930W        W 3080  10.432   1.540   3.665  0.1977  0.0646 -0.1077
  931W        W 3081  16.921   7.293  31.744  0.0955  0.0930  0.1405
  932W        W 3082  24.302   7.723  10.529  0.0347 -0.1010 -0.2318
  933W        W 3083   5.537   6.771   3.975  0.1458  0.0689  0.0617
  934W        W 3084  14.499   1.890  24.115  0.2423  0.0597 -0.1602
  935W        W 3085   2.067   0.597  29.245 -0.1645  0.1067  0.0282
  936W        W 3086  12.538   6.873  17.667  0.2846 -0.0459  0.0381
  937W        W 3087  19.772   2.231  10.451 -0.1525 -0.0128  0.1323
  938W        W 3088  17.817   7.681   7.967 -0.1112  0.1678  0.0802
  939W        W 3089   6.266   2.464  17.126 -0.1369 -0.2456  0.0042
  940W        W 3090  14.638   3.432   5.213  0.1201 -0.1226  0.0214
  941W        W 3091   7.536   5.156  25.723  0.0457  0.0458 -0.4449
  942W        W 3092  13.379   5.039   1.059 -0.3405  0.0291 -0.0622
  943W        W 3093   0.918   1.003   5.623  0.0351 -0.2336 -0.1343
  944W        W 3094  17.094   3.700  29.814 -0.3553  0.1950  0.2233
  945W        W 3095  17.395   7.178  32.654 -0.2338  0.4704 -0.0648
  946W        W 3096  10.202   3.130  20.086 -0.0188 -0.2283  0.2441
  947W        W 3097  11.018   0.014   6.438  0.2095 -0.0283  0.2588
  948W        W 3098  14.392   7.340  31.200  0.0885 -0.3736 -0.1729
  949W        W 3099   1.854   7.264  30.051 -0.1880  0.0399 -0.2291
  950W        W 3100  16.711   3.147   2.283  0.0591  0.3602 -0.2381
  951W        W 3101  10.358   2.220   1.352 -0.0087 -0.1702 -0.0291
  952W        W 3102  17.084   4.711  28.993  0.0554  0.2095 -0.0813
  953W        W 3103   4.513   0.438  28.914  0.1828  0.0348 -0.0658
  954W        W 3104  11.498   5.901   6.557  0.0810 -0.0644 -0.0533
  955W        W 3105   6.107   3.733   6.137 -0.0983 -0.1126 -0.0480
  956W        W 3106   9.643   3.202  30.397  0.1241  0.1013  0.0446
  957W        W 3107  22.551   2.720  26.090  0.0388 -0.3339 -0.0547
  958W        W 3108  24.519   0.641   8.880  0.0239  0.0381  0.0522
  959W        W 3109  17.363   7.755  18.401 -0.3362 -0.0560 -0.0680
  960W        W 3110   5.551   3.249   7.266 -0.1346 -0.1599 -0.0396
  961W        W 3111  15.617   4.556   4.900 -0.0255 -0.0495  0.1565
  962W        W 3112   8.377   5.868  21.736 -0.0008 -0.0688  0.0026
  963W        W 3113   1.547   6.204  13.776  0.0121 -0.1052  0.2003
  964W        W 3114   3.467   0.604   1.905 -0.0362  0.0524  0.2130
  965W        W 3115   8.201   0.936   1.554  0.0965 -0.0411 -0.0249
  966W        W 3116   6.727   7.586  26.327  0.1816  0.4630  0.3017
  967W        W 3117   6.553   2.009   3.767  0.1802 -0.0524  0.0072
  968W        W 3118   4.321   0.827  11.695  0.1152 -0.0556  0.2701
  969W        W 3119  12.913   0.211  17.939 -0.1150  0.2285 -0.2585
  970W        W 3120  24.107   2.965  31.628  0.1408  0.0004 -0.0135
  971W        W 3121  18.280   0.691  17.802 -0.3110  0.0041  0.0138
  972W        W 3122  16.601   0.843   1.512  0.0152  0.1026  0.1668
  973W        W 3123  19.292   5.936   0.532  0.1793  0.1913  0.3120
  974W        W 3124   7.876   7.060   2.809 -0.0235  0.1697  0.1152
  975W        W 3125   8.136   3.228  22.225 -0.1640 -0.0313  0.3322
  976W        W 3126   0.466   6.706  27.376  0.1568 -0.0881  0.0397
  977W        W 3127  11.101   5.140  23.768  0.2482 -0.0519  0.0757
  978W        W 3128   1.359   3.690  32.870 -0.1097 -0.1244 -0.1023
  979W        W 3129  11.922   6.389   4.482  0.2428  0.2486 -0.0436
  980W        W 3130   7.091   4.773   1.569 -0.2638  0.1353 -0.0537
  981W        W 3131   1.238   5.629  30.855  0.0795  0.2453 -0.3508
  982W        W 3132  17.096   0.061   1.191  0.0858 -0.2025  0.0430
  983W        W 3133  23.642   6.048  11.402 -0.1690 -0.1506  0.2236
  984W        W 3134  23.001   4.177  30.601 -0.0318  0.0260 -0.0398
  985W        W 3135   8.928   6.402  10.285  0.0233 -0.1172 -0.1420
  986W        W 3136  12.609   3.028   0.295  0.0136 -0.1262  0.1972
  987W        W 3137  16.471   5.937   5.695 -0.0489 -0.1867 -0.0507
  988W        W 3138  19.693   3.732   3.421  0.0514 -0.0073  0.0290
  989W        W 3139  12.801   2.823  10.484 -0.3452  0.1540  0.1576
  990W        W 3140  12.343   2.360  31.718  0.0352  0.1752 -0.2921
  991W        W 3141  12.916   3.601  21.107 -0.3741  0.0071  0.0033
  992W        W 3142  21.389   2.443   0.795  0.0953  0.0562 -0.0042
  993W        W 3143  17.782   2.309   7.964  0.1386 -0.0841 -0.1696
  994W        W 3144  14.702   5.092  23.463 -0.0546 -0.0352  0.0184
  995W        W 3145  11.681   2.527   3.823 -0.1742  0.4356  0.1314
  996W        W 3146  11.633   1.858  25.261  0.2942  0.3028 -0.0117
  997W        W 3147  13.662   0.290  21.255  0.0863  0.1360 -0.1582
  998W        W 3148  13.062   4.574   3.359  0.1242 -0.1779  0.1450
  999W        W 3149  11.869   4.603   7.805  0.1990 -0.1747 -0.0288
 1000W        W 3150  13.313   3.844  19.220  0.2115 -0.2838  0.3433
 1001W        W 3151  23.655   7.292  33.017 -0.0157  0.1416 -0.3699
 1002W        W 3152  17.411   7.067  20.795  0.2070 -0.2387  0.1711
 1003W        W 3153   3.206   1.036   0.648  0.0306 -0.3933 -0.0168
 1004W        W 3154   6.501   2.154  29.635  0.1295  0.0628 -0.1289
 1005W        W 3155  23.809   7.205  30.853  0.0722 -0.1816 -0.3140
 1006W        W 3156   2.867   5.678   1.506 -0.1811 -0.1498  0.1939
 1007W        W 3157   0.158   3.529  14.515  0.0505  0.0724 -0.0434
 1008W        W 3158  15.993   2.230   8.298 -0.2261 -0.0122 -0.0582
 1009W        W 3159  11.608   2.134   0.361 -0.0645 -0.3352  0.2225
 1010W        W 3160  20.596   4.436  20.750  0.1619  0.0871 -0.0488
 1011W        W 3161   5.142   5.139   9.533  0.1101 -0.1139  0.1289
 1012W        W 3162  17.553   4.896  15.511 -0.2485 -0.1912  0.2111
 1013W        W 3163  19.385   5.680  26.267  0.0074 -0.4157 -0.1380
 1014W        W 3164  15.500   3.511  22.518  0.1700  0.0868  0.3339
 1015W        W 3165   4.770   6.919  30.916  0.5113  0.0747 -0.2250
 1016W        W 3166   7.188   4.227  29.262  0.0824 -0.2897 -0.1925
 1017W        W 3167  15.595   2.400  26.479  0.2523 -0.4746 -0.0072
 1018W        W 3168  11.654   3.587   7.107 -0.3044 -0.1346  0.0610
 1019W        W 3169  19.206   7.276  32.434  0.1401 -0.1243 -0.1441
 1020W        W 3170  19.087   0.134   6.241 -0.0464 -0.0448  0.1481
 1021W        W 3171  18.862   2.451  21.712 -0.1259  0.1379  0.2072
 1022W        W 3172   1.058   6.420  28.091 -0.0988  0.2255  0.0022
 1023W        W 3173  19.752   7.226  17.581 -0.0744  0.2179 -0.1503
 1024W        W 3174  24.088   0.128  20.871 -0.2067 -0.1246 -0.0747
 1025W        W 3175   9.101   3.198   0.357 -0.1800 -0.3179  0.0076
 1026W        W 3176  20.151   4.866  32.794 -0.2623 -0.0135 -0.1835
 1027W        W 3177   7.250   6.576   9.204 -0.0871 -0.0852 -0.0953
 1028W        W 3178   7.522   2.230  23.127 -0.2732  0.1647  0.2119
 1029W        W 3179  15.313   0.058   2.129  0.0261 -0.1024 -0.1725
 1030W        W 3180   4.993   5.562   6.322 -0.0581 -0.0410  0.1498
 1031W        W 3181  19.387   6.549   3.870 -0.0091  0.0594  0.2823
 1032W        W 3182   3.830   0.808  11.644  0.1939  0.0598  0.2123
 1033W        W 3183  22.708   5.972   0.890 -0.0333  0.3267  0.0554
 1034W        W 3184   0.171   6.410  11.821  0.0021  0.0354  0.1328
 1035W        W 3185   4.155   4.806  16.173 -0.0930  0.0889  0.0676
 1036W        W 3186  16.796   3.902   8.056 -0.1471  0.0771 -0.0350
 1037W        W 3187  16.872   0.872  16.461 -0.3844 -0.0095  0.0347
 1038W        W 3188  18.063   7.269  16.937  0.1759 -0.1887  0.0185
 1039W        W 3189  13.921   7.079  22.740 -0.0103  0.0746  0.0036
 1040W        W 3190   9.851   1.734  26.508 -0.0246  0.1318 -0.1469
 1041W        W 3191   5.070   4.343   4.344  0.1576 -0.3244  0.5338
 1042W        W 3192  14.543   1.407   5.139 -0.0463  0.2440  0.1243
 1043W        W 3193   4.571   2.124  26.660 -0.0046 -0.0679 -0.1294
 1044W        W 3194   4.849   3.248  18.147  0.1398 -0.1964  0.0732
 1045W        W 3195   3.379   4.007   8.319  0.1978 -0.0040  0.1136
 1046W        W 3196  22.410   2.192  32.828 -0.1497  0.0764  0.1659
 1047W        W 3197   9.637   0.286   6.561 -0.2202  0.0638  0.2514
 1048W        W 3198   1.306   6.906  27.699  0.0896  0.3387  0.1105
 1049W        W 3199  17.311   1.656   9.904  0.0940 -0.1973 -0.2970
 1050W        W 3200  10.192   3.802  30.845  0.0146  0.1449  0.3013
 1051W        W 3201  24.478   7.697  22.794  0.0439 -0.2066 -0.0459
 1052W        W 3202  20.503   0.962   4.702 -0.0789  0.0499 -0.0797
 1053W        W 3203  16.471   3.041   5.382 -0.1553  0.0305  0.0531
 1054W        W 3204   0.542   1.857  22.866  0.0292 -0.1530  0.0729
 1055W        W 3205  10.189   4.973  10.908  0.2308 -0.2247 -0.2660
 1056W        W 3206  14.758   3.469  16.211  0.4729 -0.1468 -0.2430
 1057W        W 3207  11.323   4.888  24.447 -0.4012 -0.0582  0.0987
 1058W        W 3208  14.736   3.476   1.862  0.4095  0.0241  0.3664
 1059W        W 3209   3.811   1.486  32.075 -0.1896 -0.0900 -0.0919
 1060W        W 3210   8.093   2.183  24.261  0.2973  0.0650 -0.0543
 1061W        W 3211  20.608   6.272  29.379  0.3704 -0.2677  0.0645
 1062W        W 3212  23.384   7.524   0.670 -0.0371 -0.1113  0.0709
 1063W        W 3213  19.828   1.237   3.133  0.3260  0.3014  0.0711
 1064W        W 3214  22.965   2.852   3.691  0.3094  0.1823  0.0184
 1065W        W 3215  19.563   5.775   9.020  0.0980 -0.0083  0.3310
 1066W        W 3216  18.490   6.881  32.342  0.4700  0.2357 -0.2230
 1067W        W 3217  24.461   7.105   7.315  0.1579  0.0441 -0.0123
 1068W        W 3218   4.661   3.403  10.767  0.2425 -0.0982  0.1928
 1069W        W 3219   8.942   6.084   9.209  0.0298 -0.0792  0.0162
 1070W        W 3220  21.167   3.139  18.517  0.3468  0.1465 -0.1901
 1071W        W 3221  22.801   2.887   9.095 -0.1938 -0.2518 -0.4559
 1072W        W 3222  24.602   5.108   9.641  0.1734 -0.1092 -0.1597
 1073W        W 3223  17.099   4.462  32.811 -0.0745  0.2791  0.0417
 1074W        W 3224  14.251   4.567   8.175  0.2950  0.0970  0.1639
 1075W        W 3225  15.143   3.838  20.515 -0.1070  0.0314 -0.2002
 1076W        W 3226   5.595   3.259  17.218  0.0046 -0.1944 -0.0236
 1077W        W 3227  17.380   7.153  29.093  0.0937  0.3931  0.0110
 1078W        W 3228  11.990   1.379   2.275  0.0214  0.0778 -0.1369
 1079W        W 3229   0.827   3.644  28.764 -0.0366 -0.1259  0.0419
 1080W        W 3230  13.963   4.927   4.835  0.2131  0.3114 -0.1781
 1081W        W 3231  13.355   0.762   9.223  0.1010 -0.0927 -0.0312
 1082W        W 3232  16.789   1.115   3.482  0.0601  0.0034  0.0632
 1083W        W 3233   7.632   2.186   5.345 -0.2850  0.0117  0.2041
 1084W        W 3234  24.423   1.218  24.074 -0.2478  0.0105 -0.3043
 1085W        W 3235  23.794   5.408  26.502  0.1858  0.1838  0.0263
 1086W        W 3236  14.232   0.318  20.623  0.1598 -0.0647  0.0599
 1087W        W 3237  20.094   2.078  32.429 -0.0889 -0.0375  0.0427
 1088W        W 3238   2.719   3.376  12.826  0.0656 -0.2644 -0.0955
 1089W        W 3239  15.401   3.962   2.478  0.1697  0.2028 -0.1153
 1090W        W 3240  10.085   5.884  31.494 -0.1314 -0.1302 -0.0462
 1091W        W 3241  10.573   2.726   6.909  0.0714  0.1057  0.1233
 1092W        W 3242   3.001   3.538  29.411 -0.4054 -0.0653  0.1059
 1093W        W 3243  24.965   3.245  11.325 -0.0369  0.1097 -0.0296
 1094W        W 3244  12.245   5.839  28.597 -0.0934 -0.0911  0.3294
 1095W        W 3245   2.609   1.913  30.430 -0.2902 -0.1007  0.0326
 1096W        W 3246   2.504   7.795   3.510 -0.0992 -0.0807  0.2971
 1097W        W 3247   4.445   4.691   8.752  0.1142 -0.0513 -0.0562
 1098W        W 3248  12.425   7.294  22.890  0.0040  0.0658 -0.3306
 1099W        W 3249   1.838   5.277  13.869  0.1708 -0.1253  0.2713
 1100W        W 3250  23.657   0.254  30.159  0.2659 -0.0289  0.0528
 1101W        W 3251  20.193   4.913   9.598 -0.0809  0.0955  0.1826
 1102W        W 3252  14.535   7.474  23.152 -0.1515 -0.0332  0.1100
 1103W        W 3253   8.837   2.026   2.298 -0.2704  0.1792 -0.0982
 1104W        W 3254  20.876   2.659  26.979 -0.2111  0.0567  0.0822
 1105W        W 3255  20.702   7.735   7.763  0.0005  0.1412  0.1544
 1106W        W 3256  10.052   3.683  26.050  0.1961  0.0790 -0.2082
 1107W        W 3257  20.784   7.324  28.402 -0.5562  0.2142 -0.2086
 1108W        W 3258   5.226   2.460  28.683 -0.1714  0.0105 -0.0808
 1109W        W 3259   9.443   5.090   7.482  0.3377  0.1761 -0.4075
 1110W        W 3260   7.466   1.348   2.006 -0.0673  0.1414  0.2024
 1111W        W 3261  23.404   1.043  11.425  0.2693 -0.0550  0.0007
 1112W        W 3262   0.540   1.308  10.903 -0.0114  0.2462  0.1093
 1113W        W 3263  10.989   4.711   8.040 -0.0640 -0.0630  0.4844
 1114W        W 3264  15.571   7.711   9.688  0.3056  0.0936  0.0914
 1115W        W 3265   4.589   3.384  15.502  0.1290 -0.2510 -0.0945
 1116W        W 3266  20.455   1.413  19.846 -0.3551  0.1302  0.1267
 1117W        W 3267  11.935   7.559  29.480 -0.0562  0.1793 -0.2277
 1118W        W 3268  18.223   4.125   5.162 -0.0097  0.1404 -0.3310
 1119W        W 3269   6.986   6.629  31.044 -0.1123  0.2757 -0.1292
 1120W        W 3270  16.603   7.581  26.391  0.0599  0.2386 -0.1106
 1121W        W 3271   7.438   5.952  17.194 -0.1439 -0.0206  0.1315
 1122W        W 3272   5.044   7.372  15.131  0.0065 -0.3264  0.0927
 1123W        W 3273  16.579   0.504  31.572  0.1966 -0.2294  0.0437
 1124W        W 3274  24.130   1.138  14.036 -0.1176  0.1277  0.0005
 1125W        W 3275   3.650   6.739   8.762  0.3967 -0.1942  0.0266
 1126W        W 3276  18.591   1.836  22.390 -0.0234 -0.1351  0.0430
 1127W        W 3277   9.254   0.006  10.434 -0.3094  0.2406 -0.0411
 1128W        W 3278  17.661   6.266  25.543 -0.1161  0.0377  0.1863
 1129W        W 3279  22.523   6.562  11.450 -0.2418  0.2774 -0.1505
 1130W        W 3280   1.854   2.692  15.228 -0.2277  0.1022  0.0715
 1131W        W 3281  12.379   4.287  19.012 -0.0133 -0.0887 -0.2059
 1132W        W 3282  11.033   1.989   2.064 -0.2060 -0.0320 -0.0145
 1133W        W 3283  22.552   7.569   9.559  0.0063  0.0817  0.2455
 1134W        W 3284   1.926   2.475   2.026  0.0385  0.1307  0.1773
 1135W        W 3285   8.448   1.758  10.901 -0.0106 -0.1317 -0.1367
 1136W        W 3286  23.138   6.006   0.690  0.2254 -0.1999  0.0126
 1137W        W 3287   1.421   7.339   6.271 -0.0472 -0.3894 -0.0756
 1138W        W 3288  17.002   3.687  25.371  0.1613 -0.0857 -0.1306
 1139W        W 3289   4.530   2.872  27.254  0.1567 -0.0308 -0.0266
 1140W        W 3290  17.175   6.701   4.438 -0.1555 -0.0816 -0.0729
 1141W        W 3291  23.160   3.848  28.767  0.4180 -0.0376 -0.0817
 1142W        W 3292   3.388   5.638   5.814  0.1689 -0.0466 -0.1319
 1143W        W 3293  12.002   0.426   9.560  0.2463 -0.0778 -0.2758
 1144W        W 3294  10.037   7.151  22.987  0.2960  0.1163  0.3196
 1145W        W 3295   9.286   4.058  30.188  0.0499  0.2144  0.5461
 1146W        W 3296  17.892   3.090   8.782  0.1075  0.1029  0.1062
 1147W        W 3297   5.718   3.737  17.297 -0.0134  0.0138 -0.1789
 1148W        W 3298  23.005   7.449  31.184 -0.0304  0.0343 -0.1814
 1149W        W 3299   1.113   0.073   7.762 -0.0495  0.0390 -0.1318
 1150W        W 3300  20.459   6.011  19.076 -0.2068 -0.0570 -0.1263
 1151W        W 3301  14.766   3.916  30.884 -0.0165  0.1096 -0.2083
 1152W        W 3302  11.823   0.116   3.772 -0.1565  0.0884 -0.1755
 1153W        W 3303  13.596   6.136   9.036  0.1935 -0.0896  0.1098
 1154W        W 3304  16.562   1.791   9.040 -0.0369 -0.1301  0.0565
 1155W        W 3305  13.309   0.922   7.488  0.0243  0.1546  0.1762
 1156W        W 3306   2.675   2.565   2.721  0.2518 -0.0742  0.2073
 1157W        W 3307  20.249   3.859  31.374 -0.4082  0.0456  0.0796
 1158W        W 3308  13.243   1.273  30.979 -0.2117 -0.0229  0.0646
 1159W        W 3309  15.529   1.901  23.974  0.3496  0.1622 -0.3132
 1160W        W 3310  23.799   2.247   3.606 -0.1449 -0.0320  0.1421
 1161W        W 3311  17.119   5.110  22.315 -0.4148  0.1160 -0.0094
 1162W        W 3312   8.145   4.740   0.778  0.2945 -0.0988 -0.2392
 1163W        W 3313  11.768   4.380  28.232 -0.0901  0.2700 -0.5546
 1164W        W 3314  14.417   2.118  28.130 -0.2002 -0.0411 -0.1311
 1165W        W 3315   6.143   3.833  28.899  0.2436 -0.2530  0.1259
 1166W        W 3316  14.930   0.728  32.181  0.1936  0.3852  0.0180
 1167W        W 3317  15.791   0.741   2.913 -0.1472  0.1606 -0.0409
 1168W        W 3318   2.232   4.789  14.346 -0.4243  0.1863  0.1810
 1169W        W 3319   9.901   3.956   5.617  0.2453  0.1626 -0.1475
 1170W        W 3320  19.612   2.711  16.412 -0.1594 -0.1569  0.1116
 1171W        W 3321  16.562   3.751   1.516  0.1072 -0.1252  0.0192
 1172W        W 3322  15.178   5.789   3.867  0.2681 -0.0460 -0.0953
 1173W        W 3323  10.912   3.817  18.315  0.1046 -0.0737 -0.2458
 1174W        W 3324   2.548   4.713  25.853 -0.0240 -0.1462  0.0854
 1175W        W 3325  23.120   2.922  22.578 -0.1397 -0.1522  0.0083
 1176W        W 3326  11.650   1.350  17.703  0.1715  0.0433 -0.3141
 1177W        W 3327  21.653   2.445  11.533  0.1569 -0.0810  0.2901
 1178W        W 3328  14.839   2.953   5.076 -0.0427  0.2398 -0.1257
 1179W        W 3329   2.228   3.892  10.606 -0.1535  0.0267 -0.0348
 1180W        W 3330  11.683   7.545   2.094  0.0109 -0.0294  0.0099
 1181W        W 3331  19.650   0.466  20.917 -0.6450 -0.1757 -0.0094
 1182W        W 3332   2.920   2.397  26.673 -0.0191  0.1727  0.0518
 1183W        W 3333  19.461   5.485   4.292 -0.2401  0.2919 -0.0469
 1184W        W 3334  10.853   7.700   2.640 -0.0840 -0.1490 -0.0760
 1185W        W 3335  16.829   4.295   2.295 -0.3437 -0.0294  0.3037
 1186W        W 3336  23.844   4.080  12.239 -0.1967 -0.1245  0.0535
 1187W        W 3337  24.633   0.205   9.086 -0.0060  0.2201  0.1476
 1188W        W 3338   0.142   3.359   9.483 -0.1313  0.1671 -0.1672
 1189W        W 3339  13.673   5.398  21.414 -0.3201  0.0456 -0.0359
 1190W        W 3340  17.318   1.937   3.642  0.0255  0.1131  0.2371
 1191W        W 3341  22.186   0.541  21.755 -0.0622  0.3908 -0.1256
 1192W        W 3342   2.360   1.567   0.265 -0.1287 -0.0535 -0.0197
 1193W        W 3343  18.298   3.765   3.954  0.1355  0.0459 -0.0827
 1194W        W 3344  24.592   1.215  20.504 -0.0542 -0.2098  0.2228
 1195W        W 3345  17.173   0.686   5.350 -0.2508 -0.0390  0.2368
 1196W        W 3346  13.323   1.328   7.065 -0.0671  0.1941 -0.0476
 1197W        W 3347  20.354   5.125   1.110 -0.1413  0.0455 -0.1629
 1198W        W 3348  11.689   6.160  32.122 -0.1431  0.0058 -0.2815
 1199W        W 3349  20.587   0.570  23.480 -0.1550 -0.2496 -0.1445
 1200W        W 3350  12.402   6.635  20.472  0.0342  0.1132 -0.1435
 1201W        W 3351  12.608   1.923  30.255 -0.1320  0.0997 -0.2118
 1202W        W 3352   3.291   5.050  27.135  0.0948  0.0858  0.0202
 1203W        W 3353  10.407   6.290  28.613 -0.0759  0.2614  0.0329
 1204W        W 3354   4.883   3.159  30.965 -0.5796  0.4253  0.1865
 1205W        W 3355  19.342   0.443  26.646 -0.1240 -0.1068  0.2383
 1206W        W 3356   2.861   5.914  10.321  0.2905 -0.0244 -0.5600
 1207W        W 3357   8.553   1.183  27.870 -0.1729  0.1406  0.2280
 1208W        W 3358  12.221   1.736   3.582 -0.0749 -0.0029  0.0785
 1209W        W 3359   7.199   3.122   6.207 -0.3017 -0.3373  0.1559
 1210W        W 3360  19.727   5.311  28.930 -0.1751 -0.1865 -0.2475
 1211W        W 3361  14.597   2.948   6.345  0.1121 -0.0980  0.5431
 1212W        W 3362  24.350   0.038  13.828 -0.0322 -0.1694  0.3537
 1213W        W 3363   8.916   0.324  32.663  0.1000 -0.2616 -0.0774
 1214W        W 3364  19.971   1.891  32.983 -0.1950 -0.2488 -0.1460
 1215W        W 3365   7.175   4.709  25.689 -0.1751 -0.0643 -0.2184
 1216W        W 3366  12.203   3.416   5.491  0.3687  0.0249 -0.1140
 1217W        W 3367   4.647   0.969  31.677 -0.0782 -0.0883 -0.1580
 1218W        W 3368   9.718   2.054  21.166  0.2080 -0.1198 -0.0385
 1219W        W 3369  17.218   7.549   8.551 -0.0465  0.1356  0.1108
 1220W        W 3370  12.170   3.602  10.267  0.0410 -0.4270  0.0450
 1221W        W 3371  16.135   5.788  16.763 -0.0491  0.1263  0.3003
 1222W        W 3372  24.501   1.156   4.979  0.0758  0.3163 -0.0971
 1223W        W 3373  19.828   3.941  23.676 -0.0563 -0.1093  0.0897
 1224W        W 3374   3.644   6.842  28.560  0.2290  0.0839 -0.2970
 1225W        W 3375  17.976   4.666   6.051  0.0018 -0.0892  0.0511
 1226W        W 3376   9.735   0.403  21.882 -0.1528  0.2233  0.3149
 1227W        W 3377  14.879   2.072  25.723  0.0561 -0.0903  0.1079
 1228W        W 3378   8.977   5.420   9.819  0.1575  0.0542  0.1876
 1229W        W 3379   5.701   5.192  12.999  0.0270  0.0201 -0.2085
 1230W        W 3380   2.645   4.279   2.930  0.2748 -0.1448 -0.1511
 1231W        W 3381   5.538   0.012  10.696 -0.0645  0.0501 -0.1124
 1232W        W 3382  24.078   0.540   2.316 -0.1246  0.0719  0.0184
 1233W        W 3383  12.498   3.072  31.044  0.1640  0.1142  0.1127
 1234W        W 3384  11.388   6.448  25.946  0.0762 -0.3070 -0.1132
 1235W        W 3385   9.551   5.458  26.109 -0.3394 -0.2054 -0.2918
 1236W        W 3386   2.789   6.211  26.497  0.0979  0.1005 -0.0474
 1237W        W 3387   5.637   6.189  27.797 -0.1497  0.1500  0.0393
 1238W        W 3388   9.061   3.578  25.277 -0.1453 -0.1105 -0.0818
 1239W        W 3389   5.091   2.890  31.347  0.0961 -0.0439  0.1015
 1240W        W 3390  12.774   1.932  21.833 -0.2472  0.1931  0.0629
 1241W        W 3391  18.315   7.302   1.591 -0.0123  0.0816 -0.0190
 1242W        W 3392  12.837   3.622  24.758 -0.1242  0.0896  0.0998
 1243W        W 3393   3.765   3.076  32.257 -0.0144 -0.2975  0.1622
 1244W        W 3394  12.591   2.132   2.179 -0.0923  0.3333 -0.2877
 1245W        W 3395  23.792   0.024   3.735  0.3150 -0.1687  0.0914
 1246W        W 3396  20.405   5.651   2.683  0.1693  0.3659 -0.2343
 1247W        W 3397  16.086   2.876   7.551  0.0698  0.0777  0.0079
 1248W        W 3398   2.843   3.318  23.149  0.0853 -0.2349 -0.1214
 1249W        W 3399   2.383   5.798  24.689 -0.2154  0.2585 -0.0300
 1250W        W 3400  19.339   4.222  21.477 -0.0313 -0.1489 -0.1452
 1251W        W 3401  14.214   1.393   0.012 -0.2485 -0.0915 -0.1558
 1252W        W 3402  10.128   1.416  27.384  0.0833 -0.2356  0.1159
 1253W        W 3403  10.814   2.248  12.016  0.1418  0.3033  0.1795
 1254W        W 3404  20.477   5.703  32.621  0.3853  0.3711  0.0947
 1255W        W 3405  11.342   5.628   7.369 -0.0991  0.2837 -0.1395
 1256W        W 3406  12.857   3.073  30.646 -0.1691 -0.0091  0.0929
 1257W        W 3407   7.278   3.164   4.870 -0.1599 -0.0701  0.2157
 1258W        W 3408  22.249   0.138  22.075 -0.0080  0.1713  0.2368
 1259W        W 3409   0.363   6.215  12.328 -0.3611  0.0389 -0.1359
 1260W        W 3410   7.521   2.894   0.449  0.0758 -0.2077 -0.0748
 1261W        W 3411  14.954   0.236  27.776 -0.2460  0.1285 -0.2507
 1262W        W 3412   3.107   5.018  14.701 -0.2753  0.0633 -0.2479
 1263W        W 3413  23.602   1.704   2.356 -0.1119 -0.0436 -0.0562
 1264W        W 3414   9.752   3.286  32.864  0.1854 -0.1966  0.1098
 1265W        W 3415   2.545   5.029   2.745 -0.1199 -0.1249  0.0743
 1266W        W 3416  18.758   6.771  30.897 -0.1288 -0.1053 -0.4345
 1267W        W 3417  15.810   7.403  26.717  0.1914 -0.1307  0.1767
 1268W        W 3418  19.254   7.564  30.454  0.2175  0.0817 -0.0208
 1269W        W 3419  21.183   6.652  31.000  0.0193  0.0509  0.5135
 1270W        W 3420  17.232   3.551  10.052 -0.2253  0.3727 -0.0468
 1271W        W 3421  18.377   5.896  26.239  0.1748 -0.2683  0.1053
 1272W        W 3422  18.607   2.213   0.239  0.0366  0.1654 -0.1175
 1273W        W 3423  18.723   6.279   5.791 -0.1707  0.0429 -0.1876
 1274W        W 3424  16.025   5.660   3.422 -0.2437  0.2155  0.1792
 1275W        W 3425  12.567   2.534   7.072 -0.4344  0.0345 -0.0009
 1276W        W 3426  20.529   5.524  27.207 -0.0745  0.0778 -0.1122
 1277W        W 3427  10.466   3.488  30.495 -0.1398  0.2905 -0.0020
 1278W        W 3428  23.167   2.120  13.927 -0.0917  0.1481  0.0783
 1279W        W 3429   3.709   0.872  23.970  0.3177  0.0884 -0.2757
 1280W        W 3430   7.026   5.040   4.651 -0.3261 -0.1391 -0.0591
 1281W        W 3431  21.695   4.431  13.115  0.0045  0.1664 -0.1813
 1282W        W 3432   7.643   6.211  10.833  0.0668 -0.0128 -0.2249
 1283W        W 3433   3.519   2.834  13.594  0.3428  0.0540  0.0789
 1284W        W 3434  22.394   1.454  31.859  0.0354 -0.0355  0.0327
 1285W        W 3435   8.045   5.925  32.906  0.0252  0.0568 -0.0205
 1286W        W 3436   3.172   6.483  30.939 -0.0802 -0.1766 -0.0500
 1287W        W 3437  20.416   1.411  26.271 -0.0279 -0.1567  0.3488
 1288W        W 3438  23.242   2.691  12.870 -0.0333  0.2009 -0.0116
 1289W        W 3439  11.162   2.990   6.078 -0.0236 -0.0014  0.0676
 1290W        W 3440  13.063   7.707  26.090  0.1081 -0.1748  0.4434
 1291W        W 3441   0.444   0.876   2.664 -0.3144  0.4240  0.1756
 1292W        W 3442  23.215   1.485   5.360  0.1508  0.1801  0.0252
 1293W        W 3443  22.838   6.887  12.567 -0.1541  0.1086 -0.1067
 1294W        W 3444  23.216   4.144  22.836 -0.0705  0.1092  0.3484
 1295W        W 3445  24.709   7.089  21.693 -0.3500  0.0074  0.0087
 1296W        W 3446  20.420   3.597  23.919  0.1510  0.2658 -0.1377
 1297W        W 3447  11.713   1.481  11.550  0.2953  0.3634  0.1305
 1298W        W 3448  14.251   0.611  32.636  0.2060  0.2816  0.2348
 1299W        W 3449  22.906   4.292  31.163  0.0733 -0.2024  0.1179
 1300W        W 3450   1.862   1.899  21.870  0.2804 -0.2634 -0.1245
 1301W        W 3451  24.275   3.572  32.751  0.1412  0.2856 -0.1290
 1302W        W 3452  22.284   1.238  23.908  0.0158  0.0526  0.0600
 1303W        W 3453  10.395   4.954  31.858  0.1130 -0.0170  0.3259
 1304W        W 3454   1.775   1.587   0.856 -0.2675  0.0107 -0.0150
 1305W        W 3455   5.747   7.712  18.768 -0.3904 -0.1970  0.0438
 1306W        W 3456  23.668   5.640   0.649 -0.2752 -0.0581  0.1682
 1307W        W 3457  15.016   3.524   4.323  0.1204 -0.2741  0.2471
 1308W        W 3458   7.320   2.169  30.308 -0.1796  0.0684 -0.2706
 1309W        W 3459  19.484   2.551  23.531  0.0517 -0.2822 -0.1075
 1310W        W 3460  23.385   7.700  10.584  0.2608 -0.1369  0.0913
 1311W        W 3461   8.598   7.674   6.983  0.2895  0.0013 -0.0403
 1312W        W 3462  18.925   4.254  18.623 -0.1007  0.0013  0.0015
 1313W        W 3463   2.176   0.409   5.440  0.2949 -0.2368  0.0640
 1314W        W 3464  15.870   0.293  15.650  0.1796  0.0337 -0.1435
 1315W        W 3465  16.103   3.443  26.345  0.0037  0.1683 -0.0198
 1316W        W 3466  17.082   5.538   2.657 -0.0750 -0.2747  0.2328
 1317W        W 3467  16.986   6.171   9.726 -0.0786 -0.2961  0.0254
 1318W        W 3468  15.705   7.168  23.938 -0.1508 -0.1885  0.1275
 1319W        W 3469  17.211   6.680  22.401  0.0445 -0.1010 -0.1271
 1320W        W 3470   8.068   7.203  15.105  0.2070 -0.3481 -0.2008
 1321W        W 3471  21.986   4.530  26.562 -0.1698 -0.1190  0.2706
 1322W        W 3472   5.324   3.675  24.469 -0.1198 -0.1404  0.0770
 1323W        W 3473   2.225   4.341  25.585 -0.0867 -0.1756 -0.0685
 1324W        W 3474  12.711   1.228  29.602 -0.0715  0.2096 -0.1342
 1325W        W 3475   7.502   5.886  11.194 -0.1574  0.1273  0.1309
 1326W        W 3476   2.333   6.946  10.893  0.0100 -0.1008 -0.1118
 1327W        W 3477   4.949   5.054   6.380  0.1818  0.1267 -0.1932
 1328W        W 3478  22.167   2.310   9.415 -0.1059 -0.0248  0.0281
 1329W        W 3479   4.464   0.211   1.513 -0.2760 -0.2939 -0.0656
 1330W        W 3480  23.356   4.517   4.092 -0.2279 -0.1261 -0.1790
 1331W        W 3481   3.586   0.324   4.649 -0.3056  0.1275  0.1156
 1332W        W 3482  11.626   0.095  29.046  0.2034  0.1394 -0.0535
 1333W        W 3483  22.085   2.469  19.853  0.1262 -0.3415  0.0618
 1334W        W 3484  20.809   7.575   2.813 -0.0219 -0.3757 -0.1374
 1335W        W 3485   0.352   2.483  33.003 -0.1195  0.2328 -0.0494
 1336W        W 3486  21.111   3.246   6.110 -0.2505  0.1168  0.0498
 1337W        W 3487  24.374   5.385  31.385  0.2420  0.1045 -0.4612
 1338W        W 3488  11.385   4.454   8.421 -0.1214 -0.1166  0.0969
 1339W        W 3489  21.371   4.403  21.277 -0.4350  0.1068  0.1356
 1340W        W 3490   1.276   4.356   7.459  0.1014  0.0444 -0.1741
 1341W        W 3491  12.219   5.603  26.432 -0.2363 -0.0854  0.4758
 1342W        W 3492  22.063   6.199   9.615  0.0446  0.2258 -0.2036
 1343W        W 3493   5.841   6.442   9.110 -0.2264  0.3914 -0.4367
 1344W        W 3494  21.668   7.215  19.002  0.0738  0.1306  0.2664
 1345W        W 3495  11.950   6.352  30.231 -0.3205  0.2738 -0.1198
 1346W        W 3496   0.469   0.242  21.033 -0.1879 -0.1037  0.2347
 1347W        W 3497  11.643   5.805  20.083 -0.0875  0.1215 -0.0984
 1348W        W 3498  17.070   7.423   7.973  0.3496  0.2003  0.1606
 1349W        W 3499   1.282   4.056   9.677 -0.0076 -0.3161 -0.1402
 1350W        W 3500  24.574   7.076  12.148 -0.1643  0.2035  0.0444
 1351W        W 3501  10.047   7.156   8.419  0.2710  0.0084 -0.1048
 1352W        W 3502   9.969   0.298  19.418 -0.0103 -0.2763 -0.1041
 1353W        W 3503   4.352   0.810  25.559  0.0675  0.2447 -0.1394
 1354W        W 3504   2.054   4.758  26.819  0.0308 -0.0100  0.2217
 1355W        W 3505   3.144   5.160   0.251  0.2521  0.1230 -0.0427
 1356W        W 3506  17.666   1.452  27.381  0.2339 -0.0360 -0.0277
 1357W        W 3507  10.770   2.479   0.280  0.2020 -0.0380  0.0030
 1358W        W 3508   0.966   2.859   5.342  0.1310 -0.0100  0.1910
 1359W        W 3509  19.097   7.418  26.515 -0.0600  0.0863 -0.0594
 1360W        W 3510   6.269   4.634   9.827  0.0912 -0.1674 -0.0525
 1361W        W 3511   4.803   3.585   8.050  0.2284 -0.0718 -0.1994
 1362W        W 3512   7.592   1.092   8.722  0.0648 -0.1097 -0.0821
 1363W        W 3513  21.424   0.539  25.433 -0.0571  0.0444 -0.2092
 1364W        W 3514   4.877   5.065  16.012 -0.1696 -0.0049 -0.2748
 1365W        W 3515   8.280   6.087  28.277  0.0557 -0.3187 -0.1718
 1366W        W 3516  16.698   5.936  15.359 -0.2885  0.1981 -0.0527
 1367W        W 3517  24.673   5.446  23.539  0.2792 -0.0132  0.0726
 1368W        W 3518  20.917   1.619  26.845  0.1442 -0.4592  0.3837
 1369W        W 3519   6.724   5.146  14.345  0.0934  0.1337  0.3218
 1370W        W 3520  11.591   0.055   0.199  0.1661  0.0886  0.0856
 1371W        W 3521  20.991   6.179  10.884  0.0592  0.4887 -0.0686
 1372W        W 3522  22.986   0.862  21.995  0.0923 -0.2562 -0.0879
 1373W        W 3523   3.083   0.135   5.324  0.0180  0.1739 -0.1674
 1374W        W 3524  15.021   0.483  30.093  0.0810 -0.0431 -0.1351
 1375W        W 3525  19.062   3.140   3.479 -0.1130  0.1403 -0.0128
 1376W        W 3526   6.818   4.751  31.190 -0.1352 -0.1001  0.1167
 1377W        W 3527   3.998   4.076  15.561  0.1235 -0.0475 -0.2661
 1378W        W 3528   2.451   2.800  26.169  0.0854 -0.2956  0.2350
 1379W        W 3529  19.253   0.122  10.377 -0.1234 -0.0333 -0.1531
 1380W        W 3530   6.597   6.144  23.631  0.0280 -0.0443  0.1795
 1381W        W 3531  15.927   2.417  21.899  0.0979  0.0531 -0.6605
 1382W        W 3532  18.525   3.927  26.627  0.0359 -0.0431  0.0688
 1383W        W 3533   8.362   1.719   6.976 -0.1137  0.0913 -0.1678
 1384W        W 3534   7.506   3.916  26.108 -0.0014  0.1335  0.0104
 1385W        W 3535   5.368   2.069   2.267  0.1244  0.2964 -0.0393
 1386W        W 3536   1.463   6.649  16.577 -0.3039 -0.4301  0.0980
 1387W        W 3537  12.651   1.925  32.393 -0.3470  0.3613  0.2246
 1388W        W 3538  19.723   6.216  18.019 -0.2654  0.2568 -0.0768
 1389W        W 3539   9.018   3.807   3.733 -0.2969 -0.0596  0.0053
 1390W        W 3540   9.269   2.644   4.802  0.1686 -0.0889 -0.0622
 1391W        W 3541  11.228   7.618  22.956  0.1628 -0.1853  0.1276
 1392W        W 3542  11.202   7.591  29.088 -0.0186  0.0233  0.0874
 1393W        W 3543  17.019   6.187  19.756 -0.4168 -0.1513  0.1268
 1394W        W 3544  14.937   0.328   9.025 -0.1028  0.0285 -0.0743
 1395W        W 3545  22.739   1.631  10.184  0.0772 -0.0738 -0.2610
 1396W        W 3546  17.502   4.158  14.630 -0.1319  0.2956 -0.1940
 1397W        W 3547  11.502   3.479  24.742 -0.2523  0.2747 -0.1268
 1398W        W 3548  21.411   7.723   3.350  0.0839  0.1069  0.1008
 1399W        W 3549  17.550   0.651   7.037  0.0863 -0.0113 -0.1144
 1400W        W 3550  10.423   6.560   6.083 -0.3072 -0.2106  0.1130
 1401W        W 3551   1.148   5.407   9.671 -0.1724 -0.0182 -0.1023
 1402W        W 3552   7.350   4.272  11.176 -0.4332  0.0833  0.1353
 1403W        W 3553  15.619   1.867  31.099 -0.1103  0.1271 -0.1089
 1404W        W 3554   7.756   3.185   1.378  0.0262 -0.0158  0.0349
 1405W        W 3555  24.735   4.166  10.087 -0.0611  0.2092 -0.1140
 1406W        W 3556   8.549   6.402   1.653  0.0899 -0.1727  0.0834
 1407W        W 3557  10.158   3.652  10.412  0.1428  0.1232  0.0487
 1408W        W 3558  22.040   0.914  21.378 -0.1139 -0.1302  0.1045
 1409W        W 3559  10.252   4.167  27.524 -0.0634 -0.1041  0.1326
 1410W        W 3560  24.348   6.543  11.333 -0.1976  0.0155 -0.2198
 1411W        W 3561  20.013   1.479  32.643 -0.1113  0.0086 -0.0330
 1412W        W 3562   8.181   4.537   2.661 -0.0048  0.2219 -0.0406
 1413W        W 3563  16.990   2.084   9.766 -0.2249 -0.2660 -0.1881
 1414W        W 3564   5.077   6.563  29.470 -0.0904  0.0669 -0.0292
 1415W        W 3565  20.092   4.149   1.896  0.2896  0.0712 -0.0361
 1416W        W 3566  15.707   7.722  10.553 -0.2166  0.0708 -0.0809
 1417W        W 3567  23.845   0.124   2.071  0.2055 -0.2475  0.0416
 1418W        W 3568  21.393   0.568   6.776  0.3350  0.1779  0.1004
 1419W        W 3569  13.431   0.945  31.479  0.1429  0.2507  0.2763
 1420W        W 3570   6.165   5.274  32.690  0.1284  0.1530 -0.2629
 1421W        W 3571  12.448   0.569  17.983 -0.3197 -0.0791 -0.2582
 1422W        W 3572  22.552   5.959   3.740  0.1122  0.3199  0.0294
 1423W        W 3573   4.697   4.953   1.186 -0.1800 -0.0915  0.1201
 1424W        W 3574   3.439   4.246   9.936 -0.1627 -0.1466  0.0231
 1425W        W 3575   7.280   5.837  30.750 -0.1359  0.3023 -0.4722
 1426W        W 3576  23.012   1.799  22.447 -0.1477 -0.0926  0.0105
 1427W        W 3577   4.907   2.508  15.737  0.2105  0.0661  0.0292
 1428W        W 3578  18.758   0.716  20.903 -0.1125 -0.1001 -0.1073
 1429W        W 3579   8.479   6.492   7.891 -0.0894 -0.1343 -0.0508
 1430W        W 3580  15.033   0.716   3.997  0.1245  0.1198  0.1765
 1431W        W 3581  10.172   5.942  32.024 -0.2129 -0.1213  0.2207
 1432W        W 3582  15.474   3.485   4.583 -0.2537  0.0644 -0.0017
 1433W        W 3583   5.142   1.999   1.267  0.0756 -0.1088  0.1817
 1434W        W 3584   1.146   6.857  28.300  0.4335  0.4591 -0.0020
 1435W        W 3585  12.942   6.180   1.416  0.0236  0.2768 -0.0991
 1436W        W 3586  18.946   2.333   6.354 -0.1122  0.4301 -0.0405
 1437W        W 3587   8.418   3.796  21.453 -0.1946  0.0007  0.1401
 1438W        W 3588   3.557   3.767  13.878  0.1742 -0.4263  0.2869
 1439W        W 3589   0.071   7.640   2.696  0.0877  0.0186  0.2562
 1440W        W 3590  13.961   1.292  20.855  0.1665  0.2784 -0.1008
 1441W        W 3591  19.641   5.267   1.533  0.1204 -0.0786  0.0584
 1442W        W 3592  14.748   2.935  24.789 -0.0362 -0.0859  0.5702
 1443W        W 3593  11.920   5.706  29.608  0.1515 -0.0385  0.0485
 1444W        W 3594   7.606   7.507  26.432 -0.0538 -0.0917  0.1560
 1445W        W 3595  19.121   6.439   9.436 -0.0297 -0.1908  0.1569
 1446W        W 3596   6.078   5.715   1.397 -0.0629  0.0365  0.2007
 1447W        W 3597   6.016   4.389  32.849 -0.0120 -0.1059 -0.1499
 1448W        W 3598  14.287   4.317   5.838 -0.0203  0.1327  0.0021
 1449W        W 3599  12.286   7.079   5.975  0.1468  0.0438 -0.0032
 1450W        W 3600  17.407   1.589  31.425 -0.2615 -0.4158  0.0543
 1451W        W 3601  13.593   5.397  22.545 -0.0518 -0.0210  0.0764
 1452W        W 3602  17.798   3.114   5.799  0.0879 -0.1372  0.2119
 1453W        W 3603  22.536   5.211  21.998  0.0736  0.1089 -0.0428
 1454W        W 3604   8.490   3.552   2.499  0.2496  0.0659 -0.0575
 1455W        W 3605  12.603   4.726  18.368 -0.2301  0.2781  0.0278
 1456W        W 3606  19.834   1.852  25.943  0.1219 -0.1659 -0.0657
 1457W        W 3607   1.282   2.296  23.189 -0.2466 -0.1358 -0.1112
 1458W        W 3608  21.904   4.228   8.865  0.2109 -0.0338 -0.0999
 1459W        W 3609  10.769   2.980  11.272 -0.1445 -0.3667 -0.2252
 1460W        W 3610  16.627   0.643   4.855 -0.1080  0.1831  0.1044
 1461W        W 3611  11.973   2.479   5.915 -0.1482 -0.0739  0.1726
 1462W        W 3612  17.841   6.211  20.019 -0.1620  0.0200  0.2059
 1463W        W 3613  10.180   0.608   2.152 -0.3110 -0.1339 -0.0466
 1464W        W 3614  24.656   7.032  31.980 -0.3382 -0.1379  0.2528
 1465W        W 3615  15.519   4.020   4.818  0.1273  0.1390 -0.0285
 1466W        W 3616  20.525   7.304  24.096 -0.0498  0.3867 -0.0269
 1467W        W 3617   4.902   5.744  25.115  0.1549  0.1233 -0.0501
 1468W        W 3618  16.968   3.064  19.998 -0.0006  0.2792 -0.1130
 1469W        W 3619  15.062   3.640   8.793 -0.2133 -0.0936 -0.0928
 1470W        W 3620  16.112   3.834  21.160  0.1909  0.1568  0.2163
 1471W        W 3621   7.022   5.776  15.518  0.0429  0.1553 -0.0029
 1472W        W 3622   6.844   5.053  23.450 -0.1475  0.0149  0.0518
 1473W        W 3623  11.237   5.124  23.209  0.0665  0.2583  0.2105
 1474W        W 3624   2.791   7.165   2.376  0.1614  0.0737 -0.1422
 1475W        W 3625  13.736   6.252  17.070  0.1625  0.1269  0.1194
 1476W        W 3626   6.614   0.634   2.853 -0.0893  0.1785  0.2395
 1477W        W 3627   5.213   5.578  11.247  0.1973  0.1548 -0.1455
 1478W        W 3628  22.427   4.880  32.453 -0.1463 -0.2635 -0.0713
 1479W        W 3629  20.527   4.391   3.398 -0.3790  0.0138 -0.1667
 1480W        W 3630  14.307   5.543  24.801  0.1038 -0.0869 -0.2594
 1481W        W 3631  10.328   7.425  11.026  0.2050 -0.0589  0.2002
 1482W        W 3632   8.205   6.070   7.911  0.0753 -0.0059 -0.0619
 1483W        W 3633   5.296   3.885  10.023 -0.0426 -0.2287  0.0443
 1484W        W 3634   7.695   6.407   8.924 -0.0561 -0.0276 -0.0814
 1485W        W 3635   8.617   1.386  24.164 -0.4018 -0.1673  0.1451
 1486W        W 3636   5.677   4.943   2.780  0.0852 -0.4884 -0.1119
 1487W        W 3637  19.805   3.786  18.329 -0.1959  0.1507 -0.1478
 1488W        W 3638  22.223   0.441  30.965  0.3226  0.1838  0.1477
 1489W        W 3639   2.742   6.583  14.583  0.4465  0.1045 -0.0407
 1490W        W 3640  20.108   1.449  24.616  0.0419 -0.0165  0.1771
 1491W        W 3641  14.633   5.268  25.213 -0.0362  0.0193  0.1363
 1492W        W 3642  20.455   6.422  24.649 -0.2183 -0.0503 -0.0533
 1493W        W 3643   0.896   4.106  11.262  0.1563 -0.3285 -0.1381
 1494W        W 3644   8.884   1.129   0.783 -0.0660 -0.1239  0.0740
 1495W        W 3645   1.896   5.930   1.257 -0.1384 -0.0512  0.2988
 1496W        W 3646  24.298   2.250  29.805  0.1230  0.0792  0.1406
 1497W        W 3647  18.530   2.373   0.696 -0.3731  0.0638 -0.2451
 1498W        W 3648   4.862   2.004  16.040  0.2473  0.3076  0.0148
 1499W        W 3649   3.327   3.427   5.288 -0.2851 -0.0477  0.0229
 1500W        W 3650   1.792   6.330   5.419  0.1811 -0.0596  0.1628
 1501W        W 3651  12.750   0.598  16.513 -0.0492  0.0251  0.0160
 1502W        W 3652  18.970   2.919  20.928 -0.0168  0.1553 -0.2560
 1503W        W 3653  22.062   6.447  18.502  0.2734  0.0407  0.0244
 1504W        W 3654  10.921   2.743  27.679  0.2075 -0.3420 -0.1759
 1505W        W 3655   3.472   1.241   3.059 -0.3587  0.1073  0.1557
 1506W        W 3656  23.465   0.519   8.218  0.1181  0.4073  0.0169
 1507W        W 3657  21.139   2.641  10.490 -0.2116  0.0303 -0.3436
 1508W        W 3658   1.487   6.353  22.139  0.3621  0.3720 -0.0525
 1509W        W 3659  19.187   7.607  25.535 -0.2513  0.3623  0.0738
 1510W        W 3660  22.355   4.334   4.484  0.1996  0.0917  0.1664
 1511W        W 3661  20.477   0.264  32.389  0.1528  0.2152  0.0816
 1512W        W 3662   2.714   7.056   9.958  0.0081  0.3659 -0.1443
 1513W        W 3663   5.461   2.437  24.142 -0.0354  0.2635 -0.1241
 1514W        W 3664   8.650   2.822  22.927 -0.1450 -0.1679 -0.2072
 1515W        W 3665   1.884   7.716   8.511  0.3567 -0.0169 -0.0363
 1516W        W 3666  22.723   1.107  12.201  0.4138  0.0175 -0.0010
 1517W        W 3667   7.796   2.726   0.067  0.0215  0.0560 -0.1821
 1518W        W 3668   9.823   4.799   3.575  0.1892 -0.1470  0.2492
 1519W        W 3669   1.358   1.184   9.269  0.0664 -0.1193  0.2054
 1520W        W 3670   7.929   4.708  26.466  0.3043  0.1685  0.1623
 1521W        W 3671  10.360   0.455  19.132  0.2855 -0.0267 -0.2308
 1522W        W 3672  18.607   2.230   2.279  0.0550 -0.1700  0.0390
 1523W        W 3673  15.893   2.084  15.855 -0.2504  0.0258 -0.1544
 1524W        W 3674   8.890   5.928  32.653 -0.2683  0.1358  0.2055
 1525W        W 3675  15.771   0.432   3.323 -0.1615  0.0728  0.0898
 1526W        W 3676  19.931   3.597   2.524  0.0636  0.1419 -0.0839
 1527W        W 3677  17.702   6.851  28.645 -0.2142  0.2239  0.0121
 1528W        W 3678  19.311   3.439   3.201  0.0635  0.1009  0.1024
 1529W        W 3679  10.084   3.806  22.435 -0.0962 -0.0356 -0.0593
 1530W        W 3680   9.316   6.656  25.262  0.0809 -0.1123 -0.0691
 1531W        W 3681   9.860   1.547  30.680  0.1332  0.2565  0.0915
 1532W        W 3682  16.228   7.801  21.183 -0.2765  0.0769  0.1739
 1533W        W 3683   7.525   2.610  24.964 -0.0609  0.1517  0.1394
 1534W        W 3684   9.466   2.739  30.500  0.0349 -0.0250 -0.1437
 1535W        W 3685   6.333   1.265   4.616 -0.0738  0.1287 -0.0195
 1536W        W 3686   8.407   4.797  13.804 -0.0522  0.0981 -0.2125
 1537W        W 3687  14.319   4.804   6.272 -0.0285  0.3546  0.0944
 1538W        W 3688   6.008   0.118  16.250  0.3304 -0.1599 -0.1328
 1539W        W 3689  14.758   0.704  19.450 -0.0065  0.4075 -0.1273
 1540W        W 3690  18.650   7.565   4.208  0.1710 -0.2708 -0.2763
 1541W        W 3691  14.822   4.310   0.141  0.2586 -0.0178  0.1868
 1542W        W 3692   6.866   7.170  12.911 -0.3772 -0.0766  0.3173
 1543W        W 3693  19.137   5.821   6.601  0.1279 -0.2207 -0.3744
 1544W        W 3694  23.438   6.229  25.414 -0.1572  0.0711 -0.0097
 1545W        W 3695   1.490   4.776  26.054  0.0481 -0.1044 -0.2380
 1546W        W 3696  16.102   3.235   0.962  0.1890 -0.0608  0.0504
 1547W        W 3697  12.073   5.886  19.826  0.3066 -0.0572  0.1300
 1548W        W 3698  16.915   4.941  32.908 -0.0738  0.0149 -0.0565
 1549W        W 3699  14.432   1.841  32.812  0.1900 -0.1629  0.1251
 1550W        W 3700   2.502   6.714   9.564 -0.3018  0.2408  0.0228
 1551W        W 3701  22.384   6.288   3.401  0.1108  0.2501  0.0135
 1552W        W 3702  19.824   5.541  10.927 -0.2995  0.1524  0.0807
 1553W        W 3703  18.963   5.299  23.534 -0.0354  0.0326  0.1577
 1554W        W 3704  19.242   0.509   9.131  0.2642 -0.0233 -0.2065
 1555W        W 3705   2.418   5.492  12.134 -0.2074  0.0665  0.0478
 1556W        W 3706  12.780   0.689   6.412  0.6380 -0.0935  0.0854
 1557W        W 3707   4.225   5.741   0.854  0.0639  0.0296  0.0557
 1558W        W 3708  12.256   4.105  27.431  0.1323  0.1832 -0.1259
 1559W        W 3709  10.138   2.702   5.727 -0.1484 -0.0106 -0.1486
 1560W        W 3710   7.338   2.668  14.507  0.0279 -0.3731 -0.0314
 1561W        W 3711  23.504   7.268  13.738 -0.0982 -0.0711 -0.2736
 1562W        W 3712   3.281   2.158   4.102 -0.2528 -0.4225 -0.1037
 1563W        W 3713   9.739   0.894  21.662  0.1403 -0.0760  0.0984
 1564W        W 3714   1.231   1.268  28.634 -0.2418 -0.0373 -0.1848
 1565W        W 3715  20.707   7.222  31.797  0.0178  0.1849 -0.0090
 1566W        W 3716  17.267   5.928   3.822 -0.1383 -0.3060 -0.2449
 1567W        W 3717  12.021   3.652   3.156 -0.0009 -0.0536 -0.0209
 1568W        W 3718  14.075   7.777  24.362 -0.1915  0.0298  0.0381
 1569W        W 3719   9.625   3.389   1.145 -0.1244 -0.0421  0.1305
 1570W        W 3720   6.433   5.234  12.170 -0.5844 -0.0520 -0.2643
 1571W        W 3721  17.796   4.887   6.996 -0.0354  0.0074 -0.2156
 1572W        W 3722  17.655   7.637  28.479 -0.3716 -0.0049 -0.4833
 1573W        W 3723  12.813   7.280  20.213 -0.2213  0.0232 -0.2862
 1574W        W 3724  14.567   3.256  20.770 -0.2458  0.0479  0.1641
 1575W        W 3725   5.859   5.440  15.033  0.1038 -0.1737  0.0089
 1576W        W 3726  13.717   4.912  26.802  0.0679  0.1609 -0.1971
 1577W        W 3727   8.125   3.182  27.294  0.3424 -0.0121  0.1265
 1578W        W 3728  20.838   5.434  21.033  0.1522  0.0811 -0.1463
 1579W        W 3729  12.256   4.018   6.166 -0.2122  0.1976  0.3665
 1580W        W 3730   8.667   2.169   5.123  0.2203 -0.0494 -0.1853
 1581W        W 3731  13.584   1.578  28.595  0.0836 -0.1063  0.0500
 1582W        W 3732   5.518   1.915  26.362 -0.1646 -0.1633  0.0778
 1583W        W 3733  16.309   1.300  25.351  0.2201  0.0020  0.1596
 1584W        W 3734   3.267   3.359  28.403 -0.1511  0.1404  0.0268
 1585W        W 3735  17.305   2.729  27.841 -0.1784 -0.1133 -0.0499
 1586W        W 3736  23.572   5.162  22.784  0.1569  0.0366 -0.0509
 1587W        W 3737   0.432   4.982  29.808  0.0641 -0.0231  0.1866
 1588W        W 3738   8.513   4.969  30.211 -0.1932 -0.0810 -0.0276
 1589W        W 3739   9.117   4.812  12.101  0.3863 -0.1552 -0.1991
 1590W        W 3740   2.680   4.168   0.414  0.0685  0.2222 -0.1101
 1591W        W 3741  12.106   2.562  29.727 -0.0555  0.3192  0.0084
 1592W        W 3742   2.352   0.380  29.668 -0.2824  0.2591  0.2827
 1593W        W 3743  19.441   2.613   8.717 -0.3408  0.2485  0.0302
 1594W        W 3744  21.002   3.378   2.567  0.1795 -0.0821  0.2308
 1595W        W 3745  18.311   6.275  22.727 -0.4302 -0.1375  0.2077
 1596W        W 3746  12.586   3.680   8.312 -0.3074 -0.2325 -0.0133
 1597W        W 3747  13.329   3.931  27.268 -0.5795 -0.3433  0.0338
 1598W        W 3748  15.028   0.438  10.257  0.1705 -0.0062 -0.0007
 1599W        W 3749  10.020   3.968  25.310  0.1595 -0.4522  0.0624
 1600W        W 3750  13.320   1.965  30.669 -0.0423 -0.1386  0.2656
 1601W        W 3751  15.955   3.757   2.375 -0.0282 -0.0704  0.2240
 1602W        W 3752   6.853   6.664  24.500  0.2156  0.3671 -0.0422
 1603W        W 3753   8.773   5.992  31.709 -0.0989  0.2843 -0.0429
 1604W        W 3754  12.811   4.246   1.077 -0.2325 -0.0008 -0.0044
 1605W        W 3755  20.833   4.581  29.145  0.2058  0.0904 -0.0063
 1606W        W 3756   1.820   5.607   3.055  0.1122  0.0441 -0.1722
 1607W        W 3757   4.463   0.918  28.589  0.0906 -0.0050  0.1265
 1608W        W 3758   2.991   6.445   9.414 -0.2582 -0.0508 -0.4381
 1609W        W 3759  17.296   2.710  20.163  0.2455  0.0982  0.1227
 1610W        W 3760  16.165   6.176   1.487  0.0474  0.2744 -0.0447
 1611W        W 3761  21.435   5.916  23.440 -0.2456  0.0590 -0.1017
 1612W        W 3762  10.176   0.109  26.147 -0.0931 -0.0506 -0.0902
 1613W        W 3763   4.494   4.936  29.476  0.0585 -0.1909  0.0826
 1614W        W 3764  19.665   2.309  16.712 -0.3022  0.1100 -0.1257
 1615W        W 3765   4.271   0.612  16.837 -0.1108 -0.2868  0.0408
 1616W        W 3766  21.362   5.667   4.374  0.1774  0.0536 -0.2212
 1617W        W 3767   9.685   0.864   9.679 -0.0110  0.0554 -0.1452
 1618W        W 3768  13.365   0.801  30.904 -0.0020  0.0554 -0.3316
 1619W        W 3769  10.148   2.593  26.633  0.0694 -0.1454  0.1384
 1620W        W 3770   1.863   1.257   0.403 -0.2475  0.0403 -0.1031
 1621W        W 3771  17.243   4.012  31.126  0.1729  0.1481  0.0570
 1622W        W 3772  13.146   4.740  32.762  0.1205 -0.3040 -0.0335
 1623W        W 3773  12.141   2.438  27.955 -0.3263  0.0793 -0.2341
 1624W        W 3774   9.416   2.333  10.823 -0.1258  0.0219 -0.1287
 1625W        W 3775   8.342   5.437   2.248 -0.0698 -0.2479 -0.0245
 1626W        W 3776  17.112   0.658  24.326  0.2539 -0.1223  0.0098
 1627W        W 3777  18.257   0.056  19.673  0.0964 -0.1866 -0.1553
 1628W        W 3778   0.345   5.408   0.657 -0.0581  0.1593  0.2828
 1629W        W 3779  18.924   6.578  19.930 -0.1595  0.3402  0.0563
 1630W        W 3780  14.802   4.859  15.224 -0.4136 -0.3951  0.1286
 1631W        W 3781   7.551   0.709   2.528  0.1840  0.2165 -0.0833
 1632W        W 3782   5.519   4.801  31.411  0.0432  0.2086 -0.3196
 1633W        W 3783   5.576   0.504  10.109 -0.1156  0.1760  0.1030
 1634W        W 3784   7.966   5.734   0.369  0.1897  0.1038 -0.1884
 1635W        W 3785   4.681   6.914  30.447 -0.1325 -0.0405 -0.2989
 1636W        W 3786   3.265   2.453  22.417 -0.2565  0.1596 -0.1247
 1637W        W 3787  18.378   1.374  31.038  0.2314 -0.2591  0.2433
 1638W        W 3788   9.541   1.212  21.348 -0.0383 -0.1565  0.1099
 1639W        W 3789  17.048   3.219  28.840 -0.1044  0.2527  0.3937
 1640W        W 3790   2.961   7.720  13.969  0.0496 -0.0244  0.0402
 1641W        W 3791  15.314   3.595  14.914  0.0981  0.2560  0.0565
 1642W        W 3792  16.593   2.058   0.428 -0.0280 -0.0718 -0.2766
 1643W        W 3793  16.826   3.141   4.411 -0.3492 -0.0329  0.0390
 1644W        W 3794   7.146   1.840  25.298  0.1033 -0.0412  0.3461
 1645W        W 3795  12.105   6.981  25.045 -0.4102  0.0651 -0.0024
 1646W        W 3796   5.473   1.167  12.322  0.0306 -0.1411  0.0626
 1647W        W 3797  14.891   1.640   3.603  0.0263 -0.2229 -0.2143
 1648W        W 3798  21.127   1.300   7.073  0.3893  0.0200  0.2344
 1649W        W 3799   7.099   0.647  31.755 -0.0361 -0.0085 -0.0538
 1650W        W 3800  15.628   4.174  15.553 -0.1583 -0.2377  0.0177
 1651W        W 3801  17.685   2.115  29.283 -0.1195  0.0223  0.3031
 1652W        W 3802   1.824   2.282  32.947  0.1815 -0.1517 -0.0531
 1653W        W 3803   4.674   0.226  30.064  0.0230  0.1714  0.1746
 1654W        W 3804  22.997   3.599  31.802  0.0444  0.0635  0.1410
 1655W        W 3805  20.313   3.218   9.661  0.0763  0.3313  0.0167
 1656W        W 3806  21.200   6.413  18.122 -0.1304  0.1500  0.2127
 1657W        W 3807  19.247   4.717  31.873  0.2467  0.3434 -0.0274
 1658W        W 3808  23.351   3.034  28.405  0.2462  0.3992  0.2043
 1659W        W 3809  24.737   6.493   0.045  0.0032  0.1096 -0.1180
 1660W        W 3810  22.564   4.994   9.216 -0.0516 -0.1605 -0.0339
 1661W        W 3811  16.450   5.061  20.469 -0.0120 -0.2997  0.0550
 1662W        W 3812   3.072   2.536  12.339 -0.1827  0.0506 -0.2458
 1663W        W 3813   7.737   0.067   5.830  0.2650 -0.0375 -0.2606
 1664W        W 3814   9.782   4.041  31.953 -0.0281  0.1204  0.2029
 1665W        W 3815  22.929   7.318  22.297  0.2387 -0.0947 -0.1297
 1666W        W 3816  20.011   5.324  24.277 -0.0058 -0.0987 -0.1114
 1667W        W 3817  19.417   4.101  19.079  0.0946 -0.1949 -0.0160
 1668W        W 3818  10.531   1.023  29.383  0.0504  0.0550  0.0790
 1669W        W 3819  15.495   7.019  32.472 -0.1304  0.0495  0.1482
 1670W        W 3820   2.037   0.450  11.146 -0.0648  0.1841  0.0022
 1671W        W 3821  22.841   1.430  20.718  0.1352  0.1388  0.0413
 1672W        W 3822   4.045   0.193   7.581  0.0772  0.1026  0.0411
 1673W        W 3823   1.746   4.598  32.404 -0.0145 -0.2879 -0.0508
 1674W        W 3824  13.349   6.345  23.866  0.2229 -0.2146 -0.0311
 1675W        W 3825  11.705   2.579  20.469 -0.4437 -0.0528  0.0146
 1676W        W 3826   6.019   7.316   2.245 -0.3032  0.1029  0.0185
 1677W        W 3827  14.903   0.070   6.405  0.1889 -0.0177  0.0397
 1678W        W 3828  19.871   4.337  24.144 -0.1368  0.3142  0.3587
 1679W        W 3829  18.035   1.596  20.603 -0.1100 -0.2660  0.1106
 1680W        W 3830   9.605   0.454   1.112 -0.2729  0.0127  0.0495
 1681W        W 3831   3.039   1.093  30.615 -0.2545 -0.0070  0.1179
 1682W        W 3832   8.253   4.635  14.503  0.0685 -0.1749  0.2670
 1683W        W 3833  21.453   3.258  29.456 -0.0940  0.2040  0.0130
 1684W        W 3834  11.727   2.943  32.111  0.1634  0.3075  0.2282
 1685W        W 3835  19.101   3.927  24.316  0.1914  0.2633  0.0795
 1686W        W 3836  23.804   7.111  32.201  0.0100  0.0928  0.0613
 1687W        W 3837   2.470   2.318  15.982  0.1578  0.1569 -0.1462
 1688W        W 3838  19.299   5.225  32.716  0.1042 -0.0226 -0.0412
 1689W        W 3839   7.583   5.400   0.619  0.0988  0.1669  0.0975
 1690W        W 3840  21.089   4.282  26.072 -0.0150 -0.0768 -0.0391
 1691W        W 3841  14.861   7.134  29.037 -0.2311 -0.0668 -0.2445
 1692W        W 3842   0.278   1.265  11.344  0.1427  0.0401 -0.0754
 1693W        W 3843  18.104   1.887  30.928  0.1836 -0.0807  0.0406
 1694W        W 3844  15.913   3.531   4.918 -0.1584 -0.0676 -0.0124
 1695W        W 3845   7.881   2.733  25.508 -0.4502 -0.0661  0.0794
 1696W        W 3846   9.433   5.727  11.009  0.2115 -0.0600 -0.2430
 1697W        W 3847  21.177   2.864  31.358 -0.2013  0.4354  0.1685
 1698W        W 3848   6.535   5.305  27.554  0.1311 -0.2163 -0.0036
 1699W        W 3849   8.652   5.484  31.713 -0.1217 -0.0209  0.0054
 1700W        W 3850  18.690   3.049  22.405 -0.2628 -0.1438 -0.0542
 1701W        W 3851   2.062   7.640   4.925 -0.1510  0.4095  0.1217
 1702W        W 3852  19.261   4.280  27.239 -0.0646  0.1928  0.0540
 1703W        W 3853  13.864   6.726  31.992 -0.1087 -0.2998  0.1696
 1704W        W 3854   7.085   6.044  11.018 -0.1083  0.0654 -0.0637
 1705W        W 3855   4.743   6.621   2.338  0.3070 -0.1779  0.2387
 1706W        W 3856  10.672   4.642   0.665 -0.2029 -0.1835 -0.2043
 1707W        W 3857   2.734   3.924  15.539 -0.1294  0.1222  0.1003
 1708W        W 3858   0.982   7.575  31.673  0.1249 -0.1041 -0.1929
 1709W        W 3859  16.295   2.234  19.146 -0.1321  0.1872 -0.0184
 1710W        W 3860  22.248   4.523  24.294  0.0672 -0.3719 -0.1013
 1711W        W 3861  11.921   3.105  23.453 -0.0846 -0.1924 -0.0512
 1712W        W 3862  19.689   6.385   5.249  0.0717 -0.0525  0.0231
 1713W        W 3863   4.105   1.080  17.033  0.1166  0.1799  0.0045
 1714W        W 3864   8.755   1.689   4.271  0.2449  0.1913  0.0377
 1715W        W 3865  13.100   1.013   0.851 -0.2496 -0.0913 -0.1335
 1716W        W 3866  15.913   6.817  24.680 -0.0504  0.0388  0.1328
 1717W        W 3867   6.190   4.798   7.145  0.1251 -0.0873 -0.0727
 1718W        W 3868   3.331   5.527  14.930 -0.1545 -0.2885 -0.2065
 1719W        W 3869  11.095   4.481  21.270 -0.0946 -0.1124 -0.2591
 1720W        W 3870  13.981   2.077  20.260  0.2987 -0.3044  0.2323
 1721W        W 3871   5.446   4.670   8.983  0.0918 -0.2145  0.1479
 1722W        W 3872   8.712   5.478   2.862  0.0186 -0.2303  0.2065
 1723W        W 3873   3.983   1.947  15.059  0.2094  0.3178  0.0619
 1724W        W 3874  19.842   0.649   6.276  0.1263 -0.2153 -0.0227
 1725W        W 3875  11.965   1.765  30.693  0.1293 -0.0439 -0.1690
 1726W        W 3876  17.349   5.968  28.715  0.0732  0.1511 -0.0889
 1727W        W 3877  20.240   0.317  26.828 -0.1552  0.3521  0.0643
 1728W        W 3878  22.754   7.794  24.505 -0.4713  0.3510  0.0152
 1729W        W 3879   7.696   0.115  14.588 -0.0972 -0.1119  0.0742
 1730W        W 3880  17.149   3.878  24.686 -0.0434  0.3183  0.1797
 1731W        W 3881  10.183   1.657   2.106  0.0928 -0.1680  0.0972
 1732W        W 3882  19.832   6.730   3.022 -0.2975  0.2568  0.1194
 1733W        W 3883  21.862   3.864  32.592 -0.1005 -0.2186 -0.1194
 1734W        W 3884  11.760   5.151  26.040 -0.4325 -0.1770 -0.0856
 1735W        W 3885   9.551   3.606  26.061  0.0127 -0.1733  0.2523
 1736W        W 3886  24.852   1.868   7.655 -0.0610 -0.1981 -0.0284
 1737W        W 3887   6.263   1.246  10.238  0.0117 -0.1809 -0.1652
 1738W        W 3888   6.455   4.197   6.163  0.1121 -0.1434 -0.2244
 1739W        W 3889   4.280   2.512  25.299  0.1686 -0.2339 -0.0573
 1740W        W 3890  22.937   0.919  27.186  0.1195  0.0255  0.2469
 1741W        W 3891   4.558   1.351  24.508  0.0571 -0.1412 -0.2050
 1742W        W 3892  20.751   1.604   7.343 -0.1398  0.0126  0.2569
 1743W        W 3893  11.955   5.847   1.119 -0.2094  0.0722  0.0615
 1744W        W 3894  21.109   3.148  10.589  0.0503  0.1167 -0.1456
 1745W        W 3895  14.153   6.789  22.407 -0.2648 -0.4537 -0.1145
 1746W        W 3896   9.572   1.057   5.917 -0.1781 -0.0260 -0.0385
 1747W        W 3897  19.536   3.071  29.456  0.1011  0.0157 -0.0018
 1748W        W 3898  12.101   1.512  25.703  0.3571  0.0645 -0.0199
 1749W        W 3899   7.521   3.623  14.053  0.0693  0.0863  0.1663
 1750W        W 3900  12.407   7.529   3.408 -0.3129 -0.1426 -0.1495
 1751W        W 3901   9.955   1.566  24.690  0.0085  0.0758  0.2801
 1752W        W 3902  13.523   0.146  16.134 -0.1369 -0.1710  0.0831
 1753W        W 3903  17.759   4.521  19.263 -0.1649  0.1843  0.0265
 1754W        W 3904   8.421   7.109  12.938  0.3455 -0.0236 -0.1113
 1755W        W 3905   2.192   5.398  16.369  0.0496 -0.1061  0.0085
 1756W        W 3906   6.745   5.182   9.059  0.0303  0.1429  0.0303
 1757W        W 3907  12.976   2.942  19.650  0.4950  0.2105 -0.1602
 1758W        W 3908  20.602   2.034  30.369 -0.1345  0.7640 -0.2097
 1759W        W 3909   3.200   1.718  31.368  0.0303 -0.1121  0.0631
 1760W        W 3910  13.396   5.811  23.814 -0.1004  0.1407  0.2925
 1761W        W 3911  14.283   3.661  30.652  0.0645  0.0600  0.1786
 1762W        W 3912  15.972   3.238  28.186  0.0363  0.2159 -0.1590
 1763W        W 3913  10.213   7.396   4.742  0.0217 -0.2032 -0.0593
 1764W        W 3914  20.836   5.256  22.350  0.2126 -0.1841 -0.0330
 1765W        W 3915   4.926   7.604   2.789  0.2924  0.1918  0.1347
 1766W        W 3916  13.330   7.594  27.791  0.2779  0.3586 -0.1558
 1767W        W 3917  17.230   0.746  21.347  0.0134 -0.0069 -0.2086
 1768W        W 3918   7.213   2.232   7.208  0.1042  0.1447 -0.0309
 1769W        W 3919  11.385   0.552  29.194  0.0011  0.1832  0.0017
 1770W        W 3920   0.492   2.786  11.247  0.1532 -0.1100  0.0933
 1771W        W 3921   6.360   4.635  30.348 -0.0694 -0.3306 -0.3068
 1772W        W 3922  17.853   6.467  23.759 -0.0902  0.0163  0.0178
 1773W        W 3923   5.290   4.337  32.949 -0.3494 -0.0759 -0.1333
 1774W        W 3924   0.195   3.115  24.640 -0.0700  0.0997 -0.1263
 1775W        W 3925   5.436   5.158   7.103  0.0571 -0.3201  0.1376
 1776W        W 3926  15.808   0.201  28.709  0.0235  0.0179 -0.3303
 1777W        W 3927   7.098   6.557  31.562  0.0796 -0.0822 -0.1301
 1778W        W 3928  15.309   7.351  22.537 -0.2045 -0.1670 -0.0588
 1779W        W 3929  19.160   3.901   2.486  0.1454  0.1559  0.1013
 1780W        W 3930  17.102   4.641  19.393  0.0041 -0.0814 -0.0455
 1781W        W 3931   5.800   2.422   5.935  0.2514 -0.0578  0.0499
 1782W        W 3932  22.802   4.130  22.461 -0.1299 -0.1275 -0.0610
 1783W        W 3933  23.692   5.249   6.042 -0.0296 -0.0762  0.0980
 1784W        W 3934   9.415   6.057  22.163  0.0125  0.4107  0.2264
 1785W        W 3935   3.131   3.169  24.597  0.1440 -0.2947 -0.2233
 1786W        W 3936   2.930   2.095  11.021 -0.1179 -0.0397  0.1378
 1787W        W 3937  24.787   3.705  26.168 -0.2922 -0.1659 -0.5105
 1788W        W 3938  12.764   6.106   5.998 -0.0089  0.2213 -0.2416
 1789W        W 3939   9.632   6.921   1.597  0.2184  0.1313 -0.3114
 1790W        W 3940  13.043   7.374   0.945  0.0640  0.2319  0.0007
 1791W        W 3941   7.984   2.638  31.419 -0.3589 -0.2106  0.2190
 1792W        W 3942  23.314   3.142  29.143 -0.0971 -0.0858  0.0831
 1793W        W 3943   7.435   2.869  26.365  0.1588  0.2570  0.1317
 1794W        W 3944  12.235   3.062  23.075  0.1727 -0.1056  0.0262
 1795W        W 3945   9.550   1.175   3.140  0.2284 -0.1290 -0.1174
 1796W        W 3946  14.093   3.811  28.085  0.1631 -0.2952  0.1727
 1797W        W 3947   4.503   3.750   3.377  0.1371 -0.2130 -0.0638
 1798W        W 3948   1.572   7.227   3.340  0.4038  0.1085  0.0738
 1799W        W 3949  12.079   3.197  26.895  0.0048  0.1056  0.0547
 1800W        W 3950  14.468   3.076   0.103  0.2352 -0.0181 -0.1336
 1801W        W 3951  17.045   4.951   5.605  0.3222 -0.0910  0.2529
 1802W        W 3952  20.260   6.034  12.183  0.3300  0.1463 -0.1158
 1803W        W 3953  15.039   3.497  24.094  0.0946  0.1046  0.0073
 1804W        W 3954   6.634   1.701   7.958 -0.1303 -0.0486  0.3816
 1805W        W 3955   4.231   6.074  29.533 -0.1855 -0.1828 -0.1409
 1806W        W 3956  16.474   3.879  14.872  0.0165  0.2825  0.1000
 1807W        W 3957  14.487   5.102   3.639  0.2584 -0.0949  0.1483
 1808W        W 3958  11.744   0.312  31.127  0.0386 -0.0645  0.0328
 1809W        W 3959  17.535   2.937  23.352  0.2063 -0.0296  0.0023
 1810W        W 3960   2.801   3.841   0.005  0.0682  0.1857 -0.0673
 1811W        W 3961  16.778   5.516  19.367  0.1132 -0.1049 -0.1670
 1812W        W 3962   9.754   0.783  32.243  0.0298  0.0912 -0.4899
 1813W        W 3963  21.647   6.236   2.884 -0.0805  0.0422  0.2128
 1814W        W 3964  14.464   5.757   8.886 -0.1404  0.1743  0.1034
 1815W        W 3965   1.954   1.806  31.597  0.0014 -0.1934 -0.3617
 1816W        W 3966  13.467   5.384   5.368  0.2709  0.1012 -0.3091
 1817W        W 3967  16.643   2.286  10.614  0.0217  0.3595  0.2044
 1818W        W 3968   3.853   2.421  15.075 -0.3025 -0.2131 -0.4256
 1819W        W 3969  13.155   3.435  23.111 -0.0431 -0.0496  0.0853
 1820W        W 3970   0.560   4.580   0.282 -0.2696 -0.0461 -0.1158
 1821W        W 3971  12.148   1.980  26.559  0.2307 -0.1917  0.0013
 1822W        W 3972  24.919   4.113  31.170  0.1892  0.1121 -0.0449
 1823W        W 3973  16.526   7.427  29.619  0.0842 -0.0115  0.1097
 1824W        W 3974   7.714   7.730  24.623  0.2536 -0.3057  0.2745
 1825W        W 3975   5.214   0.465  32.454 -0.0055 -0.0163  0.1655
 1826W        W 3976  14.780   2.319   8.056 -0.4101 -0.1162  0.1116
 1827W        W 3977  19.078   1.595  22.085 -0.3555  0.3616 -0.1355
 1828W        W 3978   0.863   7.789   0.649  0.2066 -0.2290  0.1761
 1829W        W 3979  16.747   0.209  19.183 -0.0406  0.0465  0.0972
 1830W        W 3980   7.830   0.043  25.622  0.1993 -0.2041 -0.0072
 1831W        W 3981   3.732   2.838   4.371  0.1504 -0.0657 -0.1103
 1832W        W 3982  12.393   7.427  23.418 -0.0423 -0.1334  0.4994
 1833W        W 3983   9.693   6.469   8.984 -0.0015 -0.0547 -0.1878
 1834W        W 3984  11.286   1.714  27.833  0.2672 -0.0836  0.3148
 1835W        W 3985  19.027   3.890  23.827  0.0676 -0.0217 -0.0814
 1836W        W 3986   9.914   6.715  30.276 -0.3652  0.1102  0.1658
 1837W        W 3987  23.985   0.727  32.306 -0.4300 -0.0592  0.0544
 1838W        W 3988  12.334   7.284   2.427 -0.3187  0.1782 -0.2379
 1839W        W 3989   1.280   3.375   0.369  0.0444 -0.0693 -0.1315
 1840W        W 3990   1.969   5.727  23.518  0.2876 -0.0742 -0.1697
 1841W        W 3991  15.906   1.247   6.581  0.1446 -0.1673  0.0510
 1842W        W 3992  19.306   3.427   5.605  0.0404 -0.1118 -0.0847
 1843W        W 3993  18.529   0.013   8.653  0.1753  0.0949  0.0630
 1844W        W 3994  13.054   2.604   2.978  0.0032 -0.1741  0.0704
 1845W        W 3995   0.464   6.449   6.908 -0.2036  0.1939  0.3900
 1846W        W 3996  13.733   3.358  23.751  0.0864  0.1052 -0.1201
 1847W        W 3997  23.624   2.427  31.921 -0.1397 -0.0472  0.0787
 1848W        W 3998  23.548   0.417   3.457  0.0920  0.0580  0.0314
 1849W        W 3999   5.701   0.094   1.341 -0.2767  0.2182  0.0930
 1850W        W 4000  24.161   7.036   3.616 -0.0628 -0.0118  0.2455
 1851W        W 4001   4.143   3.982  11.939  0.1022 -0.0134  0.1181
 1852W        W 4002  11.760   6.298  25.488 -0.0410  0.1440  0.0049
 1853W        W 4003  20.749   5.234  20.031  0.2532 -0.1121  0.0577
 1854W        W 4004   1.202   6.000  32.264  0.0242 -0.2178  0.0150
 1855W        W 4005  16.409   5.793   5.189 -0.0131 -0.2826  0.0358
 1856W        W 4006   2.616   7.525  26.340  0.1866 -0.0937  0.0522
 1857W        W 4007   8.796   3.297  31.153  0.0011  0.0088  0.1185
 1858W        W 4008   9.261   2.010  29.904  0.1525 -0.3874  0.0880
 1859W        W 4009  12.924   7.564   5.458 -0.0159 -0.1040  0.1461
 1860W        W 4010   5.596   4.769   8.003 -0.1532 -0.0975 -0.2899
 1861W        W 4011   7.392   1.911   4.168 -0.0203  0.0111 -0.3952
 1862W        W 4012   5.195   6.402  27.616 -0.2492  0.3838  0.0130
 1863W        W 4013  18.637   0.311  31.125 -0.4373 -0.0164  0.1732
 1864W        W 4014   7.824   4.056  12.504  0.0375 -0.0005  0.0993
 1865W        W 4015   8.115   1.253   2.611 -0.1538  0.1012  0.2341
 1866W        W 4016   3.535   4.474  25.257  0.0471  0.0484  0.2920
 1867W        W 4017  10.886   2.980   2.609 -0.4423 -0.1157 -0.1453
 1868W        W 4018  16.465   4.789  26.680  0.0303 -0.3188 -0.3302
 1869W        W 4019  22.056   7.295  32.440  0.0488  0.2344  0.2395
 1870W        W 4020   4.903   2.393  26.402  0.0197 -0.2443 -0.1002
 1871W        W 4021  12.661   3.852   7.794  0.2890  0.1238 -0.3676
 1872W        W 4022   3.608   6.487  28.981  0.0335  0.1621  0.1113
 1873W        W 4023   9.854   3.247  10.523  0.0836  0.2485 -0.3777
 1874W        W 4024   6.032   6.213  10.932 -0.0574  0.0671 -0.1424
 1875W        W 4025  18.380   5.071   0.229  0.1685 -0.2497  0.0908
 1876W        W 4026   1.989   5.604  15.151 -0.0358 -0.0120 -0.0443
 1877W        W 4027  13.961   2.740  30.851  0.1096  0.0021  0.0891
 1878W        W 4028   1.105   2.460   1.903 -0.2078  0.3033 -0.0339
 1879W        W 4029  15.949   2.149   3.227  0.3218  0.0696  0.0307
 1880W        W 4030   5.588   3.812   2.888  0.1558 -0.2326 -0.1163
 1881W        W 4031  12.731   1.522  28.299 -0.0395  0.0837 -0.1753
 1882W        W 4032   1.120   5.944   4.874  0.3114 -0.0253  0.0469
 1883W        W 4033  12.263   0.870  23.024 -0.0907 -0.1237 -0.1799
 1884W        W 4034  22.936   1.560  25.274 -0.2422  0.0518  0.1814
 1885W        W 4035  14.884   7.380  20.768 -0.0776 -0.0129 -0.2067
 1886W        W 4036  14.954   6.357  31.184 -0.1199  0.0509 -0.2162
 1887W        W 4037   2.663   6.460  23.547 -0.0483  0.3155 -0.0037
 1888W        W 4038  22.736   3.401   6.375  0.0437 -0.4413 -0.0069
 1889W        W 4039   2.625   6.847   3.389  0.1048 -0.2240  0.0453
 1890W        W 4040   1.087   0.722  26.412  0.1737  0.0321 -0.0917
 1891W        W 4041   6.705   3.173  30.536 -0.0735  0.0949 -0.1399
 1892W        W 4042  23.955   4.167   3.714 -0.0628  0.2140 -0.0657
 1893W        W 4043  20.938   3.668  10.563  0.2232  0.2980  0.3298
 1894W        W 4044  12.588   1.180  19.179 -0.0733  0.3983 -0.0417
 1895W        W 4045  24.289   4.816   9.977  0.2511  0.1430  0.3086
 1896W        W 4046   2.455   4.421   3.813 -0.2746 -0.1729 -0.2113
 1897W        W 4047  11.473   0.509  21.338 -0.1622  0.2501 -0.1960
 1898W        W 4048   3.816   2.654   9.405  0.1354  0.1123 -0.1700
 1899W        W 4049   1.008   6.344   0.149  0.4343  0.1739 -0.1586
 1900W        W 4050   1.461   1.105   3.191 -0.3266 -0.0814  0.2837
 1901W        W 4051   4.862   5.766  32.880 -0.0401 -0.0711  0.0629
 1902W        W 4052   9.389   1.457   8.117  0.0086  0.1053  0.0135
 1903W        W 4053  14.600   1.501   1.458  0.5085 -0.3269  0.2463
 1904W        W 4054   0.430   4.510  30.470  0.2857  0.0387  0.1245
 1905W        W 4055  14.222   6.197   9.780  0.1160 -0.0010  0.0235
 1906W        W 4056  15.798   7.776   0.404  0.0026 -0.0986  0.1713
 1907W        W 4057   6.204   6.799   6.701 -0.1316 -0.0230  0.3447
 1908W        W 4058   0.597   3.735   7.118 -0.0992  0.0730  0.0867
 1909W        W 4059  17.489   3.586  17.886  0.1104  0.1230 -0.0288
 1910W        W 4060  17.635   1.927  18.854  0.1325 -0.2163 -0.2269
 1911W        W 4061   5.202   7.618  14.474 -0.0664 -0.2162  0.0535
 1912W        W 4062   3.578   2.979  30.610 -0.2425 -0.1157 -0.1676
 1913W        W 4063  15.852   4.474  15.944  0.0721 -0.0045  0.1564
 1914W        W 4064  16.211   3.147  18.642  0.0821 -0.1445 -0.0968
 1915W        W 4065  18.010   2.299  22.291  0.2742  0.0321 -0.1527
 1916W        W 4066  21.060   3.164   3.611  0.0037 -0.1391  0.0108
 1917W        W 4067  12.790   6.184  31.831  0.0709  0.0335 -0.4452
 1918W        W 4068   4.206   4.717  13.313  0.0298  0.0774 -0.1133
 1919W        W 4069  22.495   4.082   2.379 -0.3139 -0.1885  0.1147
 1920W        W 4070  10.756   6.788  32.437  0.2606  0.0026 -0.0144
 1921W        W 4071   4.212   3.327  17.310  0.0411 -0.0862 -0.0024
 1922W        W 4072  17.203   3.595  27.447 -0.3883 -0.0072 -0.2012
 1923W        W 4073  14.843   4.382  22.613 -0.1127 -0.1573 -0.2536
 1924W        W 4074   2.629   2.946  30.636 -0.0990 -0.0291  0.3340
 1925W        W 4075   4.896   2.144  11.477  0.1463 -0.0177  0.0704
 1926W        W 4076   0.755   2.606  29.461 -0.0519 -0.1746 -0.1406
 1927W        W 4077  21.540   1.584  31.597 -0.2519  0.0176 -0.2609
 1928W        W 4078  10.759   4.101  29.866  0.3353  0.2067  0.0295
 1929W        W 4079   5.909   0.900  10.150  0.1305 -0.2031 -0.0639
 1930W        W 4080   9.485   2.701  12.798 -0.0267 -0.1064  0.2898
 1931W        W 4081  10.295   2.599   1.754  0.0947  0.0148  0.0169
 1932W        W 4082  15.526   4.099  27.155  0.2751 -0.0741 -0.0461
 1933W        W 4083   3.306   1.085   2.136 -0.0312  0.1719 -0.3271
 1934W        W 4084  22.719   5.159  31.841 -0.0952 -0.1336  0.3283
 1935W        W 4085  22.923   4.389  21.460  0.1524 -0.2882 -0.1230
 1936W        W 4086  23.580   4.780  11.728 -0.2646 -0.1928 -0.1530
 1937W        W 4087  19.486   7.517   5.173  0.0272 -0.2319 -0.1041
 1938W        W 4088   8.884   1.888   7.667 -0.3600 -0.0056  0.2477
 1939W        W 4089  11.742   6.294  23.415 -0.1507  0.0578  0.0035
 1940W        W 4090   7.888   4.581   4.382 -0.3166 -0.3249 -0.0773
 1941W        W 4091   8.827   3.955  27.478 -0.2202 -0.0873 -0.0794
 1942W        W 4092   9.564   6.203  11.060 -0.2974  0.1407 -0.2449
 1943W        W 4093   0.452   7.416  12.791 -0.0589 -0.0590 -0.1988
 1944W        W 4094  17.916   3.931  21.890 -0.1395 -0.0612  0.1448
 1945W        W 4095   2.662   1.312  16.781  0.3374  0.0573 -0.1333
 1946W        W 4096  15.878   7.329  22.365 -0.1505 -0.2175 -0.0620
 1947W        W 4097  18.924   5.843  29.921  0.0393 -0.1683 -0.1439
 1948W        W 4098  22.010   1.574   0.605  0.2754 -0.1034  0.2004
 1949W        W 4099  23.928   3.695  27.476 -0.1725 -0.1375  0.2186
 1950W        W 4100   5.230   1.274  17.966 -0.0884  0.1757 -0.1257
 1951W        W 4101   1.145   1.931  13.459  0.1520  0.1530 -0.0458
 1952W        W 4102   3.705   0.821  22.328 -0.0020  0.1194 -0.3474
 1953W        W 4103   5.950   4.730   2.377  0.0712 -0.1887 -0.1363
 1954W        W 4104  18.094   3.073   1.298  0.1020 -0.2961  0.3130
 1955W        W 4105  12.549   5.199  18.473  0.1304 -0.1098  0.2025
 1956W        W 4106  10.105   7.412  31.444  0.0454 -0.0806  0.0728
 1957W        W 4107  23.273   2.221   0.299 -0.2306 -0.0909 -0.2692
 1958W        W 4108   3.240   6.465  13.135  0.1913 -0.2058  0.4838
 1959W        W 4109   3.779   1.689  22.244 -0.0534 -0.0016  0.0658
 1960W        W 4110  14.224   4.832   0.295  0.0169 -0.0864  0.1763
 1961W        W 4111   2.520   2.314  26.380 -0.3804  0.0951  0.1553
 1962W        W 4112  10.177   2.189   8.068  0.1182  0.1762  0.3085
 1963W        W 4113  23.084   3.209  20.580 -0.2510  0.0003 -0.1033
 1964W        W 4114  12.256   2.507  25.267 -0.0798 -0.5758  0.0564
 1965W        W 4115  15.727   1.322   2.468  0.3187  0.1058  0.2018
 1966W        W 4116   3.942   6.803   5.335 -0.0982 -0.0214  0.3518
 1967W        W 4117  11.962   2.665  23.735 -0.0346  0.0112  0.0026
 1968W        W 4118  16.977   0.273  16.792 -0.0724  0.0242 -0.1561
 1969W        W 4119  21.292   1.793  32.085 -0.0425 -0.0755  0.1152
 1970W        W 4120   0.519   4.693  12.591 -0.0653 -0.1143  0.0213
 1971W        W 4121  19.381   7.557  31.316 -0.1995 -0.0415 -0.3035
 1972W        W 4122  23.669   0.035   0.245 -0.0427 -0.0328  0.3704
 1973W        W 4123   0.242   2.502  12.386 -0.0637  0.1298 -0.1627
 1974W        W 4124  23.565   1.426   4.036  0.2137 -0.0824 -0.1781
 1975W        W 4125  22.427   4.812  26.721  0.0952  0.0438  0.1729
 1976W        W 4126  17.995   4.908  11.092  0.3462 -0.2473 -0.1373
 1977W        W 4127   0.651   2.121  27.637 -0.2001  0.0182  0.2173
 1978W        W 4128  16.808   7.651  20.445 -0.2280 -0.3143 -0.0647
 1979W        W 4129  21.743   6.172   9.243 -0.1213 -0.1902  0.1312
 1980W        W 4130   8.542   7.023   2.886  0.3853  0.4421 -0.0646
 1981W        W 4131   3.307   2.026   3.560  0.1091  0.2304 -0.1813
 1982W        W 4132   9.736   0.081  19.896 -0.0230  0.2022  0.0241
 1983W        W 4133  13.564   7.463   9.847 -0.2294  0.2335  0.1562
 1984W        W 4134  11.916   2.694  17.290 -0.2680 -0.1954 -0.0848
 1985W        W 4135   9.494   2.006  26.943 -0.1235  0.2440 -0.1532
 1986W        W 4136  22.207   6.661   0.180 -0.2345  0.0814  0.3247
 1987W        W 4137  11.633   0.208  26.394 -0.2818 -0.1069 -0.0582
 1988W        W 4138   2.279   1.479   0.765 -0.2217  0.0737  0.0387
 1989W        W 4139   1.892   6.351  13.419  0.0051 -0.1863 -0.1696
 1990W        W 4140   3.656   3.756   2.110  0.1585  0.2612  0.1263
 1991W        W 4141   0.990   7.524  29.521 -0.1049 -0.0056  0.3434
 1992W        W 4142   0.809   0.566  32.934  0.0260  0.0018  0.1812
 1993W        W 4143   5.303   2.662  17.673  0.1362 -0.2725 -0.0872
 1994W        W 4144  14.668   0.365  31.120  0.1427 -0.1736 -0.0198
 1995W        W 4145   9.044   3.920  10.988  0.0227 -0.0505 -0.4744
 1996W        W 4146   3.158   2.783   3.623  0.0331  0.2597 -0.0004
 1997W        W 4147   1.127   1.370  10.851  0.2362 -0.1457 -0.0778
 1998W        W 4148   1.868   1.022   9.196  0.1986 -0.0152  0.1725
 1999W        W 4149   2.983   6.826  23.832 -0.0753 -0.1910 -0.2927
 2000W        W 4150  18.688   0.963   7.045  0.2369 -0.3023 -0.2407
 2001W        W 4151   1.793   6.910   7.075  0.1121  0.0681 -0.0364
 2002W        W 4152   6.883   4.276  26.761  0.1065 -0.1360  0.2465
 2003W        W 4153  20.544   5.605  12.208  0.0255  0.1383 -0.1318
 2004W        W 4154  15.445   0.482  32.146 -0.0759  0.0841 -0.0907
 2005W        W 4155  18.210   0.154   8.027  0.2970 -0.0705  0.1425
 2006W        W 4156  17.273   7.390   1.391 -0.1262 -0.0638  0.0832
 2007W        W 4157   2.559   2.789   8.201 -0.0356 -0.2227  0.0903
 2008W        W 4158   3.914   2.298   2.378 -0.3057  0.0338  0.0295
 2009W        W 4159   8.913   4.439  27.350 -0.0173 -0.1043  0.0656
 2010W        W 4160   9.499   6.358  28.085 -0.1025 -0.3171  0.0330
 2011W        W 4161   1.613   5.071  22.377 -0.0494  0.0727  0.0858
 2012W        W 4162   2.904   2.662  30.166  0.1537  0.1127 -0.1324
 2013W        W 4163  10.886   3.256  29.326  0.1972  0.1820 -0.0509
 2014W        W 4164   2.731   1.743   9.555 -0.0040 -0.1817  0.0699
 2015W        W 4165  15.072   4.198   3.822 -0.1795 -0.1839 -0.1028
 2016W        W 4166   0.064   0.088   3.135  0.0906 -0.1084  0.1104
 2017W        W 4167  13.712   7.551  23.384 -0.0968 -0.1296  0.5525
 2018W        W 4168  11.526   5.368  30.497 -0.0955 -0.0831  0.0482
 2019W        W 4169  20.584   6.606  26.552  0.0020  0.1040 -0.2007
 2020W        W 4170   4.632   6.294   5.056  0.1504 -0.0373  0.1387
 2021W        W 4171   8.008   6.287  14.626 -0.1115 -0.4519  0.1773
 2022W        W 4172   1.701   2.459  13.374  0.3742  0.2328  0.1903
 2023W        W 4173  21.019   2.689   9.690  0.0254  0.1140 -0.2556
 2024W        W 4174  15.768   0.748   8.777  0.1513  0.3561 -0.1469
 2025W        W 4175  15.226   1.297   9.578 -0.0539  0.3214  0.0975
 2026W        W 4176   2.319   4.482  11.437  0.4058  0.0692  0.3519
 2027W        W 4177   8.859   5.333  29.293 -0.0712  0.0260  0.0107
 2028W        W 4178  14.895   7.605  31.707  0.1102 -0.0754 -0.1633
 2029W        W 4179  24.475   2.406  32.081 -0.0477  0.1099 -0.0579
 2030W        W 4180   9.468   2.975   6.254 -0.0671 -0.0860  0.0704
 2031W        W 4181   3.739   4.469  14.626  0.2480  0.0540  0.0734
 2032W        W 4182  23.738   1.781   1.050  0.0725 -0.0821 -0.0436
 2033W        W 4183  13.834   1.316  22.394 -0.1695  0.1973  0.2631
 2034W        W 4184  19.682   3.962   1.703  0.0704 -0.2727  0.1777
 2035W        W 4185   4.157   7.564  11.725 -0.1429 -0.0337 -0.4411
 2036W        W 4186  23.815   1.239   3.566 -0.2474  0.1232 -0.1182
 2037W        W 4187  15.959   1.728   8.340 -0.0315  0.0244 -0.2906
 2038W        W 4188  22.418   4.867  30.720  0.0504  0.3807  0.3591
 2039W        W 4189  20.264   4.371   4.697 -0.2205 -0.1484  0.0597
 2040W        W 4190   6.558   0.329  16.992 -0.4795 -0.1202  0.3386
 2041W        W 4191  24.817   6.060   6.602 -0.0366  0.4084  0.0255
 2042W        W 4192   3.643   6.924   6.927  0.1019  0.3219  0.0949
 2043W        W 4193  13.373   0.594   3.028  0.1209  0.1994  0.4827
 2044W        W 4194   4.073   4.224  31.209 -0.1559 -0.0681 -0.1705
 2045W        W 4195  10.829   5.216   2.783 -0.0323  0.0788  0.0342
 2046W        W 4196   4.817   4.819   5.650 -0.1109 -0.2432  0.1366
 2047W        W 4197  20.643   5.165   8.779 -0.1574 -0.0499 -0.0070
 2048W        W 4198  20.632   0.903  22.683 -0.0880 -0.2647  0.1052
 2049W        W 4199  19.048   1.586  21.594 -0.1762 -0.1174 -0.0290
 2050W        W 4200  10.978   1.828   3.152  0.1722  0.1067 -0.3038
 2051W        W 4201  22.515   6.766   5.012  0.0905  0.0148  0.0423
 2052W        W 4202   2.340   2.332  22.745  0.1447 -0.2165  0.2481
 2053W        W 4203  14.706   7.129  24.114  0.0469  0.1133  0.2697
 2054W        W 4204  15.316   5.184  25.546  0.1711 -0.4335 -0.2480
 2055W        W 4205  16.584   7.294  20.163 -0.0012 -0.0523  0.0808
 2056W        W 4206  11.992   2.591   7.758 -0.0521 -0.0619  0.2027
 2057W        W 4207   5.956   2.753  12.647  0.0690  0.0573 -0.0184
 2058W        W 4208   8.617   3.185  27.309  0.0378  0.2823 -0.0431
 2059W        W 4209   4.796   2.127   2.312  0.0359  0.1592  0.1624
 2060W        W 4210  23.245   4.019  22.277 -0.0029  0.0770  0.2106
 2061W        W 4211  12.038   1.605   8.603 -0.2079 -0.0732  0.0534
 2062W        W 4212   1.567   2.329  21.687  0.1471 -0.0165  0.1951
 2063W        W 4213  18.204   4.503  27.268  0.1698 -0.1769  0.0521
 2064W        W 4214   1.310   5.204  22.015  0.2945 -0.1901  0.1963
 2065W        W 4215  20.097   0.863  21.832 -0.4434 -0.3335 -0.1204
 2066W        W 4216  23.714   2.129   0.758 -0.0174 -0.1601 -0.1624
 2067W        W 4217   3.681   5.573   3.618 -0.0032  0.0160  0.0766
 2068W        W 4218  16.659   7.437  29.138  0.1120  0.0073  0.0001
 2069W        W 4219  19.416   6.359  26.793  0.0279  0.1383  0.0760
 2070W        W 4220   2.293   4.393   7.194 -0.3444 -0.2425 -0.4218
 2071W        W 4221   8.372   7.401  11.221 -0.2317 -0.2316 -0.1255
 2072W        W 4222   9.603   1.306  30.291  0.0853 -0.2800  0.0563
 2073W        W 4223  20.310   3.418  17.301 -0.1040 -0.1828 -0.0993
 2074W        W 4224   2.589   5.661  32.859  0.1017 -0.1531 -0.0099
 2075W        W 4225  14.319   6.468   1.291 -0.0941 -0.0336  0.2788
 2076W        W 4226  12.080   3.230  31.952  0.0282  0.1910 -0.1011
 2077W        W 4227  24.696   6.650   2.065 -0.2511 -0.0162 -0.2741
 2078W        W 4228  19.667   1.412  25.139 -0.2389  0.0786  0.0001
 2079W        W 4229  15.783   0.078   9.279  0.1473  0.3303 -0.3927
 2080W        W 4230   5.799   3.244  12.739  0.3196 -0.0512 -0.1098
 2081W        W 4231   7.143   1.833  24.016 -0.0310 -0.3700 -0.3025
 2082W        W 4232   2.813   7.633   6.217 -0.1827  0.0451  0.1320
 2083W        W 4233   5.564   4.235  25.661  0.0459 -0.3219  0.0040
 2084W        W 4234   4.727   5.064  27.019  0.0167 -0.0573  0.1243
 2085W        W 4235   3.539   6.287  10.887 -0.1854 -0.0359  0.0406
 2086W        W 4236  19.894   5.837  29.605 -0.1139  0.1730 -0.0108
 2087W        W 4237   3.699   4.495   6.881 -0.2210 -0.3169  0.1002
 2088W        W 4238   6.563   0.837  11.931 -0.2549  0.2411  0.1425
 2089W        W 4239  18.654   3.508  16.343  0.1170 -0.0148 -0.4516
 2090W        W 4240  12.321   2.092  29.892 -0.2376 -0.0560  0.1771
 2091W        W 4241   8.755   2.893  13.423  0.1448  0.3093  0.0852
 2092W        W 4242  17.492   3.787   1.746  0.0246 -0.0819  0.1390
 2093W        W 4243  12.385   5.164   0.984  0.1483 -0.0556  0.0330
 2094W        W 4244  11.108   2.014   0.169  0.0305  0.3916 -0.1689
 2095W        W 4245  12.006   0.353  18.046 -0.0149 -0.1120 -0.3256
 2096W        W 4246  23.458   3.784  14.161  0.0497  0.0364  0.2132
 2097W        W 4247   3.467   6.025  31.991  0.0136 -0.0231  0.0218
 2098W        W 4248  18.489   0.666   0.359  0.3115 -0.0160  0.0702
 2099W        W 4249  23.345   4.337   5.711 -0.1194 -0.0231 -0.0498
 2100W        W 4250  21.710   3.122  27.560  0.1760  0.3231  0.1891
 2101W        W 4251   7.071   5.206   9.442 -0.1169  0.1557  0.0480
 2102W        W 4252  11.422   0.060  24.709 -0.2592  0.1264  0.0255
 2103W        W 4253   6.478   7.548  26.817 -0.1065  0.0397  0.0460
 2104W        W 4254  19.570   6.754  20.302 -0.0290  0.1029  0.1734
 2105W        W 4255   3.208   5.297   9.796  0.1221 -0.0493  0.0480
 2106W        W 4256  15.323   2.087  18.459 -0.3637  0.0315  0.1033
 2107W        W 4257  18.604   1.379  10.525  0.0714 -0.1314 -0.2321
 2108W        W 4258   8.714   5.253   7.236 -0.1305 -0.2569  0.0193
 2109W        W 4259   8.979   4.164  21.091  0.2444  0.0849 -0.1223
 2110W        W 4260   7.022   2.363  14.008  0.1755  0.1167  0.0184
 2111W        W 4261  16.389   5.538   1.552 -0.3385  0.0287  0.3021
 2112W        W 4262   7.669   5.779   3.925  0.2085  0.0355 -0.0442
 2113W        W 4263   3.699   1.164  27.393  0.0566 -0.0986  0.0039
 2114W        W 4264  20.567   6.839   8.888  0.0800 -0.5611  0.1340
 2115W        W 4265   1.232   2.368  11.255 -0.1057 -0.0970 -0.2091
 2116W        W 4266  17.638   7.664  19.877 -0.1949  0.1396 -0.1319
 2117W        W 4267  19.468   6.518  22.409 -0.2966  0.0341  0.4946
 2118W        W 4268  16.546   4.755   1.475  0.0655 -0.1346  0.0211
 2119W        W 4269  18.114   7.632  20.240 -0.0901 -0.0135  0.1187
 2120W        W 4270  13.865   3.247   8.629  0.1353  0.2976 -0.0378
 2121W        W 4271  22.283   3.714   3.773  0.0601  0.1635  0.2202
 2122W        W 4272  24.589   4.718  32.651 -0.5918 -0.0338  0.1193
 2123W        W 4273   5.200   0.430  18.929 -0.0871  0.0152 -0.0563
 2124W        W 4274   4.334   0.875  22.569  0.0045 -0.4415  0.1619
 2125W        W 4275   7.114   6.021  10.523 -0.0092  0.1814 -0.1273
 2126W        W 4276   5.011   1.297  25.763 -0.1287 -0.1268  0.1532
 2127W        W 4277  18.157   5.083  31.068  0.2514 -0.0034 -0.0493
 2128W        W 4278  13.840   2.344   4.482 -0.0055 -0.0535  0.3000
 2129W        W 4279  13.578   7.709   1.722  0.1294  0.1484 -0.1545
 2130W        W 4280   4.057   3.780  17.206  0.0107  0.1257 -0.0808
 2131W        W 4281  21.729   5.735   9.842 -0.1031 -0.0093  0.0117
 2132W        W 4282   4.313   5.980  28.648  0.0042 -0.0176  0.1075
 2133W        W 4283  17.034   3.517   1.840 -0.0694  0.1605 -0.1218
 2134W        W 4284  15.565   0.703  27.311  0.1300 -0.3059 -0.0400
 2135W        W 4285  18.877   0.142  17.492  0.2280 -0.0678 -0.3589
 2136W        W 4286  11.574   0.755  28.377 -0.1952 -0.2004  0.1050
 2137W        W 4287  23.690   3.490   5.498 -0.0364  0.0771  0.1082
 2138W        W 4288  11.010   5.054   8.769 -0.3568  0.0132 -0.2308
 2139W        W 4289   3.156   7.496  30.107  0.1159 -0.1590 -0.2609
 2140W        W 4290   4.342   4.927   5.440  0.1541  0.1794 -0.0609
 2141W        W 4291   6.039   7.763  29.919 -0.0818 -0.0218 -0.2759
 2142W        W 4292  10.498   2.954  26.705 -0.2757  0.0177 -0.0704
 2143W        W 4293  23.554   4.780   2.694 -0.1580  0.0277 -0.1013
 2144W        W 4294  24.086   3.185   6.449 -0.2176 -0.1062  0.2755
 2145W        W 4295   5.504   2.922   7.653 -0.0668 -0.1517 -0.0161
 2146W        W 4296  20.674   0.000  12.247 -0.2376 -0.1053 -0.0497
 2147W        W 4297   2.035   7.133   3.257  0.0444  0.1271  0.4370
 2148W        W 4298  10.741   4.181  25.731 -0.1461 -0.1256 -0.0651
 2149W        W 4299   2.937   5.297  32.696  0.0321  0.1594  0.2050
 2150W        W 4300  11.367   0.050  24.217  0.1632 -0.0323 -0.2821
 2151W        W 4301  15.689   1.907   0.658  0.0981  0.0672  0.1253
 2152W        W 4302   2.934   5.357   5.436 -0.2779 -0.1716 -0.3864
 2153W        W 4303  18.880   2.351   4.781 -0.1361  0.1499 -0.4612
 2154W        W 4304   5.130   2.032  24.180 -0.3829  0.4121  0.1791
 2155W        W 4305   2.638   5.066  28.298 -0.0277 -0.0497 -0.0114
 2156W        W 4306   9.290   3.785  24.805  0.0939  0.0965  0.0484
 2157W        W 4307  16.979   0.180  22.214 -0.4098  0.0206 -0.0375
 2158W        W 4308  19.027   3.697  25.267 -0.0789  0.0164  0.0906
 2159W        W 4309   2.100   4.468  27.732 -0.0370  0.1152  0.3680
 2160W        W 4310  17.786   4.884  22.082 -0.1602 -0.1507  0.0945
 2161W        W 4311   4.630   3.349  10.258 -0.0882 -0.0403  0.0842
 2162W        W 4312  18.508   5.628  32.634 -0.3201  0.0496 -0.1721
 2163W        W 4313   8.674   2.950  24.455  0.0735 -0.1198  0.0847
 2164W        W 4314  22.112   4.518   6.395  0.2049 -0.0415  0.1165
 2165W        W 4315   9.379   6.644   6.760  0.0972  0.2081 -0.1429
 2166W        W 4316   3.933   3.012   5.427  0.1464  0.1814  0.1980
 2167W        W 4317   8.929   4.358   3.534 -0.1349 -0.2666  0.1403
 2168W        W 4318  10.665   6.283   8.654 -0.0508  0.0245  0.5938
 2169W        W 4319  13.934   5.002   2.173 -0.1805  0.0117  0.1912
 2170W        W 4320  16.238   1.821  25.123 -0.2692  0.0515 -0.0971
 2171W        W 4321  22.130   4.165  28.096 -0.1782 -0.0046 -0.2484
 2172W        W 4322  19.589   1.901  23.814  0.1247 -0.1308  0.0228
 2173W        W 4323  17.173   0.930  10.645  0.0670 -0.0333  0.0762
 2174W        W 4324  24.096   4.659  32.520 -0.1030  0.0703  0.1411
 2175W        W 4325  14.657   2.556   5.308 -0.1457 -0.4039  0.2511
 2176W        W 4326   9.537   4.119  32.821  0.0833 -0.0344  0.0612
 2177W        W 4327  13.127   0.453  19.303 -0.3234 -0.1335 -0.0685
 2178W        W 4328   6.741   0.489  22.167  0.0182  0.1712  0.0076
 2179W        W 4329  19.797   6.563  20.700  0.1812  0.4244  0.1250
 2180W        W 4330   1.264   3.073  15.023  0.2643  0.1841  0.0850
 2181W        W 4331  20.177   5.139  24.707  0.0533 -0.1045 -0.1211
 2182W        W 4332  24.301   7.601  29.492 -0.1170  0.0816 -0.0107
 2183W        W 4333  11.881   1.385  31.072 -0.1636  0.1161 -0.0931
 2184W        W 4334  16.837   1.699  26.265 -0.0208 -0.0585  0.2037
 2185W        W 4335  16.893   6.878  29.186  0.1982 -0.1029  0.0543
 2186W        W 4336  17.729   2.269  15.918  0.0144  0.1789  0.0368
 2187W        W 4337  20.026   4.571   3.484 -0.3666  0.1671 -0.3056
 2188W        W 4338   8.833   2.731  27.351  0.1595  0.1825  0.1765
 2189W        W 4339  13.228   0.307   8.817  0.0756  0.2051 -0.2455
 2190W        W 4340  16.362   0.570   8.502  0.1789  0.1465  0.1592
 2191W        W 4341  10.035   0.978   5.083 -0.1284  0.0538  0.1503
 2192W        W 4342   9.115   0.542  13.912  0.0361 -0.0416 -0.1091
 2193W        W 4343   7.087   5.561  11.023  0.0623  0.2754 -0.0281
 2194W        W 4344  17.431   1.008  27.401  0.1924  0.0211  0.0645
 2195W        W 4345   3.736   0.145  26.945  0.3242  0.2910 -0.0127
 2196W        W 4346  21.901   5.446   2.026 -0.3023 -0.0359 -0.1261
 2197W        W 4347  15.086   5.766   4.982  0.1699 -0.0523  0.0156
 2198W        W 4348  18.927   1.042   1.156 -0.0543  0.0416 -0.0611
 2199W        W 4349   3.671   0.422  24.881  0.3678  0.1153 -0.2106
 2200W        W 4350  10.516   0.188   2.907 -0.3425  0.0717 -0.2184
 2201W        W 4351  11.095   1.533  32.281  0.3493 -0.4612  0.0436
 2202W        W 4352   3.592   1.228  12.345  0.1466  0.0305  0.0564
 2203W        W 4353  17.880   2.277  28.464  0.2711  0.2127  0.1124
 2204W        W 4354  22.254   6.675  19.329 -0.0107  0.2022  0.0708
 2205W        W 4355   3.918   6.587  17.739 -0.1923  0.0163  0.2276
 2206W        W 4356   3.730   2.588   5.093 -0.0818 -0.1421 -0.1756
 2207W        W 4357   3.220   1.154  28.520 -0.0147  0.0193 -0.0964
 2208W        W 4358  20.740   4.740   2.422 -0.0176 -0.1536  0.1342
 2209W        W 4359  17.965   2.628  26.608 -0.0139 -0.3670 -0.0901
 2210W        W 4360   1.015   4.781  28.986  0.0366  0.1338 -0.0292
 2211W        W 4361  11.601   4.114   2.355 -0.0075 -0.2087 -0.0994
 2212W        W 4362  16.165   0.015  25.203  0.2645 -0.0078  0.0675
 2213W        W 4363  12.345   5.407  20.094  0.0071  0.2020 -0.0476
 2214W        W 4364  18.994   1.261   8.058 -0.0073 -0.4731  0.1842
 2215W        W 4365  22.742   2.550  23.136 -0.2020  0.0635 -0.1403
 2216W        W 4366   8.372   1.273  10.920  0.3272 -0.1847  0.0394
 2217W        W 4367  21.786   5.830   0.637 -0.2444 -0.0829 -0.2849
 2218W        W 4368  15.672   5.004   5.141  0.0171 -0.3335  0.0221
 2219W        W 4369  12.963   7.593  28.266 -0.1282  0.1658 -0.0772
 2220W        W 4370  11.017   3.384  26.093 -0.0138 -0.2993 -0.0610
 2221W        W 4371   4.091   4.550  15.458 -0.0798 -0.3563  0.2881
 2222W        W 4372  12.440   5.279  32.731  0.0379 -0.3302  0.2665
 2223W        W 4373  19.505   2.671   9.760  0.0289 -0.0450  0.0635
 2224W        W 4374  13.490   4.473  25.850 -0.3453  0.2200 -0.3873
 2225W        W 4375  12.953   1.306   4.048  0.0614 -0.1047 -0.1725
 2226W        W 4376   6.657   5.556  15.243  0.0279  0.2337 -0.0806
 2227W        W 4377   5.912   0.898   6.155 -0.0615 -0.0234  0.2569
 2228W        W 4378   4.451   4.849  15.761  0.0203  0.1676 -0.0294
 2229W        W 4379  16.197   5.996  23.480  0.0504 -0.2702  0.1304
 2230W        W 4380   0.494   4.531  27.559  0.1772  0.0253  0.1780
 2231W        W 4381  11.297   0.601  12.371  0.2365 -0.1497 -0.0650
 2232W        W 4382   6.898   0.181  14.307 -0.1562  0.0496 -0.0511
 2233W        W 4383  13.045   3.037   1.262 -0.2493 -0.2362  0.1953
 2234W        W 4384  17.892   4.661  23.386 -0.1294 -0.0416 -0.5562
 2235W        W 4385  18.512   6.790  17.856  0.1173 -0.0207 -0.3071
 2236W        W 4386  10.971   0.347   4.167  0.2142 -0.1859  0.0372
 2237W        W 4387  10.460   3.908  24.797  0.1405  0.0049  0.2228
 2238W        W 4388  13.528   5.017   5.714 -0.1293 -0.0148  0.0574
 2239W        W 4389   3.978   3.146  11.414 -0.2682  0.2565 -0.1246
 2240W        W 4390  10.340   0.709   2.687 -0.2958  0.0743  0.1963
 2241W        W 4391   2.842   0.266   8.906  0.2086  0.0039 -0.0650
 2242W        W 4392  16.259   5.433  17.943  0.1024 -0.1295  0.1949
 2243W        W 4393   0.908   5.295   8.101  0.0725  0.0853 -0.2051
 2244W        W 4394  24.075   0.310   0.118  0.1589 -0.2447  0.0098
 2245W        W 4395  11.085   5.867  23.074 -0.0096 -0.1583 -0.0118
 2246W        W 4396  17.836   3.623   3.987 -0.1122 -0.0870  0.0547
 2247W        W 4397   6.313   4.159  28.186  0.0500 -0.2381  0.2456
 2248W        W 4398   5.325   3.936  15.244  0.1897  0.0045 -0.1577
 2249W        W 4399  23.490   6.143  28.309 -0.0056  0.1018  0.1212
 2250W        W 4400  10.355   5.218  22.756 -0.0404  0.0877  0.1885
 2251W        W 4401  16.769   1.791  17.176  0.0223 -0.0393 -0.0582
 2252W        W 4402  14.086   6.710  29.474 -0.3259  0.2159  0.1724
 2253W        W 4403  18.175   6.978   7.667 -0.2097 -0.2331 -0.2781
 2254W        W 4404  17.304   7.604  23.182  0.0995  0.1690 -0.0517
 2255W        W 4405   0.125   3.174   4.359 -0.1390  0.0321 -0.1230
 2256W        W 4406  15.720   0.582  19.619  0.1219 -0.3962 -0.2331
 2257W        W 4407   9.762   5.264  13.368 -0.2845 -0.0911  0.1096
 2258W        W 4408   2.876   3.578   2.361 -0.0388 -0.2985  0.0276
 2259W        W 4409   1.891   1.351  11.326 -0.2736 -0.1887  0.0838
 2260W        W 4410  23.701   2.798  23.110  0.0672 -0.1068 -0.0603
 2261W        W 4411   6.003   6.071  10.090  0.0652  0.1184 -0.1109
 2262W        W 4412  24.898   6.715   8.641  0.0249 -0.0059 -0.0559
 2263W        W 4413  11.172   2.176  21.845 -0.2188 -0.0601 -0.0050
 2264W        W 4414   2.652   3.946   3.942 -0.4430  0.0249 -0.0409
 2265W        W 4415  11.296   1.368  25.231 -0.0834  0.0263 -0.2587
 2266W        W 4416   6.569   7.781   1.013  0.0285  0.2540 -0.1768
 2267W        W 4417  17.910   3.191  30.764 -0.0777 -0.1775 -0.1170
 2268W        W 4418   1.123   3.947  10.645  0.1598  0.1996 -0.1925
 2269W        W 4419  11.583   1.501  22.576  0.3151 -0.1621 -0.0733
 2270W        W 4420  16.597   0.848  15.051  0.0105  0.1722 -0.1225
 2271W        W 4421   4.392   1.966  25.275 -0.0506  0.0741  0.3726
 2272W        W 4422  10.044   4.797  21.844 -0.0853  0.0645 -0.0744
 2273W        W 4423  19.236   4.843   2.241  0.2193  0.1712 -0.0831
 2274W        W 4424  19.035   1.409  30.606 -0.0375  0.0263  0.0954
 2275W        W 4425  14.718   4.381   2.353  0.0461  0.5648 -0.2889
 2276W        W 4426  17.338   7.667  22.288  0.2231  0.0115  0.2610
 2277W        W 4427   0.423   0.651   8.817 -0.0254 -0.3791 -0.1940
 2278W        W 4428  12.270   2.283  30.996  0.2258  0.1775 -0.0897
 2279W        W 4429   2.297   5.543  13.574  0.0631  0.2657  0.2774
 2280W        W 4430   3.552   2.037  11.251 -0.1083  0.1838  0.1438
 2281W        W 4431  21.108   6.798   6.018 -0.1023 -0.0466 -0.2131
 2282W        W 4432   8.156   4.310  22.443 -0.1107  0.0415  0.0643
 2283W        W 4433   9.060   2.617  31.640  0.0260 -0.0580  0.1286
 2284W        W 4434   0.635   7.072  11.753 -0.0623 -0.2894 -0.3391
 2285W        W 4435   3.492   2.525  10.385 -0.2340  0.0109  0.1685
 2286W        W 4436  18.618   2.481  30.587  0.0751  0.3436  0.2827
 2287W        W 4437  13.805   0.152  29.081 -0.2320  0.0787 -0.1408
 2288W        W 4438  15.767   7.539  15.088  0.1153 -0.0749 -0.2196
 2289W        W 4439  12.321   0.901  26.668  0.1807  0.4366  0.0886
 2290W        W 4440  14.321   1.685   4.290  0.0280 -0.1915  0.1165
 2291W        W 4441   6.753   0.325   8.080  0.1266 -0.1301  0.0380
 2292W        W 4442  14.679   1.041   5.470 -0.0451  0.1857  0.1831
 2293W        W 4443   4.972   5.501  31.215 -0.0638  0.0258 -0.2932
 2294W        W 4444  13.942   6.337  22.132  0.0207  0.1433 -0.0179
 2295W        W 4445  18.551   3.426  30.936  0.4153 -0.0380 -0.4348
 2296W        W 4446   0.066   1.453  27.536  0.2856 -0.0498  0.0973
 2297W        W 4447  15.757   3.056  16.647 -0.3273 -0.0372 -0.3646
 2298W        W 4448  13.606   0.247   1.330  0.2951  0.0024  0.1370
 2299W        W 4449  20.458   5.666   5.402  0.1143 -0.1505 -0.3036
 2300W        W 4450  21.332   7.289   3.613 -0.2191  0.0916 -0.0894
 2301W        W 4451   9.247   4.745   3.698 -0.0572 -0.2537  0.0314
 2302W        W 4452  14.871   2.319  20.717 -0.0762  0.1377 -0.2812
 2303W        W 4453  22.911   3.139  19.942  0.2004  0.0723 -0.0463
 2304W        W 4454  24.582   6.784   3.750  0.2931  0.0237 -0.1703
 2305W        W 4455   8.470   5.407  24.180  0.1777 -0.0511  0.1597
 2306W        W 4456  18.576   0.376  26.183 -0.3542 -0.0270 -0.1123
 2307W        W 4457  13.211   0.553   5.649  0.1356  0.4547  0.2219
 2308W        W 4458  17.512   1.702  30.933  0.2866 -0.2494 -0.0551
 2309W        W 4459  15.732   1.222  18.681 -0.1401 -0.0426  0.3080
 2310W        W 4460  23.593   6.631  32.256 -0.2312 -0.0205 -0.0821
 2311W        W 4461  19.805   7.517  26.073  0.0094  0.0604  0.1498
 2312W        W 4462  13.637   2.600  10.410 -0.0914 -0.3156  0.1771
 2313W        W 4463   5.094   1.767  30.711 -0.0581  0.1456 -0.1078
 2314W        W 4464  11.866   2.241  22.054  0.5383 -0.2336 -0.0165
 2315W        W 4465  23.076   4.519   1.327  0.2807  0.1990  0.1300
 2316W        W 4466   8.495   5.710  23.410 -0.0010 -0.0894 -0.0277
 2317W        W 4467  23.139   4.536  22.274 -0.0527 -0.0203  0.1407
 2318W        W 4468   7.572   6.467   7.568 -0.0842  0.0202 -0.2104
 2319W        W 4469  20.575   2.840   1.111  0.0073 -0.0090  0.0417
 2320W        W 4470   5.439   0.314   2.567  0.3140  0.0310 -0.1228
 2321W        W 4471   1.354   1.164   2.645 -0.0041  0.1983 -0.1000
 2322W        W 4472   3.605   3.639  17.394 -0.2782  0.0653  0.1217
 2323W        W 4473   5.142   3.891  22.935  0.0122 -0.3502  0.2746
 2324W        W 4474   2.648   1.782  15.126  0.1578  0.0591  0.2644
 2325W        W 4475  15.243   1.050   8.007 -0.0937  0.1785 -0.0015
 2326W        W 4476  24.561   6.887   0.979  0.0931  0.1450 -0.1014
 2327W        W 4477   0.251   3.204  31.323 -0.1696  0.2759  0.1402
 2328W        W 4478  20.799   7.709  27.619  0.2797 -0.1878  0.1434
 2329W        W 4479  15.594   0.207  20.143 -0.0080  0.0107 -0.4295
 2330W        W 4480  19.239   0.852   3.978 -0.1091  0.1302 -0.0985
 2331W        W 4481  18.257   0.837  11.014 -0.0329  0.1078  0.2053
 2332W        W 4482   1.648   2.635   8.282  0.2041 -0.0158  0.0703
 2333W        W 4483   3.544   2.467   3.698 -0.0951 -0.1630 -0.1898
 2334W        W 4484  21.318   4.806  31.287  0.1620 -0.0674 -0.0727
 2335W        W 4485   1.898   0.462   0.564 -0.2179 -0.0946  0.0097
 2336W        W 4486  19.035   2.316   8.686 -0.0541  0.1222 -0.1866
 2337W        W 4487  11.666   0.131  29.885  0.0194 -0.1868 -0.0214
 2338W        W 4488  16.671   7.090  15.366  0.2328 -0.2527  0.0351
 2339W        W 4489  14.828   7.727   8.241  0.0669 -0.1589 -0.2437
 2340W        W 4490   2.237   0.044   3.039 -0.1400 -0.2056 -0.3644
 2341W        W 4491   5.277   7.004  32.424 -0.0498  0.0517 -0.2510
 2342W        W 4492  20.971   3.139  29.319  0.0189 -0.1072 -0.0410
 2343W        W 4493   8.941   0.593   6.319  0.5481 -0.0583 -0.2722
 2344W        W 4494  22.194   6.062   2.095 -0.0073 -0.0405 -0.3610
 2345W        W 4495   9.434   0.394  22.840  0.1943 -0.0782 -0.2103
 2346W        W 4496  11.434   0.498  24.453 -0.1560  0.1429 -0.2642
 2347W        W 4497   4.364   5.842  23.249 -0.1198  0.0869  0.2638
 2348W        W 4498  12.546   0.793  19.787 -0.0540  0.0516 -0.1364
 2349W        W 4499  15.567   6.597   4.167  0.0110  0.2712 -0.1223
 2350W        W 4500  22.116   1.343  20.610 -0.2016  0.0193  0.0164
 2351W        W 4501   4.337   4.343   4.901 -0.1285  0.1237 -0.1988
 2352W        W 4502   2.886   5.609  24.814 -0.0343 -0.2555  0.0651
 2353W        W 4503  12.608   5.112  27.149 -0.2234  0.3137  0.0793
 2354W        W 4504   6.025   2.591  25.251  0.1075 -0.0305  0.0408
 2355W        W 4505  19.671   4.783  25.574 -0.0140  0.1969 -0.0363
 2356W        W 4506  17.959   3.743   6.637 -0.2321  0.0538  0.1886
 2357W        W 4507   2.073   4.517  15.489  0.2309 -0.0158 -0.0806
 2358W        W 4508   7.210   0.026   1.798 -0.1182  0.1603  0.3024
 2359W        W 4509  19.412   5.390  17.927 -0.0625 -0.0958 -0.2913
 2360W        W 4510   2.322   4.172  17.496 -0.3363  0.0224  0.0931
 2361W        W 4511   2.350   0.324  28.647 -0.1660 -0.1078 -0.0195
 2362W        W 4512  15.941   4.970  29.232  0.0752  0.0140  0.1690
 2363W        W 4513  12.244   1.435  28.012 -0.2247  0.1263  0.2771
 2364W        W 4514  22.880   3.408   1.629  0.0103 -0.0960 -0.0074
 2365W        W 4515  20.915   3.051  21.840 -0.2439 -0.1800 -0.2775
 2366W        W 4516   0.905   5.509  28.835 -0.2333 -0.1946  0.1340
 2367W        W 4517  16.181   3.019   6.692  0.1876 -0.0281 -0.0070
 2368W        W 4518   2.322   1.795  14.648 -0.2067  0.1841  0.2638
 2369W        W 4519   3.258   1.903   6.519  0.2924 -0.0885  0.3945
 2370W        W 4520  10.840   4.383  27.794 -0.2987  0.0359 -0.1363
 2371W        W 4521  14.362   5.248   0.611  0.1691  0.1823  0.0086
 2372W        W 4522  18.443   0.284  18.346  0.1663 -0.1910  0.0973
 2373W        W 4523   3.754   1.776  29.405  0.2468 -0.1012  0.1339
 2374W        W 4524   4.677   4.645  16.168  0.0383  0.1169 -0.0777
 2375W        W 4525   6.144   5.231   5.372  0.0916 -0.0501 -0.0626
 2376W        W 4526  19.096   6.417  22.806 -0.0491 -0.0424  0.0621
 2377W        W 4527   3.583   1.130   9.874  0.2101  0.0777  0.0012
 2378W        W 4528  12.457   3.673   3.527 -0.0406  0.0304 -0.1449
 2379W        W 4529  21.017   4.797  25.194  0.0447 -0.2852  0.1022
 2380W        W 4530   4.119   0.027  29.656  0.1684  0.2758  0.1655
 2381W        W 4531  18.823   7.625  32.972  0.0464 -0.3201 -0.0334
 2382W        W 4532   9.237   1.847  22.528  0.2593 -0.3186 -0.1439
 2383W        W 4533  15.743   1.584  28.880  0.0892  0.2023 -0.1188
 2384W        W 4534  21.957   3.900   7.381  0.0728  0.0479  0.2750
 2385W        W 4535  23.332   7.022   0.794 -0.2167  0.0104 -0.1903
 2386W        W 4536  24.804   1.646   2.642 -0.2717 -0.2282  0.1694
 2387W        W 4537   4.261   2.435   9.417 -0.1910  0.0688  0.1562
 2388W        W 4538   8.930   1.740   8.136 -0.0134 -0.1393 -0.1272
 2389W        W 4539   1.445   1.933   0.944  0.4839  0.1176  0.0637
 2390W        W 4540  12.277   3.744   3.973  0.0503 -0.2138 -0.1723
 2391W        W 4541   5.253   0.691  23.227  0.2298 -0.2611 -0.1520
 2392W        W 4542   2.348   7.671   0.450 -0.0434  0.2083 -0.1484
 2393W        W 4543   6.007   2.017  17.210  0.0112  0.0144  0.0520
 2394W        W 4544   8.875   7.476   0.867  0.2052  0.1105 -0.0607
 2395W        W 4545  16.409   3.644  21.524  0.2124 -0.2748 -0.2817
 2396W        W 4546   9.948   6.146  22.858 -0.0871 -0.1707 -0.1841
 2397W        W 4547  11.901   6.164  29.390  0.3206  0.2406  0.0553
 2398W        W 4548  20.454   6.924   4.698 -0.0716  0.0834  0.0127
 2399W        W 4549  20.889   0.364  11.254  0.1193 -0.1546 -0.1584
 2400W        W 4550   4.083   4.721   9.175 -0.2642  0.3222  0.1615
 2401W        W 4551   2.759   1.645  29.082  0.2274 -0.0862 -0.1338
 2402W        W 4552  24.077   3.914  10.147  0.2647  0.2387  0.0749
 2403W        W 4553  14.432   4.465   6.751  0.2604 -0.1862  0.0714
 2404W        W 4554  18.628   7.772   1.570  0.0166 -0.0189 -0.0145
 2405W        W 4555   5.654   0.353   8.764  0.1529  0.0586 -0.0081
 2406W        W 4556  15.127   1.281   6.495 -0.1148  0.2175  0.1515
 2407W        W 4557  12.638   3.176  19.390  0.2611  0.1457 -0.1534
 2408W        W 4558  11.230   2.766  32.119  0.0591  0.0569  0.2052
 2409W        W 4559  11.405   4.294  21.625 -0.1314  0.3791 -0.1602
 2410W        W 4560  10.265   3.260  21.810 -0.0828  0.0377  0.0613
 2411W        W 4561  24.759   6.939   6.798  0.0089  0.2945  0.1688
 2412W        W 4562   2.798   6.989  24.845 -0.4917 -0.2786  0.1486
 2413W        W 4563  12.518   2.090  32.873 -0.1572 -0.1005  0.0348
 2414W        W 4564  16.181   0.341  32.915 -0.1160 -0.0159  0.0509
 2415W        W 4565   9.481   4.575   7.550 -0.2302  0.0389 -0.2115
 2416W        W 4566   3.473   7.039  16.925  0.0475 -0.0752 -0.0856
 2417W        W 4567  15.479   3.543  21.993  0.0662  0.0377 -0.2740
 2418W        W 4568   4.294   6.186  27.594 -0.2959 -0.1814 -0.0081
 2419W        W 4569   0.916   5.754  29.624 -0.3464 -0.1556 -0.1266
 2420W        W 4570   4.002   1.575   8.772 -0.1456 -0.0289 -0.1253
 2421W        W 4571  10.660   0.939  24.047  0.1377 -0.1550 -0.0711
 2422W        W 4572  24.907   6.330   7.795  0.1618 -0.2455  0.0250
 2423W        W 4573   3.496   1.105  16.982  0.2029 -0.0912 -0.0050
 2424W        W 4574  23.363   6.930   8.977 -0.0216  0.1835  0.0405
 2425W        W 4575  14.345   6.117  20.546 -0.2930 -0.1681  0.0286
 2426W        W 4576   1.053   0.766   2.448  0.0737  0.0070 -0.1185
 2427W        W 4577  12.344   7.667  11.083 -0.1578 -0.0377  0.0963
 2428W        W 4578   9.039   1.583  27.625 -0.3350 -0.0636  0.0004
 2429W        W 4579  14.283   4.877  15.339 -0.2055 -0.1052 -0.1337
 2430W        W 4580   8.338   5.481   4.510 -0.0530 -0.1365  0.1036
 2431W        W 4581  23.957   1.577   1.975  0.0169  0.4506  0.0119
 2432W        W 4582  24.710   6.552   4.512 -0.2855 -0.0711  0.1988
 2433W        W 4583   6.114   1.388   6.401  0.0778  0.1376 -0.1614
 2434W        W 4584   2.999   4.324   8.572  0.0768 -0.0091  0.0871
 2435W        W 4585  23.857   3.876  21.327 -0.1569 -0.0105 -0.1203
 2436W        W 4586   1.973   3.064  25.406  0.1261  0.1284 -0.1333
 2437W        W 4587  23.023   4.848  31.445 -0.2385 -0.2323 -0.0076
 2438W        W 4588  23.183   3.900  31.391 -0.4002 -0.0377  0.0241
 2439W        W 4589   1.510   7.299  28.792  0.0455  0.1668  0.0579
 2440W        W 4590  17.604   4.712  29.169 -0.0310 -0.0243 -0.0106
 2441W        W 4591  11.335   5.953   9.931  0.1992  0.0931 -0.0315
 2442W        W 4592  22.624   5.500  26.922 -0.1006 -0.1137 -0.2397
 2443W        W 4593   5.222   5.931  17.958 -0.0840  0.0361 -0.0626
 2444W        W 4594   3.475   1.955  11.794 -0.0780  0.0077 -0.0871
 2445W        W 4595   5.418   6.433   7.957  0.1891  0.1880 -0.0916
 2446W        W 4596   9.977   5.395  11.471  0.0217 -0.2422  0.0839
 2447W        W 4597  18.339   6.431  20.210  0.1437  0.1422  0.0233
 2448W        W 4598  19.392   1.152   8.418 -0.0476 -0.2566 -0.0725
 2449W        W 4599   7.202   7.233  10.035  0.1986 -0.1690  0.1783
 2450W        W 4600  14.495   7.179  19.788 -0.1297 -0.0547  0.0043
 2451W        W 4601  11.134   6.723  30.062  0.0681 -0.0486  0.0171
 2452W        W 4602   7.069   2.351   4.550 -0.5318 -0.0220  0.2196
 2453W        W 4603  21.691   4.655   4.943 -0.0545 -0.0631 -0.2005
 2454W        W 4604  14.365   3.502   0.330  0.0447  0.0017 -0.1496
 2455W        W 4605   5.389   1.449   0.011  0.2054 -0.0801  0.0868
 2456W        W 4606  24.349   3.016  22.625  0.4561  0.2039 -0.3112
 2457W        W 4607  17.323   2.977  32.807 -0.2147  0.0783 -0.1080
 2458W        W 4608  19.579   7.692  17.668 -0.2447  0.0789 -0.1377
 2459W        W 4609   0.668   0.864   0.933  0.2550 -0.0258 -0.0525
 2460W        W 4610  15.482   1.419   3.560  0.5124  0.0907 -0.0523
 2461W        W 4611  18.581   2.850  25.022 -0.0581  0.1192  0.1508
 2462W        W 4612   4.884   4.483   8.969 -0.1929  0.2885 -0.1071
 2463W        W 4613   3.038   4.063  10.260  0.0000 -0.2469  0.0687
 2464W        W 4614  23.196   5.685  28.539 -0.1452  0.0701  0.0523
 2465W        W 4615  17.985   2.174  26.313 -0.2507  0.2808 -0.0167
 2466W        W 4616   0.498   0.174  30.354 -0.2671 -0.1154 -0.1772
 2467W        W 4617   3.972   6.905  16.878 -0.1634 -0.1612  0.4030
 2468W        W 4618   2.364   4.825  27.283  0.1887 -0.1402  0.0080
 2469W        W 4619  10.994   2.259  10.946  0.0634 -0.1634  0.1169
 2470W        W 4620  18.930   5.251  21.166  0.1182  0.0992 -0.0358
 2471W        W 4621  10.616   6.564  20.143 -0.0503  0.0021 -0.0156
 2472W        W 4622   5.908   3.402  26.771  0.4080 -0.2240  0.1738
 2473W        W 4623   5.130   0.561   3.346 -0.1817  0.0813 -0.3561
 2474W        W 4624  18.368   4.558  23.518  0.1077  0.2046 -0.2466
 2475W        W 4625  12.032   1.501   5.467 -0.1203 -0.0726  0.3342
 2476W        W 4626  19.722   0.723   1.688  0.2555 -0.0497 -0.2154
 2477W        W 4627  12.009   7.057  18.876  0.1661  0.1686  0.3309
 2478W        W 4628  11.851   2.160   1.604 -0.0717 -0.2105 -0.1387
 2479W        W 4629   7.260   4.001   4.973  0.1652 -0.1385 -0.0060
 2480W        W 4630  23.519   3.317  20.776 -0.1008 -0.2981  0.0486
 2481W        W 4631  13.604   6.168  18.769 -0.0611  0.0774 -0.1258
 2482W        W 4632   2.228   7.465  32.133 -0.1949 -0.2558  0.0454
 2483W        W 4633   5.781   6.985  17.559 -0.2697  0.3611 -0.0628
 2484W        W 4634  11.754   2.643   0.487 -0.1942 -0.0697 -0.0589
 2485W        W 4635   4.588   3.442  27.577 -0.1560 -0.1634 -0.0484
 2486W        W 4636  13.906   7.669  28.115  0.2046  0.1729 -0.2324
 2487W        W 4637  12.446   1.771  26.262  0.3443  0.2091  0.1225
 2488W        W 4638  23.330   5.173  25.763 -0.0651 -0.0743 -0.0297
 2489W        W 4639   0.964   4.092  32.721  0.1620 -0.0258 -0.1319
 2490W        W 4640   9.432   7.205   6.610 -0.0300 -0.0723 -0.0743
 2491W        W 4641  14.535   1.405  19.117  0.1900 -0.0009  0.3349
 2492W        W 4642  16.104   0.260  31.653  0.1992  0.4605 -0.0996
 2493W        W 4643  23.979   3.582  24.346 -0.2469  0.1286 -0.0844
 2494W        W 4644  24.226   2.924  10.802  0.1718  0.1722  0.0630
 2495W        W 4645  14.381   7.046  17.926 -0.0902 -0.0113 -0.0456
 2496W        W 4646   4.153   1.656   6.376 -0.0063  0.0023  0.2078
 2497W        W 4647  18.770   2.476  31.414  0.0861 -0.0716  0.1019
 2498W        W 4648   7.429   0.013  25.013  0.1166  0.1555 -0.1760
 2499W        W 4649   9.770   0.180  28.421  0.2871 -0.2389  0.0449
 2500W        W 4650  24.345   4.409  25.975  0.1991 -0.3778 -0.1283
 2501W        W 4651  11.837   7.767   8.723  0.2549  0.5450 -0.2042
 2502W        W 4652  19.945   6.138   9.357  0.1730  0.0819 -0.0291
 2503W        W 4653  13.504   3.689  22.752 -0.2128 -0.2839 -0.0669
 2504W        W 4654  20.008   2.441  32.789 -0.1083  0.1911  0.0013
 2505W        W 4655  16.194   1.687  27.407 -0.0030 -0.2028 -0.1103
 2506W        W 4656   5.054   0.707  31.404 -0.0567 -0.2734 -0.0114
 2507W        W 4657   7.437   5.102  32.201 -0.0990  0.1596  0.2593
 2508W        W 4658   7.157   1.837  30.677  0.1844  0.1313 -0.1446
 2509W        W 4659  22.982   6.564   5.106  0.3020 -0.1262 -0.0840
 2510W        W 4660  21.801   0.462  12.601  0.4464 -0.0604  0.0457
 2511W        W 4661  12.147   1.821  20.695 -0.0698  0.0339  0.0898
 2512W        W 4662  15.604   1.381   0.417 -0.0072  0.0711 -0.0342
 2513W        W 4663  20.911   3.752  11.534 -0.3238  0.0504  0.0879
 2514W        W 4664  22.446   7.701  32.410 -0.2796 -0.1657  0.0158
 2515W        W 4665   9.479   2.255  23.398 -0.0269  0.0262  0.0039
 2516W        W 4666  23.915   4.112  25.309  0.0087 -0.3330  0.2993
 2517W        W 4667  23.212   2.197   9.505 -0.0682 -0.1624  0.2934
 2518W        W 4668  23.314   4.015   3.918 -0.2770  0.2831 -0.4007
 2519W        W 4669  20.741   3.796   7.189 -0.0762 -0.2870 -0.3666
 2520W        W 4670   4.150   2.554   3.703  0.0236  0.4947 -0.2997
 2521W        W 4671   8.026   3.142  12.980  0.2256 -0.1889 -0.0607
 2522W        W 4672   2.338   5.572  30.846 -0.1971 -0.0347  0.0187
 2523W        W 4673   4.759   7.242   9.839  0.1044  0.1901  0.1984
 2524W        W 4674  22.364   0.830  29.261 -0.0119 -0.0415  0.0481
 2525W        W 4675  20.902   1.934  26.488  0.3421 -0.1325  0.0923
 2526W        W 4676   7.866   0.087   2.318 -0.0798  0.4237 -0.2550
 2527W        W 4677   7.508   6.037  31.469  0.0769  0.1278 -0.1983
 2528W        W 4678  14.957   1.082  30.196  0.0551 -0.0759 -0.2104
 2529W        W 4679   1.275   0.961  24.856  0.0706 -0.1301 -0.1025
 2530W        W 4680  12.040   6.656   6.188  0.1939  0.0393 -0.1550
 2531W        W 4681   1.997   4.909  14.765  0.2808 -0.2080  0.4075
 2532W        W 4682  24.963   6.878   4.719  0.2329  0.0352  0.0346
 2533W        W 4683  22.821   2.154   9.096 -0.2325 -0.2102 -0.2237
 2534W        W 4684   6.571   5.961  16.413  0.0050 -0.1275  0.2181
 2535W        W 4685  24.620   6.478  30.235 -0.1380 -0.0047 -0.1253
 2536W        W 4686   7.331   1.258  22.495  0.2410  0.0544  0.2627
 2537W        W 4687   7.565   2.255  24.505 -0.0672  0.1934 -0.3113
 2538W        W 4688  18.873   1.895  16.672  0.0017 -0.0861 -0.1742
 2539W        W 4689   7.544   2.379  25.467 -0.1026  0.2143 -0.2924
 2540W        W 4690   9.364   6.379   5.197 -0.0541 -0.0121 -0.1252
 2541W        W 4691  18.841   5.245   6.967 -0.3222  0.0334  0.0697
 2542W        W 4692   5.340   2.713  26.859  0.1187  0.1223  0.2991
 2543W        W 4693  24.181   6.579  23.529 -0.1469  0.1370  0.1243
 2544W        W 4694   9.335   1.979  23.816 -0.3238 -0.0375  0.0444
 2545W        W 4695   2.236   6.300  16.875  0.3254  0.0440  0.0472
 2546W        W 4696   3.332   6.911   1.631 -0.2764  0.1273  0.0557
 2547W        W 4697  12.314   5.634  24.887 -0.2883  0.2319 -0.0415
 2548W        W 4698  17.621   3.773  21.462  0.3428 -0.2535 -0.0937
 2549W        W 4699   6.836   4.601   7.823  0.0027 -0.2467  0.0481
 2550W        W 4700  13.204   0.922  18.975 -0.2682  0.0781 -0.0862
 2551W        W 4701   1.032   0.185   5.213  0.1614 -0.2123 -0.0247
 2552W        W 4702   2.637   7.056  26.386 -0.1308 -0.1925  0.2604
 2553W        W 4703  15.918   4.855  19.722  0.1531 -0.1042 -0.3497
 2554W        W 4704   7.914   4.273  26.026 -0.0852  0.1893  0.0645
 2555W        W 4705   8.170   2.292   2.946 -0.0322 -0.0759  0.2096
 2556W        W 4706   9.844   1.423  23.892 -0.0142 -0.0677 -0.1641
 2557W        W 4707  21.036   0.936  30.935 -0.4524  0.2685  0.1947
 2558W        W 4708   4.402   2.940   2.198 -0.0395  0.0100 -0.4138
 2559W        W 4709   1.227   4.920  15.293 -0.0733 -0.2326 -0.1614
 2560W        W 4710  10.946   3.168   4.163 -0.0697  0.2278  0.1973
 2561W        W 4711  19.151   3.273   6.003 -0.0631 -0.0924  0.0907
 2562W        W 4712   0.501   5.439  23.900  0.2110  0.1154  0.0103
 2563W        W 4713  20.386   2.762  21.059  0.0847  0.1457 -0.2962
 2564W        W 4714  18.784   0.567   9.010  0.0317  0.2830  0.1283
 2565W        W 4715  13.926   0.303   3.820  0.0433  0.1667 -0.1204
 2566W        W 4716   9.178   0.239  13.531 -0.1848  0.2476  0.0959
 2567W        W 4717   9.667   3.002   1.734 -0.1876  0.0322  0.2738
 2568W        W 4718  13.310   6.718  20.728 -0.2115  0.3119 -0.1679
 2569W        W 4719  24.463   4.302  20.858  0.2212 -0.4020 -0.1869
 2570W        W 4720  24.009   2.998   3.031 -0.1375 -0.0509  0.2311
 2571W        W 4721  20.372   7.261   3.552 -0.1109  0.1500 -0.2818
 2572W        W 4722   3.727   2.188   3.346 -0.2213 -0.1068  0.0104
 2573W        W 4723  22.261   5.152  25.853 -0.1636  0.0965  0.1412
 2574W        W 4724  14.888   1.870   8.164  0.1585  0.0506  0.0318
 2575W        W 4725   1.155   7.356  28.460  0.0153 -0.3750  0.1903
 2576W        W 4726  15.225   5.811  25.507  0.2846  0.0889 -0.3579
 2577W        W 4727  15.733   0.833   2.416 -0.3837  0.1203 -0.0677
 2578W        W 4728   4.505   1.652  26.487  0.2935  0.0553 -0.0704
 2579W        W 4729  15.856   3.744  28.400  0.2515 -0.1344 -0.0728
 2580W        W 4730   5.408   1.226  15.463  0.2406  0.0118 -0.1247
 2581W        W 4731  16.522   5.660   3.234 -0.0149  0.5964  0.1269
 2582W        W 4732  23.912   6.029  14.771  0.0221 -0.0003  0.0741
 2583W        W 4733   4.030   4.394   8.680  0.0164 -0.2019 -0.1464
 2584W        W 4734  24.332   1.326   0.660  0.0573 -0.2554 -0.0773
 2585W        W 4735   4.810   4.615  17.788  0.0592 -0.1976 -0.1272
 2586W        W 4736   3.786   7.649   3.345 -0.1805  0.0077  0.2350
 2587W        W 4737   0.584   4.082   1.158 -0.1079 -0.3356  0.1052
 2588W        W 4738  16.733   5.334   2.326 -0.0853  0.0997  0.1994
 2589W        W 4739   4.695   4.264  28.581 -0.0553 -0.2602  0.3654
 2590W        W 4740  17.659   2.175   1.937 -0.0665 -0.0343  0.0880
 2591W        W 4741   2.142   3.168  15.317  0.0425  0.1452  0.2023
 2592W        W 4742  12.402   3.417   9.479  0.1536  0.1605  0.0825
 2593W        W 4743  23.081   3.816   5.658  0.1757  0.0405  0.3128
 2594W        W 4744   1.161   4.281  29.690  0.2774 -0.0598  0.2646
 2595W        W 4745  15.721   5.681  20.578 -0.0927 -0.0661 -0.3292
 2596W        W 4746  23.498   3.937  20.010 -0.1079 -0.1475 -0.0569
 2597W        W 4747   2.972   1.778   5.705 -0.2582 -0.3582 -0.1226
 2598W        W 4748   5.024   5.812  27.656  0.0754 -0.0573  0.0347
 2599W        W 4749  21.599   2.246   3.024 -0.2460  0.0999 -0.1803
 2600W        W 4750  11.857   6.407  10.413  0.0094  0.1433 -0.0690
 2601W        W 4751  15.977   3.875  27.097 -0.1406  0.2458  0.2643
 2602W        W 4752  24.193   3.914  26.660 -0.1344 -0.0843 -0.0968
 2603W        W 4753   6.438   4.603   1.074  0.0353  0.1834 -0.2998
 2604W        W 4754   4.039   0.572  23.746  0.3053  0.1447  0.0701
 2605W        W 4755  17.291   0.525  16.537  0.2057 -0.1875  0.3778
 2606W        W 4756   8.916   2.682   0.466  0.2018  0.0069 -0.1348
 2607W        W 4757   8.328   0.543  12.256  0.4507  0.1786  0.0301
 2608W        W 4758  15.171   3.186   7.682 -0.0333 -0.3469 -0.1114
 2609W        W 4759   9.301   0.411  10.111  0.1157 -0.4427 -0.2383
 2610W        W 4760  24.062   7.324   0.950  0.0769 -0.1871 -0.0093
 2611W        W 4761   5.222   3.090   0.028  0.1504  0.2069  0.0505
 2612W        W 4762  22.352   7.516  13.464 -0.2203  0.1910  0.2034
 2613W        W 4763  11.570   2.690  10.538  0.1665  0.1479 -0.0527
 2614W        W 4764  12.956   0.889  31.488 -0.1487  0.2172 -0.2507
 2615W        W 4765   5.408   2.465   8.678  0.4050 -0.0837  0.1051
 2616W        W 4766  17.377   6.137  20.073 -0.1897 -0.0238 -0.0094
 2617W        W 4767   7.661   2.454   3.921  0.3759 -0.0267 -0.0863
 2618W        W 4768  15.610   2.197  29.652  0.1272 -0.2131 -0.0679
 2619W        W 4769  15.512   0.208   3.674 -0.1010  0.0341  0.0334
 2620W        W 4770   2.602   4.681  14.050 -0.2240 -0.0125  0.0758
 2621W        W 4771  20.232   4.730  23.199 -0.1976 -0.2397  0.2786
 2622W        W 4772  16.594   5.127  26.994  0.0465  0.2735  0.4980
 2623W        W 4773  13.380   4.131   8.695  0.0777 -0.1565 -0.1453
 2624W        W 4774  21.266   6.422  18.666 -0.0677  0.2126 -0.3258
 2625W        W 4775   7.427   0.210   0.007  0.2904 -0.0794 -0.2216
 2626W        W 4776  15.050   7.583  16.515  0.1560  0.1354 -0.0133
 2627W        W 4777   6.244   2.286  15.118  0.1639 -0.2976 -0.0746
 2628W        W 4778   5.881   2.105   8.501  0.0878  0.1103 -0.2719
 2629W        W 4779  19.538   3.010  28.502 -0.5688  0.2129  0.2441
 2630W        W 4780  18.542   4.687  30.055 -0.0064 -0.3019  0.2230
 2631W        W 4781  20.213   7.181  10.949  0.0930 -0.1570 -0.2041
 2632W        W 4782  16.745   1.746  15.154 -0.1664  0.0525 -0.1333
 2633W        W 4783   9.358   6.089  10.084  0.0259  0.2438  0.0065
 2634W        W 4784   4.249   6.368  25.925  0.1080 -0.3873  0.0475
 2635W        W 4785  15.823   0.174   7.908  0.0772 -0.1801  0.0043
 2636W        W 4786  16.898   5.754  18.952  0.1263  0.1911  0.2221
 2637W        W 4787   9.733   5.387   6.715  0.1471 -0.0423 -0.1815
 2638W        W 4788  19.142   0.715  16.241  0.0063 -0.1101 -0.0176
 2639W        W 4789  12.694   7.218  28.415  0.0040  0.0126 -0.0585
 2640W        W 4790  11.440   2.029  25.759  0.1150 -0.0038 -0.0169
 2641W        W 4791  21.268   3.409  12.542  0.0787 -0.1018  0.0827
 2642W        W 4792  13.966   6.694   8.261 -0.1815 -0.1017  0.2773
 2643W        W 4793  10.254   0.893  20.699 -0.1462  0.0460  0.0491
 2644W        W 4794  16.942   3.881  30.804  0.2722 -0.3073 -0.0244
 2645W        W 4795   8.898   1.550  13.725  0.0535 -0.1867 -0.0346
 2646W        W 4796   8.104   7.746   6.907  0.3211  0.1251 -0.1739
 2647W        W 4797  14.851   2.712  32.973 -0.1808  0.1034 -0.1450
 2648W        W 4798  10.925   7.800   1.022 -0.1903  0.0041 -0.1967
 2649W        W 4799   3.281   5.008  32.416 -0.0761  0.2425 -0.0567
 2650W        W 4800   9.495   4.077  25.228  0.1986 -0.4050 -0.2197
 2651W        W 4801   1.984   1.710  30.480  0.1420 -0.0862  0.2907
 2652W        W 4802   8.727   1.293  30.234  0.0549 -0.1425 -0.0020
 2653W        W 4803   0.140   4.372  24.841 -0.0738  0.2313 -0.1369
 2654W        W 4804   8.316   1.869   0.358 -0.0497 -0.3205 -0.1746
 2655W        W 4805   5.112   5.430   3.310 -0.1949  0.0243  0.1380
 2656W        W 4806   0.799   0.913   7.079 -0.2100 -0.0917 -0.1624
 2657W        W 4807   5.909   6.019   0.185  0.2366  0.0886  0.3016
 2658W        W 4808   8.931   5.663  10.239  0.1786  0.0786  0.1081
 2659W        W 4809   3.011   3.082  28.839 -0.1917 -0.0564  0.1072
 2660W        W 4810  24.874   2.962   9.641 -0.0740 -0.2663  0.0163
 2661W        W 4811  11.857   1.652   8.164  0.1417  0.0834 -0.0964
 2662W        W 4812   8.928   4.533   1.534  0.1278  0.0089  0.0749
 2663W        W 4813  19.327   1.508  20.216 -0.0129  0.1175  0.0404
 2664W        W 4814   6.482   6.733  23.690 -0.2608 -0.1469 -0.0239
 2665W        W 4815   9.083   2.083  26.058 -0.0065  0.2461  0.0825
 2666W        W 4816   7.822   1.673   6.925 -0.0048 -0.1610 -0.2701
 2667W        W 4817  22.160   3.195  27.968  0.1717 -0.2525  0.0349
 2668W        W 4818  13.595   2.334  21.233  0.0696  0.1921  0.0617
 2669W        W 4819  16.503   3.460   9.511 -0.0950  0.1634  0.3237
 2670W        W 4820   0.088   7.649   9.005 -0.0543  0.2204  0.1882
 2671W        W 4821  24.597   7.563   9.768  0.0095  0.1125 -0.1785
 2672W        W 4822   0.777   4.235  27.923 -0.0938  0.0475  0.1121
 2673W        W 4823   5.466   4.249   6.083 -0.1290 -0.1428 -0.2653
 2674W        W 4824   1.208   5.790  28.483 -0.1450 -0.3267  0.1098
 2675W        W 4825  19.297   1.202  21.330 -0.2451  0.0726 -0.0030
 2676W        W 4826   4.950   3.394  16.901 -0.1007 -0.3046  0.3084
 2677W        W 4827  24.268   4.797  13.425 -0.0206 -0.1120 -0.0894
 2678W        W 4828  22.194   1.463  28.795  0.3047 -0.2383 -0.0738
 2679W        W 4829   7.755   0.919   6.760 -0.0249 -0.0740 -0.0177
 2680W        W 4830  13.520   1.837   4.558  0.1512  0.0209 -0.1846
 2681W        W 4831  12.115   5.140  24.973 -0.1814  0.3952  0.0600
 2682W        W 4832   9.316   5.956  22.613  0.0929  0.1145  0.0707
 2683W        W 4833   0.309   2.603  13.181  0.2358 -0.0542 -0.0475
 2684W        W 4834  13.484   4.758  29.432  0.0035  0.1300  0.0273
 2685W        W 4835   8.050   1.570   3.595  0.0948  0.0671  0.0155
 2686W        W 4836  21.497   0.513   9.690  0.1012  0.1416 -0.1068
 2687W        W 4837   5.129   0.634   2.369 -0.0717 -0.5870 -0.1667
 2688W        W 4838  20.338   2.698  24.921 -0.2243  0.3473 -0.2727
 2689W        W 4839  17.574   6.269   2.432 -0.0281 -0.1034  0.0589
 2690W        W 4840  15.695   7.553  25.230 -0.2074  0.2701 -0.2193
 2691W        W 4841  15.139   7.285  28.295 -0.2605  0.0167  0.0053
 2692W        W 4842  21.094   2.768  18.951 -0.2234  0.0373 -0.0021
 2693W        W 4843   4.870   3.428   6.232  0.0632  0.1300 -0.0017
 2694W        W 4844  21.302   2.264  31.031  0.0373 -0.2498  0.2311
 2695W        W 4845   7.299   4.555  27.932 -0.2863  0.0822 -0.1559
 2696W        W 4846   5.450   1.416   9.424  0.0458  0.0610 -0.0059
 2697W        W 4847   1.705   2.881   2.216 -0.1123 -0.1975 -0.1099
 2698W        W 4848   8.346   6.800  12.505  0.0163 -0.1567  0.1695
 2699W        W 4849  23.610   4.683  10.148  0.2100 -0.1588  0.0421
 2700W        W 4850  17.499   0.240   0.159 -0.0486 -0.1767 -0.0119
 2701W        W 4851   1.766   5.464  32.634  0.0385  0.0246 -0.2128
 2702W        W 4852  22.454   7.590  28.277 -0.2134  0.2798  0.2565
 2703W        W 4853  24.958   3.378  30.469  0.3392 -0.1297 -0.0566
 2704W        W 4854  15.870   3.692  18.524  0.2673 -0.0696 -0.2060
 2705W        W 4855  12.787   4.627   5.219  0.1242  0.2801 -0.2836
 2706W        W 4856   8.694   7.766  25.497 -0.0495 -0.2175 -0.1068
 2707W        W 4857  13.499   5.756  31.382 -0.1235 -0.1498  0.3240
 2708W        W 4858   1.355   7.559  12.842  0.0503 -0.0375 -0.0416
 2709W        W 4859  22.833   3.333   3.919 -0.0807  0.3097 -0.1205
 2710W        W 4860   6.655   5.769  13.846 -0.1498  0.3061  0.1767
 2711W        W 4861   5.759   2.470  23.334 -0.1531 -0.1093 -0.1757
 2712W        W 4862   3.111   4.385  11.965  0.0577 -0.1501 -0.0598
 2713W        W 4863  11.235   7.034  23.293 -0.0075 -0.0603  0.0907
 2714W        W 4864   9.262   1.446   7.644  0.1557  0.0133  0.0718
 2715W        W 4865   8.750   2.081   7.194 -0.0821 -0.2021  0.1696
 2716W        W 4866  21.857   5.776   2.489  0.0344 -0.3989  0.3125
 2717W        W 4867  17.532   4.566  21.743  0.1497  0.0200  0.1569
 2718W        W 4868   1.597   5.689  33.034  0.3338  0.1310  0.3548
 2719W        W 4869  14.086   5.550   3.650 -0.1042  0.0767 -0.0132
 2720W        W 4870   0.777   3.194   9.036 -0.0860  0.2101  0.3314
 2721W        W 4871   6.827   0.106  27.622 -0.0701 -0.0417  0.0517
 2722W        W 4872   5.694   6.944  11.736  0.0074 -0.1231  0.0517
 2723W        W 4873   8.528   2.322   2.563  0.1766  0.1327 -0.0086
 2724W        W 4874  20.159   7.195  31.544  0.5878  0.4571  0.2413
 2725W        W 4875  23.292   1.297   2.325 -0.2205 -0.0448 -0.0580
 2726W        W 4876  17.652   2.903   1.593  0.1745 -0.5030  0.1940
 2727W        W 4877  22.550   5.426  12.857  0.1207  0.2447  0.2517
 2728W        W 4878  14.795   1.575  27.653 -0.0600 -0.1822 -0.0858
 2729W        W 4879  17.044   2.127  26.562 -0.1366 -0.0082 -0.2665
 2730W        W 4880   7.068   3.574   8.012 -0.2024  0.0616  0.0721
 2731W        W 4881  23.337   0.529  20.965  0.1552 -0.0214 -0.1122
 2732W        W 4882   4.752   7.451  22.068 -0.0296 -0.2026 -0.2933
 2733W        W 4883   6.538   3.444  31.260  0.1534  0.0486 -0.2473
 2734W        W 4884  20.185   5.939  18.096  0.0827 -0.1409 -0.0550
 2735W        W 4885   9.650   1.704  31.279 -0.0978 -0.0822 -0.0465
 2736W        W 4886   4.048   2.774  15.444  0.4642 -0.1915 -0.0052
 2737W        W 4887   2.398   5.380  27.538 -0.0003 -0.3781 -0.0157
 2738W        W 4888  20.065   6.077  21.959  0.1079  0.0068  0.1679
 2739W        W 4889  15.495   4.017  32.694 -0.0786 -0.2938  0.4101
 2740W        W 4890  22.345   1.713  10.480 -0.2195 -0.2485  0.0377
 2741W        W 4891   5.789   2.952  10.496 -0.2636  0.2785 -0.0872
 2742W        W 4892  18.337   5.012  21.063  0.2781 -0.0914 -0.1418
 2743W        W 4893  24.737   4.651   0.119 -0.1559  0.1238  0.1002
 2744W        W 4894  14.955   6.968  22.624  0.1824  0.0804  0.0892
 2745W        W 4895   7.178   4.381  10.112  0.3672  0.1875 -0.2053
 2746W        W 4896   1.788   5.848   5.470  0.2608 -0.0055 -0.2815
 2747W        W 4897  13.449   5.750   2.035  0.3246 -0.0540 -0.3550
 2748W        W 4898  17.455   1.848  31.847  0.1345 -0.0596 -0.3126
 2749W        W 4899  11.099   2.557   2.269  0.0195 -0.3354  0.0644
 2750W        W 4900   5.915   5.998   2.258  0.0283  0.0933 -0.1293
 2751W        W 4901  19.634   1.492  17.603  0.1711 -0.0791  0.1562
 2752W        W 4902   8.595   7.046  11.534  0.0375 -0.1537  0.4012
 2753W        W 4903  22.368   6.132   7.964 -0.1151  0.1473 -0.0181
 2754W        W 4904  18.730   3.589  24.484  0.1895 -0.1222 -0.1708
 2755W        W 4905  18.455   5.046  29.637 -0.2043  0.1650 -0.3087
 2756W        W 4906  10.463   1.683  20.063 -0.0988  0.1212  0.1245
 2757W        W 4907  15.437   4.869  30.063 -0.0839 -0.1688 -0.0395
 2758W        W 4908   7.652   0.419  16.223  0.1727  0.0615  0.1188
 2759W        W 4909  22.659   4.949  27.699 -0.2258  0.0330  0.0588
 2760W        W 4910   8.227   2.132  12.188  0.3494 -0.0194  0.1088
 2761W        W 4911   9.535   3.215  26.547  0.1953  0.0121  0.2413
 2762W        W 4912  14.845   7.443  29.616  0.2258  0.0771  0.0633
 2763W        W 4913  11.252   0.456  30.978 -0.0198 -0.2086  0.2242
 2764W        W 4914  20.242   0.483  26.349  0.0035 -0.2175  0.0602
 2765W        W 4915  18.130   2.287  31.357  0.1587 -0.1203 -0.2777
 2766W        W 4916   4.094   2.003  11.078  0.0264  0.0089  0.1818
 2767W        W 4917  16.973   2.775  22.647  0.0377 -0.1466 -0.1659
 2768W        W 4918   4.318   4.690  27.826 -0.2050 -0.2027  0.0173
 2769W        W 4919  10.720   0.149  32.947 -0.1745  0.0542 -0.1837
 2770W        W 4920  21.591   5.034   5.843 -0.2211 -0.2354  0.1895
 2771W        W 4921  12.372   5.587  25.852 -0.0194 -0.1169  0.0181
 2772W        W 4922  19.363   1.989  31.579  0.1455  0.0176 -0.1464
 2773W        W 4923   1.605   4.808  24.335 -0.1398  0.1146 -0.0901
 2774W        W 4924   4.857   6.276   6.502 -0.0181 -0.2329  0.1182
 2775W        W 4925  18.219   5.178  29.159  0.0787 -0.1127 -0.0598
 2776W        W 4926   2.715   7.690   3.040 -0.1537 -0.0707 -0.1863
 2777W        W 4927  20.857   6.735  20.160 -0.3840  0.0416  0.2333
 2778W        W 4928  13.622   0.150   9.995 -0.3414  0.3497  0.0352
 2779W        W 4929  24.300   3.270   5.936  0.0447 -0.0833  0.1037
 2780W        W 4930  12.500   2.922  19.842  0.2294 -0.1943 -0.0606
 2781W        W 4931   8.482   4.114  25.120 -0.0311 -0.4344  0.1765
 2782W        W 4932  16.599   6.128   1.205  0.2286  0.1593 -0.0188
 2783W        W 4933   1.219   6.516  12.886 -0.0220 -0.1916 -0.0656
 2784W        W 4934  12.379   1.132  23.977  0.1748  0.2007  0.0875
 2785W        W 4935  23.468   5.144  13.520  0.0919 -0.2514  0.0103
 2786W        W 4936   0.195   5.449  21.656 -0.2518  0.0102 -0.1690
 2787W        W 4937   7.666   2.894  13.372 -0.2159  0.3057 -0.1070
 2788W        W 4938  21.223   7.101  28.106  0.1287 -0.1230 -0.2662
 2789W        W 4939   4.023   5.396  29.583 -0.0864 -0.0377  0.2039
 2790W        W 4940  19.008   3.098   8.163 -0.0995 -0.1907  0.1547
 2791W        W 4941  14.950   2.732  25.948 -0.3336  0.2341 -0.2443
 2792W        W 4942   2.879   0.253   7.879 -0.2225 -0.1838  0.1284
 2793W        W 4943  18.892   6.604  29.238  0.1862  0.0947 -0.1353
 2794W        W 4944  20.621   5.169   2.949 -0.3407 -0.1670 -0.1628
 2795W        W 4945  19.994   5.303   1.966  0.0292  0.0538  0.2126
 2796W        W 4946  13.536   1.191   6.605 -0.0914 -0.0515  0.1413
 2797W        W 4947   3.819   6.460  22.815 -0.0491  0.1475  0.3205
 2798W        W 4948  13.238   0.579   3.644 -0.0332  0.0111 -0.0135
 2799W        W 4949   2.871   5.703  32.454  0.2341 -0.2243 -0.0701
 2800W        W 4950   9.529   7.306   2.551 -0.0269 -0.3600  0.2309
 2801W        W 4951  20.987   0.088   1.671  0.4125  0.1112  0.0421
 2802W        W 4952  12.725   7.486  26.899 -0.1800  0.1336  0.1543
 2803W        W 4953  23.499   2.589   6.011 -0.1009  0.2715  0.0282
 2804W        W 4954  17.036   6.046  18.520  0.1573  0.2134  0.1001
 2805W        W 4955   5.596   0.608  10.735 -0.1053 -0.1020  0.0160
 2806W        W 4956  17.678   4.492  24.245 -0.0865  0.1384 -0.2233
 2807W        W 4957  12.124   4.970  32.603 -0.2077  0.0390  0.2433
 2808W        W 4958  16.373   7.432   4.459 -0.1113 -0.1411 -0.1357
 2809W        W 4959  19.980   3.469   8.764  0.1723  0.0418 -0.4728
 2810W        W 4960   3.587   4.351  10.806 -0.0310 -0.0195 -0.1548
 2811W        W 4961   8.654   2.052   3.844 -0.3951  0.1176  0.0023
 2812W        W 4962   3.502   0.624  24.429  0.0356  0.1214  0.0501
 2813W        W 4963  12.424   4.282  10.711 -0.1163  0.3950 -0.1829
 2814W        W 4964  19.261   3.815  22.852  0.0209  0.2320 -0.1836
 2815W        W 4965  16.715   1.644  27.227  0.0010  0.0569 -0.4565
 2816W        W 4966  13.618   4.331   3.482 -0.0747  0.2565  0.0298
 2817W        W 4967   8.375   7.723  10.319 -0.0904 -0.2259  0.2434
 2818W        W 4968  10.149   0.826   9.370  0.0364  0.0522 -0.3244
 2819W        W 4969   0.071   2.752   2.163 -0.0151  0.0184  0.2403
 2820W        W 4970   1.831   0.312   8.785  0.0183 -0.0010  0.0340
 2821W        W 4971  20.045   3.267  29.639  0.2618 -0.1497 -0.0547
 2822W        W 4972   2.511   0.291  29.210  0.0319 -0.1693  0.1685
 2823W        W 4973   9.995   5.383  31.542 -0.1872  0.1234  0.1295
 2824W        W 4974   7.298   0.518   1.015  0.0502  0.0431 -0.0164
 2825W        W 4975   3.964   5.544  22.285 -0.1780  0.0662 -0.1045
 2826W        W 4976  10.407   0.791  23.671 -0.1471  0.0529 -0.0286
 2827W        W 4977   5.253   2.394  28.206 -0.1930  0.0984  0.0220
 2828W        W 4978  22.484   7.468  10.014  0.1317 -0.1159  0.0824
 2829W        W 4979  23.143   3.848   0.729 -0.0151 -0.0462 -0.0717
 2830W        W 4980   6.808   3.061  32.821 -0.1672 -0.4460  0.2575
 2831W        W 4981   1.643   0.294  29.310  0.1734 -0.0010  0.0782
 2832W        W 4982  19.545   0.490  18.375  0.1430 -0.1913 -0.1396
 2833W        W 4983   5.941   0.005  32.461  0.0183 -0.0440 -0.2433
 2834W        W 4984  15.375   5.278  10.344  0.1775 -0.0269 -0.1276
 2835W        W 4985  21.883   0.729   6.744  0.0287 -0.0004 -0.2480
 2836W        W 4986  23.459   7.609  30.331  0.0562  0.0092 -0.0808
 2837W        W 4987   0.642   6.089  11.920  0.0255  0.2105 -0.2052
 2838W        W 4988   0.797   0.082   1.644 -0.3175 -0.3031 -0.1885
 2839W        W 4989   5.620   7.326   5.657  0.1555 -0.2738 -0.0545
 2840W        W 4990   2.397   5.138  25.611 -0.1169 -0.0667  0.0768
 2841W        W 4991  15.575   4.962  23.470  0.0983 -0.0652 -0.0699
 2842W        W 4992  11.534   0.509   2.557 -0.1447  0.1875 -0.0821
 2843W        W 4993  13.161   5.276  19.145  0.2246  0.0159  0.1480
 2844W        W 4994  10.642   0.728  31.179 -0.0851  0.0162 -0.0548
 2845W        W 4995  16.035   5.665  19.658 -0.0921  0.0062 -0.3303
 2846W        W 4996  24.445   1.629  30.184  0.1363 -0.0581 -0.1106
 2847W        W 4997  15.653   0.929  15.585 -0.1423 -0.2554  0.1322
 2848W        W 4998   3.317   1.010  15.871 -0.1206 -0.1737 -0.2732
 2849W        W 4999  15.983   5.709  24.512  0.2909 -0.0372  0.0554
 2850W        W 5000  11.065   1.109  29.018 -0.1718  0.0431  0.0421
 2851W        W 5001  17.485   4.536   9.892  0.1269 -0.0309  0.0232
 2852W        W 5002  23.626   2.610  28.429 -0.1261  0.0462 -0.1152
 2853W        W 5003  21.793   5.266  12.126  0.0359 -0.0492  0.0150
 2854W        W 5004  24.442   2.954   8.240  0.1430  0.0146  0.0301
 2855W        W 5005  13.622   5.441  19.372 -0.2274 -0.4000  0.1279
 2856W        W 5006  12.304   2.239   4.922  0.0726 -0.1218 -0.1154
 2857W        W 5007  24.942   3.962  15.466 -0.0276  0.0452 -0.0987
 2858W        W 5008  19.146   1.019  28.282 -0.0621 -0.3610  0.0827
 2859W        W 5009   5.879   7.364   8.885  0.2715  0.0778  0.0870
 2860W        W 5010  23.408   5.520  27.627  0.0288 -0.0029  0.1746
 2861W        W 5011   3.635   0.100  13.483  0.0992 -0.4314  0.3731
 2862W        W 5012   8.969   3.472  12.661 -0.1973  0.2984 -0.1821
 2863W        W 5013   6.746   0.161  28.660 -0.0333 -0.1010 -0.0632
 2864W        W 5014  14.553   5.457   1.505 -0.0462 -0.1224  0.0849
 2865W        W 5015  16.373   4.937  22.476 -0.0576 -0.0841 -0.0789
 2866W        W 5016  23.642   0.584  28.389 -0.1323 -0.1506 -0.0777
 2867W        W 5017  20.193   7.299  32.049 -0.0925 -0.0063  0.0677
 2868W        W 5018  23.191   3.504   3.001 -0.0241  0.0564  0.3715
 2869W        W 5019   2.069   7.534   3.487  0.0728 -0.2114  0.0206
 2870W        W 5020  17.345   1.157  25.504 -0.6970 -0.2410  0.0946
 2871W        W 5021   6.552   1.110   3.625  0.2145  0.0518 -0.3202
 2872W        W 5022   6.882   0.810  13.149 -0.0548 -0.1733  0.0652
 2873W        W 5023  17.056   3.319   0.598 -0.1543  0.0397  0.0467
 2874W        W 5024   6.721   5.445  28.111  0.1321 -0.0039 -0.1544
 2875W        W 5025   5.599   0.994   8.013 -0.1948  0.1917 -0.2249
 2876W        W 5026  21.193   0.475   3.903  0.0361  0.2332 -0.0315
 2877W        W 5027  19.643   3.823  16.701 -0.1579 -0.1525  0.0596
 2878W        W 5028  21.501   5.977   1.777  0.1457  0.2836  0.0752
 2879W        W 5029  24.190   0.726  27.192  0.0461  0.0388  0.0453
 2880W        W 5030  16.541   0.866  19.974 -0.1406  0.2293 -0.1200
 2881W        W 5031   7.443   1.821   1.343 -0.1807 -0.0496  0.1869
 2882W        W 5032  18.789   0.611   2.758  0.2264 -0.1390 -0.0796
 2883W        W 5033   0.417   5.058   1.636  0.1192 -0.0842 -0.1237
 2884W        W 5034  20.096   5.211   7.347 -0.0910  0.0307  0.1316
 2885W        W 5035   2.139   5.515  22.758 -0.2764  0.1092  0.2238
 2886W        W 5036  20.961   1.740  21.511  0.0910 -0.0499 -0.1410
 2887W        W 5037   5.186   4.231  25.335  0.0436 -0.1422 -0.2442
 2888W        W 5038  24.143   6.188  10.338  0.1116  0.2307 -0.0495
 2889W        W 5039   0.040   0.789   9.143  0.0679 -0.0865 -0.3495
 2890W        W 5040   7.277   3.774  10.797 -0.2868  0.0482 -0.0902
 2891W        W 5041  15.470   7.466  21.022  0.0213  0.1246 -0.0519
 2892W        W 5042  12.846   2.169   1.343 -0.0339  0.0716 -0.0473
 2893W        W 5043  24.833   2.206  10.963 -0.2369 -0.0381  0.1515
 2894W        W 5044  24.066   2.093  27.819 -0.2132  0.0886 -0.0227
 2895W        W 5045  18.683   7.458  28.925  0.0137 -0.1932 -0.0213
 2896W        W 5046  17.012   0.836  23.117  0.0588  0.2385 -0.0653
 2897W        W 5047   6.742   0.607  10.637  0.0529  0.0950  0.0613
 2898W        W 5048  16.516   2.363  14.662  0.3495  0.0701  0.4121
 2899W        W 5049  13.459   6.136  22.939 -0.0683 -0.0464  0.1530
 2900W        W 5050  21.721   0.383   9.079 -0.2442  0.0638  0.2542
 2901W        W 5051  18.535   4.462   2.994  0.0494  0.4191 -0.2043
 2902W        W 5052  16.486   0.214  16.698 -0.0954 -0.1967  0.2109
 2903W        W 5053   2.315   1.870  30.056  0.1632  0.0707  0.0146
 2904W        W 5054  10.681   1.652   7.765 -0.1488  0.0234 -0.1444
 2905W        W 5055  24.903   6.057  10.013  0.0723  0.0169  0.1278
 2906W        W 5056  14.837   4.968  24.839  0.1340  0.0316  0.1615
 2907W        W 5057  15.041   4.991  10.093 -0.0257 -0.0903 -0.2060
 2908W        W 5058  14.450   2.647   0.889 -0.2618  0.0068  0.0021
 2909W        W 5059   4.650   7.449   6.777 -0.1098  0.0799 -0.0155
 2910W        W 5060   1.165   0.626  14.921  0.2819 -0.2650 -0.0338
 2911W        W 5061   4.761   3.427   5.235  0.3538  0.2561  0.2597
 2912W        W 5062   3.142   4.287   6.853 -0.0724  0.3305 -0.3117
 2913W        W 5063  23.448   0.270   0.619 -0.0615  0.2385  0.1347
 2914W        W 5064   5.863   1.958  28.466  0.0075  0.2650  0.1431
 2915W        W 5065  19.949   5.607  18.594 -0.1347  0.4854  0.1597
 2916W        W 5066   1.732   0.878  29.983  0.1300 -0.0444  0.1073
 2917W        W 5067  14.243   3.398  32.313 -0.2766  0.0293 -0.1659
 2918W        W 5068   3.537   3.117   9.452 -0.2696  0.3837  0.1027
 2919W        W 5069   0.217   0.205   4.783 -0.0546 -0.0748  0.0927
 2920W        W 5070  13.789   7.648  23.906  0.2973  0.1744  0.0207
 2921W        W 5071  15.758   5.842  29.300 -0.1749 -0.3039 -0.2082
 2922W        W 5072   2.960   5.475   6.092  0.0755 -0.4042  0.0907
 2923W        W 5073  24.492   2.022  31.709  0.1036 -0.1481 -0.1156
 2924W        W 5074   5.871   5.650  29.103  0.1995  0.5998  0.0156
 2925W        W 5075  10.615   3.344   9.781 -0.1829 -0.2348  0.1700
 2926W        W 5076  10.826   1.087  29.869 -0.0139  0.0673  0.1424
 2927W        W 5077   3.541   0.305   1.505  0.1598 -0.1197 -0.1116
 2928W        W 5078  16.692   7.403   1.365  0.1060  0.2842 -0.2410
 2929W        W 5079   5.662   3.550  32.301 -0.0784  0.0077 -0.0358
 2930W        W 5080  22.067   3.079   0.409  0.4716  0.0628 -0.0879
 2931W        W 5081  21.091   0.055   9.519 -0.0642  0.1363  0.2126
 2932W        W 5082  19.077   2.816  16.618 -0.0182  0.0038  0.1405
 2933W        W 5083   4.427   6.809   4.308  0.4617  0.1000  0.2947
 2934W        W 5084   0.743   3.219  15.264 -0.1797  0.1069 -0.4087
 2935W        W 5085   5.090   3.084  29.418 -0.1191  0.3248  0.2179
 2936W        W 5086   6.286   7.295  29.575  0.1151 -0.3384  0.2783
 2937W        W 5087   6.585   1.215  12.300 -0.3060  0.2838  0.3269
 2938W        W 5088   8.467   2.931  13.042 -0.0847  0.1587  0.3176
 2939W        W 5089  13.795   3.038   1.017 -0.1985  0.0894 -0.1316
 2940W        W 5090   4.666   6.675  26.129 -0.1518 -0.1241 -0.0820
 2941W        W 5091   3.627   1.372   4.342 -0.2648 -0.3315 -0.1137
 2942W        W 5092   0.330   0.952   1.953 -0.1635  0.1462 -0.1502
 2943W        W 5093   7.840   7.552  27.403  0.0941 -0.2309 -0.1167
 2944W        W 5094  20.133   2.515  32.242  0.2591 -0.2057 -0.0886
 2945W        W 5095   5.659   4.778  29.178  0.0379  0.1898  0.1018
 2946W        W 5096   6.143   7.275   6.791  0.0451  0.0035 -0.2323
 2947W        W 5097  24.266   3.680  25.242 -0.1647 -0.0403 -0.0385
 2948W        W 5098   0.616   3.762   3.117 -0.1358 -0.1218  0.0144
 2949W        W 5099  13.289   6.140  31.561 -0.0421 -0.2205 -0.1965
 2950W        W 5100  23.858   4.697  25.167 -0.0279  0.1542  0.0804
 2951W        W 5101  20.076   2.968  23.893 -0.2885 -0.1249  0.1169
 2952W        W 5102   1.156   1.413  30.724 -0.5606 -0.0258  0.0692
 2953W        W 5103   7.776   4.843   8.840  0.1725 -0.1605  0.2904
 2954W        W 5104   7.729   4.888   6.679 -0.0395  0.0301  0.1419
 2955W        W 5105  19.683   5.861  19.858 -0.0970  0.2528  0.0658
 2956W        W 5106  13.090   6.816  21.214  0.2321  0.1662 -0.0654
 2957W        W 5107  13.591   6.353   2.826  0.0360 -0.1787 -0.0348
 2958W        W 5108  13.468   0.735  29.159  0.1204  0.0095 -0.2012
 2959W        W 5109   2.620   5.898  11.765  0.1795  0.1084  0.0060
 2960W        W 5110  23.252   0.629   7.393 -0.0295 -0.2209 -0.0234
 2961W        W 5111  21.897   2.897  26.150  0.0782 -0.0372 -0.2553
 2962W        W 5112  20.260   2.513  23.671 -0.2031  0.0093  0.0895
 2963W        W 5113  14.243   1.718  26.926  0.0396 -0.0285 -0.0793
 2964W        W 5114   2.360   5.417   7.713  0.0049  0.0281 -0.0283
 2965W        W 5115  19.157   6.999  20.244 -0.1974  0.2477  0.1277
 2966W        W 5116  14.947   1.152  20.016  0.1345 -0.0874 -0.2855
 2967W        W 5117   4.590   6.256   7.346 -0.1253 -0.1109 -0.0910
 2968W        W 5118  11.833   3.519   9.458  0.2049  0.0376 -0.0929
 2969W        W 5119   0.848   7.526  31.112 -0.3450 -0.1110 -0.1874
 2970W        W 5120   0.118   5.287  13.102  0.0763 -0.0989 -0.0986
 2971W        W 5121  21.592   3.891   7.707  0.0008 -0.2926  0.0763
 2972W        W 5122  17.470   0.330  21.467 -0.0991 -0.2021  0.1669
 2973W        W 5123  18.336   1.269  24.300  0.0429  0.1544  0.5349
 2974W        W 5124   3.623   7.527   2.515  0.0918  0.2147 -0.2475
 2975W        W 5125   3.813   2.233  11.607  0.0296  0.0629  0.1986
 2976W        W 5126  17.232   3.630  17.428 -0.1075  0.1852 -0.0448
 2977W        W 5127   4.254   1.081  16.513 -0.2275  0.1123  0.0322
 2978W        W 5128  18.539   5.015  23.949 -0.0940 -0.1786 -0.0375
 2979W        W 5129   8.299   6.476   2.070  0.2913  0.0491 -0.2352
 2980W        W 5130  12.031   6.888  31.958  0.1513 -0.1129  0.2708
 2981W        W 5131   7.325   3.453  15.786 -0.1739  0.4389 -0.0336
 2982W        W 5132   5.616   3.996  17.730 -0.1184 -0.1598 -0.0902
 2983W        W 5133  21.642   5.456  11.068  0.1619  0.2968 -0.1149
 2984W        W 5134  18.808   5.116  28.143  0.1617 -0.0206  0.2398
 2985W        W 5135  13.243   3.758  25.314 -0.0071  0.2390 -0.0765
 2986W        W 5136   0.612   7.556  22.060 -0.1642  0.1559 -0.0946
 2987W        W 5137   7.069   5.032  11.309  0.1055 -0.1384  0.0107
 2988W        W 5138  24.251   7.640   3.620  0.2025  0.0760 -0.0320
 2989W        W 5139   4.842   3.825   0.597  0.1341  0.1145 -0.0117
 2990W        W 5140  18.653   2.444  25.582 -0.0099 -0.1877 -0.3936
 2991W        W 5141  10.971   3.939  22.393 -0.2972  0.1511 -0.1603
 2992W        W 5142   7.377   6.082  31.918  0.0651 -0.0617 -0.2881
 2993W        W 5143   0.528   3.771  27.903 -0.3346  0.3306  0.4586
 2994W        W 5144  21.503   6.347  12.055 -0.0002  0.2270 -0.0379
 2995W        W 5145  23.805   2.475  28.932 -0.0746 -0.3132 -0.5058
 2996W        W 5146   6.504   3.750  23.504  0.0680 -0.0334  0.0375
 2997W        W 5147  13.877   3.401  21.399  0.2002  0.0544 -0.0482
 2998W        W 5148  14.708   4.306  17.205 -0.0243 -0.1732 -0.0103
 2999W        W 5149  13.391   5.252  16.502 -0.0183  0.0769  0.1752
 3000W        W 5150  23.192   3.401  13.882 -0.2096 -0.1189  0.2850
 3001W        W 5151   5.265   7.405   2.207  0.2802 -0.2122  0.2593
 3002W        W 5152  17.071   6.811   2.854 -0.0898 -0.0997  0.5730
 3003W        W 5153   3.225   5.731   3.731 -0.1312 -0.2725  0.0623
 3004W        W 5154   4.171   5.589  22.828 -0.0484 -0.1279 -0.3015
 3005W        W 5155  23.850   6.530  20.750  0.0863  0.0526  0.0795
 3006W        W 5156  10.421   5.785  21.374  0.0865  0.2175  0.0275
 3007W        W 5157  23.273   5.009  22.392  0.2325  0.0041  0.0911
 3008W        W 5158  20.318   1.305   2.793  0.0695  0.0036  0.0543
 3009W        W 5159  23.159   6.778   3.704  0.4059 -0.1137 -0.1078
 3010W        W 5160  10.545   5.800   6.571 -0.2341 -0.0473  0.1623
 3011W        W 5161  24.351   7.211   0.517 -0.1059  0.4779 -0.2386
 3012W        W 5162   9.194   5.988  28.157  0.2853  0.0561 -0.1204
 3013W        W 5163  13.469   0.985  30.358 -0.0738 -0.1491  0.1034
 3014W        W 5164  18.708   5.083  26.665 -0.1590 -0.1291  0.0551
 3015W        W 5165  14.220   6.529   9.389  0.1200  0.0706 -0.0334
 3016W        W 5166  14.382   2.238  28.656  0.1145 -0.1011 -0.1124
 3017W        W 5167   2.740   5.767  13.025 -0.0585 -0.1588 -0.3629
 3018W        W 5168   8.712   5.896  29.223  0.2102 -0.2426  0.0439
 3019W        W 5169   0.544   6.041  29.845  0.1782  0.0716 -0.0949
 3020W        W 5170  17.900   2.837  16.116  0.0316 -0.4639  0.1423
 3021W        W 5171   9.461   1.712  21.383 -0.1572 -0.2209 -0.4419
 3022W        W 5172  22.577   0.975  24.208 -0.3871 -0.4636  0.1040
 3023W        W 5173  19.105   7.765   3.366  0.1036  0.2480  0.0247
 3024W        W 5174   1.133   5.530   7.668 -0.1618  0.2671  0.3294
 3025W        W 5175   9.732   5.065  31.321 -0.2038  0.0593  0.1186
 3026W        W 5176   0.942   0.886   1.392 -0.1017  0.0273 -0.0273
 3027W        W 5177  18.539   2.424   6.787 -0.0198  0.2514 -0.0610
 3028W        W 5178  11.452   4.553  19.123 -0.4348 -0.2006  0.0947
 3029W        W 5179  13.666   1.611  20.392  0.4199  0.0053 -0.0001
 3030W        W 5180  20.036   3.409  18.496 -0.1078 -0.0039  0.1568
 3031W        W 5181   6.269   6.784   1.207 -0.2629  0.0370 -0.0878
 3032W        W 5182  21.372   1.767  30.638 -0.0191  0.2007  0.2083
 3033W        W 5183  19.454   3.716  31.734 -0.3001  0.1418  0.0583
 3034W        W 5184  24.529   0.331   0.364 -0.0950 -0.1505  0.0371
 3035W        W 5185   6.406   0.853   9.308  0.1943  0.0363 -0.1841
 3036W        W 5186   7.943   6.218   9.833  0.1468  0.0215 -0.0448
 3037W        W 5187   7.103   5.854   6.554  0.3404  0.1064  0.1705
 3038W        W 5188  15.080   1.845   9.027 -0.1306 -0.0693 -0.0532
 3039W        W 5189  17.213   3.412   4.605  0.2544  0.1686  0.1917
 3040W        W 5190  13.100   1.732  31.100  0.0905  0.1199 -0.3896
 3041W        W 5191   2.773   1.245  27.644 -0.1108 -0.3596 -0.0315
 3042W        W 5192  14.337   6.107  29.907 -0.1282 -0.1061 -0.1185
 3043W        W 5193   9.416   0.184  25.813  0.0325 -0.0661  0.1081
 3044W        W 5194  16.516   7.517  28.530 -0.3230  0.0284  0.1149
 3045W        W 5195  17.784   1.256  28.353  0.0034  0.1862 -0.1418
 3046W        W 5196  15.196   6.942  28.686 -0.1759  0.1436 -0.2842
 3047W        W 5197  13.222   4.367  28.098  0.0066  0.0071  0.0620
 3048W        W 5198  11.515   7.509  32.916 -0.0185  0.2104  0.3580
 3049W        W 5199   7.148   6.772  26.502 -0.2127  0.0070  0.0563
 3050W        W 5200   1.467   6.933   1.970  0.0437 -0.2874  0.2842
 3051W        W 5201  23.537   2.379   1.134 -0.0842  0.0306 -0.4209
 3052W        W 5202  15.413   4.683  21.476 -0.1565  0.1265  0.1007
 3053W        W 5203   2.783   2.959   0.058 -0.2849  0.1067  0.0080
 3054W        W 5204  11.813   7.115  26.073  0.0174 -0.1292 -0.0997
 3055W        W 5205   3.550   7.776  30.163  0.0269 -0.0500 -0.2886
 3056W        W 5206  12.924   4.843   0.248  0.0861 -0.0259 -0.1013
 3057W        W 5207  15.370   4.207   6.649  0.0393  0.2140  0.0711
 3058W        W 5208  15.360   1.396   1.757 -0.1193 -0.0683  0.1958
 3059W        W 5209  11.620   3.864  23.000  0.2591  0.1117 -0.3683
 3060W        W 5210  12.674   3.223  24.419  0.3298  0.0287 -0.1033
 3061W        W 5211   1.491   5.360   9.007  0.1916  0.0346 -0.0944
 3062W        W 5212  13.156   0.198   4.822  0.0279 -0.0890 -0.0480
 3063W        W 5213  22.529   6.384   0.546 -0.2837  0.1448  0.2800
 3064W        W 5214   7.293   6.896  23.607  0.0621  0.1501  0.2490
 3065W        W 5215   7.492   7.206  27.800  0.1379 -0.1113  0.0569
 3066W        W 5216  17.354   7.459  31.236 -0.1797  0.1630  0.1274
 3067W        W 5217   3.208   3.741   7.034 -0.0022  0.0751 -0.1565
 3068W        W 5218  20.685   7.599   1.941  0.0959 -0.2119  0.4086
 3069W        W 5219  15.020   3.218   2.209 -0.2557 -0.1805  0.1854
 3070W        W 5220   2.414   4.126  33.006 -0.0779 -0.2444 -0.1584
 3071W        W 5221  13.455   4.163  21.858 -0.1302  0.1894 -0.1778
 3072W        W 5222  24.000   0.356  31.998  0.1012 -0.0292 -0.3443
 3073W        W 5223  15.752   3.564   9.307 -0.0205 -0.2321  0.1116
 3074W        W 5224   1.007   2.202  25.304 -0.1081 -0.4494  0.1281
 3075W        W 5225   3.265   1.408  17.312  0.2365 -0.0435 -0.1304
 3076W        W 5226   5.602   2.202  28.849  0.2055  0.1320 -0.0066
 3077W        W 5227  21.809   7.247   3.384  0.1903  0.1166 -0.2587
 3078W        W 5228   6.711   6.055   2.075 -0.0431 -0.0778  0.1189
 3079W        W 5229  17.555   5.558  17.704 -0.2684  0.0590  0.0019
 3080W        W 5230   0.501   5.906  28.630 -0.0656  0.0713 -0.2049
 3081W        W 5231   6.864   1.591  32.266  0.0706 -0.2522 -0.0816
 3082W        W 5232   9.770   5.075   1.059  0.1662  0.2843  0.2226
 3083W        W 5233   5.988   7.242  24.252 -0.1378 -0.0448  0.2740
 3084W        W 5234   8.577   2.847  25.264 -0.1848  0.1209  0.1379
 3085W        W 5235   1.995   7.147  27.139 -0.1580 -0.2078  0.1077
 3086W        W 5236   0.501   2.354   6.771  0.0274  0.2287 -0.3388
 3087W        W 5237  17.607   4.755  27.830 -0.1373  0.1812  0.2863
 3088W        W 5238  18.606   0.176   0.227 -0.2307 -0.2104  0.0452
 3089W        W 5239  12.543   5.581   2.620 -0.2873 -0.1040  0.0876
 3090W        W 5240   0.472   5.557  11.668  0.0919  0.0324  0.0101
 3091W        W 5241  11.621   5.865  30.394 -0.0976 -0.0954  0.0059
 3092W        W 5242   3.264   2.770   5.281  0.2310 -0.0419 -0.1970
 3093W        W 5243  18.202   5.951  20.246 -0.1596 -0.0969  0.0175
 3094W        W 5244  23.090   5.618  25.810  0.2653  0.1028  0.2887
 3095W        W 5245  23.922   0.667  20.833  0.1554 -0.2428 -0.0711
 3096W        W 5246   4.843   4.277   4.886  0.0257 -0.1832 -0.0018
 3097W        W 5247   3.833   0.636   9.747  0.0515 -0.2162 -0.0225
 3098W        W 5248   9.219   1.746   0.134 -0.0776 -0.3874 -0.0611
 3099W        W 5249  24.884   5.126  21.929  0.1805 -0.0199 -0.3756
 3100W        W 5250  10.768   6.823  19.758  0.1454  0.2675  0.1455
 3101W        W 5251  10.180   3.491   8.225 -0.2219  0.1294  0.5172
 3102W        W 5252   9.050   5.572   4.015 -0.1827  0.3784  0.2898
 3103W        W 5253  14.397   2.868  30.069 -0.0902  0.1919  0.1807
 3104W        W 5254   6.215   1.034   0.317  0.2247  0.1584  0.3347
 3105W        W 5255   7.565   6.516  31.936 -0.1892 -0.1709  0.2709
 3106W        W 5256  19.482   2.166  30.078 -0.0599 -0.1554  0.0853
 3107W        W 5257   0.583   0.776  30.273 -0.0330  0.0522 -0.0769
 3108W        W 5258   5.483   6.942  27.280 -0.0217 -0.0249  0.0116
 3109W        W 5259  22.272   2.269  25.373  0.3101 -0.1451  0.0315
 3110W        W 5260  18.418   2.445  32.302  0.0644 -0.0786  0.1723
 3111W        W 5261  17.406   0.187  29.253 -0.2424 -0.1622  0.1585
 3112W        W 5262   6.549   7.739  29.759 -0.2958 -0.0234 -0.0094
 3113W        W 5263  12.729   2.842  25.353  0.0489 -0.1780 -0.1341
 3114W        W 5264   7.321   3.198  13.725  0.0651 -0.2453 -0.2634
 3115W        W 5265  19.540   7.486  21.033 -0.1288  0.1751 -0.0382
 3116W        W 5266  24.207   2.299   0.284  0.0412  0.3060 -0.1340
 3117W        W 5267  14.898   4.818  25.311  0.1724  0.2775 -0.2953
 3118W        W 5268   9.103   0.075  24.469  0.0860 -0.2089  0.0920
 3119W        W 5269  12.946   6.032  22.921  0.0822  0.0702 -0.2781
 3120W        W 5270  16.032   0.590  25.965 -0.0936 -0.1190 -0.0510
 3121W        W 5271  16.844   4.494  29.389 -0.1897  0.0140  0.0085
 3122W        W 5272  12.770   7.359  27.378 -0.1500  0.1631 -0.0008
 3123W        W 5273  15.817   3.649   3.890  0.0295  0.1759  0.3509
 3124W        W 5274  23.478   4.295  31.435  0.0485  0.0873 -0.1232
 3125W        W 5275  19.089   2.160   0.385  0.5436 -0.0245  0.0134
 3126W        W 5276  12.607   1.485  30.040  0.3866 -0.2570 -0.0965
 3127W        W 5277   0.936   5.034  13.888  0.3534  0.1301  0.0346
 3128W        W 5278  20.926   2.175   4.713  0.3299 -0.1575  0.0423
 3129W        W 5279  22.999   3.424  10.876 -0.3861 -0.1702 -0.1088
 3130W        W 5280   5.418   0.200  27.949 -0.3288  0.2284 -0.1563
 3131W        W 5281   2.386   1.146  10.538  0.0178 -0.0129 -0.2224
 3132W        W 5282   6.897   0.711  24.945 -0.4536  0.0053 -0.0097
 3133W        W 5283  13.153   7.103  19.331 -0.3026 -0.1647 -0.0519
 3134W        W 5284  13.228   5.799  17.148 -0.0130  0.1288  0.1038
 3135W        W 5285  13.632   4.431  16.852  0.1397 -0.0801 -0.2266
 3136W        W 5286  16.894   5.638  19.796 -0.0254  0.2949  0.1876
 3137W        W 5287   5.499   2.129  30.486 -0.0193  0.0056 -0.0266
 3138W        W 5288   0.965   0.210   0.236 -0.0916  0.2375 -0.1755
 3139W        W 5289  16.751   4.828  22.202  0.0636 -0.0693  0.0766
 3140W        W 5290  17.087   0.144   9.358  0.0717  0.1906  0.0739
 3141W        W 5291  24.206   4.919   8.525 -0.1104 -0.1839 -0.0147
 3142W        W 5292  23.172   0.430  28.328 -0.2458  0.2816  0.1149
 3143W        W 5293  17.742   1.208  19.263  0.1222  0.1991 -0.3899
 3144W        W 5294  21.821   1.158  30.644 -0.2142  0.1052  0.2405
 3145W        W 5295  10.613   3.493  10.561  0.2693  0.0375 -0.3594
 3146W        W 5296  12.156   0.298  20.823 -0.0705  0.1844 -0.0372
 3147W        W 5297  10.871   4.466   7.613 -0.0732 -0.0366  0.3180
 3148W        W 5298  18.591   7.057  25.891 -0.2984 -0.1157 -0.3491
 3149W        W 5299   3.029   2.940  13.505 -0.1019 -0.0580  0.0691
 3150W        W 5300  13.294   4.865  23.122 -0.2648  0.0328 -0.3415
 3151W        W 5301  24.469   6.818  13.227  0.2361 -0.1639  0.0250
 3152W        W 5302  16.498   5.957  14.593 -0.1027  0.2025  0.0075
 3153W        W 5303  14.037   5.254  20.560 -0.1383 -0.1127 -0.3240
 3154W        W 5304  13.841   0.004   9.579 -0.0228  0.0275  0.2848
 3155W        W 5305  19.599   1.720  32.340  0.1823  0.0761  0.1605
 3156W        W 5306  22.309   0.122  25.883 -0.1198 -0.0240 -0.1110
 3157W        W 5307  24.222   3.639  29.313  0.1252 -0.0861 -0.1019
 3158W        W 5308  12.251   3.514  22.477 -0.0581  0.0320  0.3280
 3159W        W 5309  14.845   5.052  19.028  0.3170  0.2042  0.0151
 3160W        W 5310  13.080   2.777   9.194 -0.0146  0.0318  0.2244
 3161W        W 5311  10.244   4.919  24.336 -0.0973  0.2877 -0.3434
 3162W        W 5312  17.765   3.226  19.398 -0.0151  0.2376  0.1022
 3163W        W 5313  17.853   0.313   1.500 -0.2161  0.0309 -0.0931
 3164W        W 5314  14.209   6.708  16.574 -0.2012 -0.3246  0.1722
 3165W        W 5315   6.649   6.490   3.374  0.2909  0.1037  0.0031
 3166W        W 5316  13.866   0.945   4.870 -0.1019 -0.0258 -0.2700
 3167W        W 5317  15.142   1.354   6.987  0.0451  0.1655  0.0477
 3168W        W 5318  11.477   4.252  28.655 -0.1365  0.2415  0.1595
 3169W        W 5319  21.618   7.569  32.468  0.1549 -0.2925 -0.0910
 3170W        W 5320   2.626   6.638  30.108  0.0850 -0.1173 -0.0473
 3171W        W 5321   1.155   1.592   0.735  0.2344  0.0251 -0.0111
 3172W        W 5322  21.624   3.049  31.437 -0.0971  0.0128  0.1402
 3173W        W 5323  13.980   2.269  32.675  0.3069  0.0032 -0.0560
 3174W        W 5324   7.253   2.234   2.147 -0.1528  0.0542 -0.1433
 3175W        W 5325   6.708   2.701  24.248 -0.0184 -0.0569 -0.0806
 3176W        W 5326  16.024   0.870  22.380  0.0039  0.1736 -0.0824
 3177W        W 5327   4.980   1.654  24.645  0.0674  0.1064  0.0751
 3178W        W 5328   8.059   7.523   5.944 -0.1754  0.1284  0.2542
 3179W        W 5329   1.650   5.839  12.251  0.2195 -0.1846  0.0008
 3180W        W 5330  15.053   1.552   4.479  0.1055 -0.0573  0.1349
 3181W        W 5331  21.357   2.448  19.403 -0.0694  0.4294 -0.1593
 3182W        W 5332  10.401   5.312   8.544  0.0830 -0.0678 -0.1673
 3183W        W 5333   6.453   4.092  13.398 -0.0688 -0.1190  0.0313
 3184W        W 5334  22.391   3.398   8.580  0.1358 -0.1206 -0.1035
 3185W        W 5335  22.317   3.391   9.445 -0.4164 -0.1937 -0.2578
 3186W        W 5336  21.593   6.311  23.767  0.3969 -0.2785  0.1432
 3187W        W 5337  10.976   6.240  22.744  0.0522 -0.2379  0.1397
 3188W        W 5338  21.366   7.771  27.315 -0.2245 -0.1106 -0.0070
 3189W        W 5339  19.876   5.135  30.288 -0.0260 -0.0286  0.0161
 3190W        W 5340  19.084   4.628  20.498 -0.0703 -0.2385  0.3798
 3191W        W 5341   7.259   5.756   9.438 -0.0553 -0.0533 -0.2198
 3192W        W 5342  16.185   7.144  29.216  0.0662  0.0199 -0.1613
 3193W        W 5343  17.831   4.633  15.936  0.1865 -0.3575 -0.1186
 3194W        W 5344  22.111   6.341  26.897  0.2382 -0.0754  0.0637
 3195W        W 5345  17.970   5.621   2.767 -0.0246 -0.0766  0.0266
 3196W        W 5346  16.834   5.380   1.775  0.1945 -0.2022 -0.0926
 3197W        W 5347  17.347   3.284   4.052 -0.1264  0.2112 -0.0174
 3198W        W 5348   9.380   5.311   0.686  0.0630  0.1827  0.1550
 3199W        W 5349   2.418   2.721  16.476  0.0708 -0.3156  0.0067
 3200W        W 5350  12.287   0.870   7.254 -0.2765 -0.2426  0.0931
 3201W        W 5351  24.793   7.337  25.096 -0.0576 -0.1120 -0.0516
 3202W        W 5352   3.373   2.592  29.223  0.1290  0.1953 -0.1352
 3203W        W 5353  22.886   7.781  10.803  0.0813 -0.1230 -0.0877
 3204W        W 5354  21.796   4.873   0.157  0.2703 -0.0648  0.0707
 3205W        W 5355   3.997   5.897  12.548 -0.0368 -0.0720 -0.3898
 3206W        W 5356  14.545   5.196  21.535  0.0173  0.2347 -0.1314
 3207W        W 5357  12.097   2.663   2.868  0.3379 -0.1326  0.2368
 3208W        W 5358  12.346   6.902  31.124  0.1318  0.0910  0.0520
 3209W        W 5359  14.811   6.704  30.068  0.0395 -0.2268  0.0598
 3210W        W 5360   1.392   3.704   6.886  0.0878 -0.0567 -0.0864
 3211W        W 5361  13.818   6.586  18.387 -0.0421 -0.1989  0.0739
 3212W        W 5362  21.154   2.459  25.423 -0.3144  0.0323  0.1882
 3213W        W 5363   6.381   2.842  13.744  0.0403 -0.0495 -0.2568
 3214W        W 5364   4.414   1.301  11.365  0.2726 -0.0924  0.0596
 3215W        W 5365  19.417   4.441   9.242 -0.1408  0.0146 -0.1766
 3216W        W 5366   4.547   1.131  30.028  0.0684 -0.3829 -0.2006
 3217W        W 5367  11.538   1.261   1.089  0.1216  0.2312  0.2699
 3218W        W 5368  24.500   6.767   4.909  0.3464  0.0357 -0.0256
 3219W        W 5369   2.721   2.982  10.528 -0.0486  0.2939 -0.1758
 3220W        W 5370  20.094   7.785  32.119 -0.0411  0.0981  0.0153
 3221W        W 5371  12.872   3.933  26.141  0.0772  0.0017 -0.2278
 3222W        W 5372   2.050   7.712   9.713  0.5088 -0.1150 -0.1795
 3223W        W 5373  14.468   0.433  27.189  0.1111  0.0308 -0.2128
 3224W        W 5374  23.227   6.063   9.080  0.3020 -0.0545  0.2213
 3225W        W 5375  14.873   3.459  19.475 -0.0703  0.0608 -0.0150
 3226W        W 5376  17.600   4.380  26.859  0.0125  0.4212 -0.1478
 3227W        W 5377   3.754   5.942  26.580 -0.1545 -0.3390 -0.0820
 3228W        W 5378  16.973   6.783  15.608  0.1221  0.1827 -0.0037
 3229W        W 5379  14.025   3.269  20.449 -0.2529 -0.2197  0.0362
 3230W        W 5380   2.231   2.497  23.263 -0.0035 -0.2987  0.3413
 3231W        W 5381   9.958   5.041   2.603  0.0226 -0.0806 -0.0130
 3232W        W 5382  18.602   3.467   4.944 -0.1119 -0.2440  0.0284
 3233W        W 5383   9.304   2.914   0.737  0.0466  0.0689  0.0054
 3234W        W 5384   6.358   7.294   0.547  0.0119  0.0002  0.0251
 3235W        W 5385  10.342   5.596  29.704 -0.1922  0.0124  0.0311
 3236W        W 5386  16.671   2.708  30.891 -0.1520  0.1579  0.2928
 3237W        W 5387  16.476   0.843  31.018  0.3371 -0.2044 -0.0250
 3238W        W 5388   2.580   1.991   6.106 -0.1250 -0.0875 -0.2229
 3239W        W 5389   4.234   2.672  25.886 -0.1805 -0.1588  0.2254
 3240W        W 5390   5.140   4.537   2.134  0.0587 -0.1922  0.0349
 3241W        W 5391   3.207   4.410  30.943 -0.2439  0.2377 -0.2468
 3242W        W 5392   7.607   3.832  13.603 -0.0514 -0.0593 -0.2349
 3243W        W 5393  15.598   2.528  24.808  0.1573 -0.0567 -0.0254
 3244W        W 5394  11.829   1.358  25.286 -0.0917  0.0349 -0.1410
 3245W        W 5395  24.692   5.581   6.391 -0.0854  0.0941 -0.2235
 3246W        W 5396  11.860   1.467  23.382 -0.1890  0.0678  0.0881
 3247W        W 5397   7.063   6.117  27.132  0.1230  0.1271 -0.1012
 3248W        W 5398   9.930   1.945   5.584 -0.0159 -0.1693 -0.0468
 3249W        W 5399  23.136   3.953   4.624  0.0458  0.1494  0.0000
 3250W        W 5400  12.973   5.653  18.361 -0.0973  0.3499 -0.0151
 3251W        W 5401   9.345   3.432   7.767  0.0178 -0.2198 -0.0342
 3252W        W 5402   7.738   3.618  14.829 -0.3005  0.0935 -0.0671
 3253W        W 5403  10.770   3.397   4.563  0.2778 -0.2518 -0.1691
 3254W        W 5404  12.813   6.592  18.037  0.0333  0.1730  0.1029
 3255W        W 5405   8.428   6.277  24.066  0.0850  0.1070  0.1094
 3256W        W 5406  16.420   2.283  25.278  0.1925 -0.1240  0.0208
 3257W        W 5407  23.412   4.563  26.233  0.1925  0.0585 -0.1414
 3258W        W 5408  11.425   1.813   2.764 -0.1527 -0.3509 -0.1532
 3259W        W 5409  22.325   4.044  10.290  0.2184 -0.1042 -0.0688
 3260W        W 5410  20.110   7.353   6.203 -0.0579 -0.0505  0.1367
 3261W        W 5411  11.209   1.574  24.417 -0.3469  0.0801 -0.1715
 3262W        W 5412   0.541   6.645  10.056 -0.0496 -0.0521  0.0568
 3263W        W 5413  11.357   5.688   0.787 -0.1274 -0.1224  0.0726
 3264W        W 5414  15.012   6.675  29.192 -0.0294 -0.2128  0.0611
 3265W        W 5415  16.120   5.592  26.379 -0.2445  0.3498  0.1664
 3266W        W 5416  15.772   0.175  21.018 -0.2119 -0.2943  0.1554
 3267W        W 5417  22.964   0.997  30.712  0.2597  0.0009 -0.1042
 3268W        W 5418   9.839   6.027  24.641  0.0371 -0.2196 -0.0445
 3269W        W 5419  22.759   4.908  22.365 -0.0417  0.1030  0.1608
 3270W        W 5420  21.273   6.923  18.966  0.0922  0.0062 -0.0115
 3271W        W 5421   2.948   5.305   2.450  0.1838  0.2245  0.0664
 3272W        W 5422  12.144   5.299  30.164  0.0553  0.0571 -0.0885
 3273W        W 5423   2.096   3.906   0.449  0.2485  0.0963  0.3230
 3274W        W 5424  11.749   5.334   5.343 -0.1124  0.0155  0.1623
 3275W        W 5425  17.279   3.162  22.582  0.2337 -0.2060 -0.0707
 3276W        W 5426   3.896   3.819   8.041 -0.0732  0.0025 -0.2226
 3277W        W 5427   9.599   7.590   8.313 -0.1349  0.1880 -0.1272
 3278W        W 5428  21.642   1.605  11.402  0.3067 -0.2001 -0.3650
 3279W        W 5429   6.299   6.961  32.107  0.1914 -0.0649 -0.0462
 3280W        W 5430   7.556   2.140  15.183  0.1296  0.0855 -0.0937
 3281W        W 5431  15.031   2.593  16.148  0.1321 -0.0254 -0.0862
 3282W        W 5432  11.122   5.004  19.774  0.0246 -0.3421  0.2086
 3283W        W 5433  10.108   7.736   8.150 -0.0091  0.0152  0.2720
 3284W        W 5434  24.811   2.393   6.189 -0.1101 -0.1474  0.1468
 3285W        W 5435  10.429   3.142   1.556  0.3081  0.0268 -0.4847
 3286W        W 5436   6.120   5.657  18.155 -0.2733 -0.0573  0.0246
 3287W        W 5437   4.332   5.410  11.699 -0.0577 -0.1230 -0.1077
 3288W        W 5438   0.141   6.872   6.463  0.0760  0.0795  0.2506
 3289W        W 5439  24.900   4.104  12.394 -0.0135 -0.1032  0.0971
 3290W        W 5440  21.895   2.334  29.944  0.1061 -0.0535 -0.0680
 3291W        W 5441  12.283   6.439  25.834  0.0265  0.1533 -0.3297
 3292W        W 5442   6.389   2.043  23.685  0.0931 -0.0780 -0.4382
 3293W        W 5443   2.061   2.539  12.531 -0.1241 -0.0901  0.3182
 3294W        W 5444   3.848   4.353  28.032 -0.0685 -0.0634 -0.3983
 3295W        W 5445   2.525   2.775   9.027  0.0525 -0.3476 -0.1042
 3296W        W 5446  10.825   0.940  11.272  0.3023  0.0011  0.1453
 3297W        W 5447  24.449   6.461  25.197 -0.0969  0.3950 -0.0413
 3298W        W 5448  11.553   7.008  25.635  0.0816  0.1269  0.1136
 3299W        W 5449  22.291   2.715  32.114  0.3031 -0.0154  0.3471
 3300W        W 5450   7.499   5.837  15.360  0.3073 -0.3774 -0.2443
 3301W        W 5451  17.076   2.581  14.939 -0.1011 -0.0498  0.1705
 3302W        W 5452  19.887   2.801  23.377  0.0082 -0.1153 -0.1510
 3303W        W 5453   0.777   2.222   7.223 -0.2480 -0.0509  0.0673
 3304W        W 5454  14.674   1.518  16.378 -0.3173  0.0692 -0.3336
 3305W        W 5455  16.285   4.210   1.572 -0.0811 -0.0347 -0.2118
 3306W        W 5456   9.773   0.161  20.859 -0.2669 -0.1929 -0.2244
 3307W        W 5457   5.724   2.578  15.062 -0.1031 -0.0278 -0.1500
 3308W        W 5458   4.016   4.786   4.017  0.0616 -0.0581  0.1896
 3309W        W 5459  19.759   2.611  27.159  0.1294  0.0937  0.1270
 3310W        W 5460   7.894   4.041   5.066 -0.1423  0.3671 -0.3186
 3311W        W 5461  24.491   3.900  23.050  0.2044  0.0710  0.3549
 3312W        W 5462  10.600   5.138   5.886 -0.3121  0.0990 -0.0942
 3313W        W 5463  22.485   2.718  20.743  0.0701 -0.0076  0.0677
 3314W        W 5464   7.959   0.234   4.113  0.0404 -0.0334 -0.1487
 3315W        W 5465  18.690   1.666  21.247  0.3743 -0.0921 -0.1738
 3316W        W 5466  10.813   1.902  24.236 -0.0490  0.0887  0.0134
 3317W        W 5467   2.957   3.146  18.144  0.1580 -0.3051  0.2612
 3318W        W 5468  24.827   5.482  14.907  0.1624 -0.0595  0.0797
 3319W        W 5469  21.116   7.677   8.089  0.1772 -0.0339 -0.3039
 3320W        W 5470   5.021   4.489  27.519 -0.3263  0.1691  0.2258
 3321W        W 5471   4.545   0.376   6.234 -0.1681  0.5387 -0.3357
 3322W        W 5472  13.934   2.168   4.998 -0.0386 -0.0214 -0.0906
 3323W        W 5473   9.384   1.196  21.789  0.2530 -0.3446 -0.0231
 3324W        W 5474   3.663   1.214   0.408  0.1846  0.0289 -0.2913
 3325W        W 5475  13.669   6.276  19.274  0.0149  0.1781  0.0987
 3326W        W 5476   8.682   7.491  31.425  0.1620 -0.3992  0.2891
 3327W        W 5477   6.765   3.060   2.523 -0.0646  0.0264 -0.2529
 3328W        W 5478  14.087   7.525   4.165  0.4186 -0.1859 -0.0633
 3329W        W 5479  17.536   2.510  30.507 -0.0290 -0.1951 -0.0635
 3330W        W 5480   7.065   3.060   9.459 -0.0355 -0.0389  0.0116
 3331W        W 5481  18.442   4.681  19.805  0.2319 -0.1970  0.1278
 3332W        W 5482  13.514   7.723  17.165  0.4031  0.0678  0.2591
 3333W        W 5483   0.039   6.842  27.059  0.2827  0.1125 -0.2201
 3334W        W 5484  15.347   4.976  18.946 -0.3878 -0.1882  0.1024
 3335W        W 5485   8.607   5.643   1.524 -0.1473  0.0753 -0.0653
 3336W        W 5486  21.306   5.251  22.507  0.4188  0.3120 -0.4191
 3337W        W 5487  13.196   7.031   0.623 -0.1042 -0.0652 -0.1065
 3338W        W 5488  20.227   5.557  32.267  0.0889 -0.1581  0.0183
 3339W        W 5489  14.454   6.524  27.922 -0.1648 -0.0508 -0.2228
 3340W        W 5490  23.654   2.676  30.932  0.0310  0.6656  0.1505
 3341W        W 5491   6.333   6.447  26.543 -0.1161  0.4693 -0.0548
 3342W        W 5492   4.605   4.077   1.493 -0.0805 -0.1371  0.0823
 3343W        W 5493  21.224   3.182  30.448  0.0903  0.0640  0.1949
 3344W        W 5494   4.315   4.736  30.838  0.1168 -0.0705 -0.3004
 3345W        W 5495   7.790   4.669  27.678 -0.0525 -0.0339 -0.0543
 3346W        W 5496   8.147   7.093  14.328  0.0600 -0.2003  0.0135
 3347W        W 5497  22.966   1.691   9.032 -0.1333 -0.0924  0.1535
 3348W        W 5498   6.633   2.613  29.695  0.0115 -0.2399  0.1391
 3349W        W 5499  12.413   0.076  26.960 -0.0829  0.0642  0.0485
 3350W        W 5500  15.868   4.167  31.464 -0.0728 -0.0756  0.1612
 3351W        W 5501   1.821   5.293  11.461 -0.0911 -0.0463 -0.1430
 3352W        W 5502  10.814   0.610   0.205 -0.1518 -0.3552  0.1173
 3353W        W 5503   5.557   0.320   7.374 -0.1845  0.3074  0.1539
 3354W        W 5504  20.920   6.525   3.709 -0.3651  0.2156  0.0618
 3355W        W 5505  13.981   6.849  32.783  0.4686  0.0515 -0.1613
 3356W        W 5506  10.141   2.581   8.374 -0.1707  0.2628  0.1108
 3357W        W 5507   1.676   4.991  29.842 -0.0780 -0.0834 -0.2246
 3358W        W 5508  21.339   0.409  28.964 -0.2070 -0.2436 -0.1588
 3359W        W 5509   2.764   5.936  22.806 -0.0925  0.0384 -0.0596
 3360W        W 5510  10.761   0.347  22.086  0.4636  0.1834 -0.1207
 3361W        W 5511   5.050   2.824  22.808 -0.0972  0.2011 -0.4190
 3362W        W 5512  17.767   4.785  18.861  0.0408  0.2327  0.0116
 3363W        W 5513  10.862   7.515  20.371 -0.0857  0.0964 -0.1261
 3364W        W 5514   7.328   1.971   0.309  0.0545  0.0899  0.1269
 3365W        W 5515   8.281   6.607  29.951  0.3168  0.0342  0.0193
 3366W        W 5516  11.357   5.593   4.398 -0.1011 -0.0911  0.0866
 3367W        W 5517  16.804   3.117  32.735  0.2913  0.1882 -0.3309
 3368W        W 5518  15.104   6.348  25.193  0.0912 -0.1495 -0.1651
 3369W        W 5519   4.244   0.754  32.434  0.0844  0.1773 -0.0193
 3370W        W 5520  17.778   5.782   6.658 -0.2195 -0.0065 -0.1553
 3371W        W 5521  14.510   0.309  18.431  0.0770 -0.1948  0.2174
 3372W        W 5522   6.939   0.681  11.146 -0.0904 -0.4399  0.3586
 3373W        W 5523   1.628   2.302   0.515 -0.0234 -0.0827 -0.1371
 3374W        W 5524  19.906   5.935  16.255 -0.2412 -0.0538  0.2394
 3375W        W 5525  22.740   2.416   6.153 -0.0221  0.3099  0.4237
 3376W        W 5526  24.214   0.432   6.467  0.1153 -0.2334  0.1048
 3377W        W 5527   2.108   2.437  28.651  0.1689 -0.2200  0.1463
 3378W        W 5528   2.507   7.641  31.279 -0.5189  0.0881 -0.1854
 3379W        W 5529  18.111   3.168   4.886  0.1454 -0.3838  0.1086
 3380W        W 5530  14.717   5.152  29.960  0.1092 -0.1101  0.2146
 3381W        W 5531   0.167   4.933  27.496 -0.1124 -0.0650 -0.0711
 3382W        W 5532   1.583   5.535  25.376  0.0940 -0.2642 -0.0362
 3383W        W 5533  17.229   5.184  17.764  0.2554  0.1792  0.2612
 3384W        W 5534  14.306   5.525  24.126  0.0234  0.0468  0.0713
 3385W        W 5535  19.593   3.846  27.307  0.0507  0.1412 -0.1542
 3386W        W 5536  22.236   4.685  32.030  0.0410  0.3935 -0.2965
 3387W        W 5537  14.263   5.461  30.721  0.0313  0.0182  0.1725
 3388W        W 5538   0.648   0.523  29.229  0.1874 -0.1665 -0.0134
 3389W        W 5539   7.658   1.820   3.629  0.1457 -0.3362  0.1471
 3390W        W 5540  10.564   4.974   9.028 -0.0800  0.0581 -0.4426
 3391W        W 5541   7.653   4.464   0.827  0.2519 -0.2805  0.3418
 3392W        W 5542  10.740   0.556  10.413 -0.0210 -0.2764 -0.0910
 3393W        W 5543  19.484   1.053  18.286 -0.1447 -0.1427  0.1928
 3394W        W 5544  15.805   1.123  19.499  0.1940 -0.3827  0.2370
 3395W        W 5545  14.370   7.150  28.903  0.2152  0.0788  0.1921
 3396W        W 5546  18.366   0.116   6.738  0.0582 -0.3101 -0.1315
 3397W        W 5547  13.407   0.061   0.806  0.1884  0.3422 -0.1630
 3398W        W 5548  10.838   7.167   3.387  0.0073  0.4397  0.3866
 3399W        W 5549  11.079   5.658  25.604 -0.0187  0.0413 -0.0637
 3400W        W 5550   7.325   1.660  15.373 -0.0402 -0.2504 -0.0655
 3401W        W 5551   8.960   3.997   1.648  0.2558  0.1329 -0.0519
 3402W        W 5552  22.495   5.147   9.793  0.0716 -0.1822  0.1916
 3403W        W 5553  22.274   2.124   4.817  0.2280  0.1520  0.2991
 3404W        W 5554   9.725   3.168  12.242 -0.0030 -0.0151  0.1740
 3405W        W 5555  23.253   1.719   1.057 -0.1799  0.4096  0.1929
 3406W        W 5556   9.411   2.382   0.467 -0.2323 -0.0078  0.0712
 3407W        W 5557  19.700   0.977  27.248 -0.0339  0.1267  0.0893
 3408W        W 5558   8.040   2.590  29.202 -0.0326  0.2584 -0.2752
 3409W        W 5559  21.938   4.418   0.495  0.2633 -0.2508 -0.0266
 3410W        W 5560  24.539   3.729  21.687  0.3061 -0.4347  0.1172
 3411W        W 5561   6.338   1.304  27.983 -0.3887 -0.1490  0.1379
 3412W        W 5562   7.304   3.503   1.364 -0.0692 -0.0475  0.2637
 3413W        W 5563  21.130   7.719  19.186  0.0809  0.0356  0.0773
 3414W        W 5564   5.640   4.858   3.388 -0.0650 -0.0484  0.1582
 3415W        W 5565  24.842   4.980  15.071  0.2264  0.1308  0.0043
 3416W        W 5566  13.039   1.490  20.440  0.1568  0.0758 -0.0199
 3417W        W 5567  14.131   5.968   5.039 -0.3709 -0.2601  0.3613
 3418W        W 5568   4.442   2.311  16.870  0.1893 -0.0151  0.3684
 3419W        W 5569   8.365   6.528  14.318  0.0661  0.1274  0.0128
 3420W        W 5570  23.860   4.812  15.102 -0.2867  0.2383 -0.1905
 3421W        W 5571  12.454   2.309   3.693 -0.0916 -0.1883  0.0255
 3422W        W 5572   4.016   0.622   6.232  0.0262 -0.1081 -0.0563
 3423W        W 5573   0.981   3.295  11.791  0.1677  0.4129  0.2865
 3424W        W 5574   7.801   3.205   4.916  0.0302 -0.3005  0.1825
 3425W        W 5575   3.274   4.458  27.933  0.0973  0.0437 -0.1041
 3426W        W 5576  10.980   0.805  31.593 -0.1430  0.0589 -0.0681
 3427W        W 5577   7.019   5.144  25.488  0.0417 -0.3128 -0.1939
 3428W        W 5578  10.187   6.919  22.363 -0.2080  0.2727 -0.1419
 3429W        W 5579   7.433   0.187   4.142 -0.1219 -0.1193  0.0968
 3430W        W 5580  10.059   4.806   1.863  0.1660  0.0331  0.2834
 3431W        W 5581  15.696   0.695  21.004 -0.0966  0.0613  0.0069
 3432W        W 5582  15.183   3.563  17.031 -0.2015 -0.1582 -0.0107
 3433W        W 5583  15.835   5.809  23.836  0.2656 -0.1260  0.0556
 3434W        W 5584  16.408   0.687  27.714 -0.0875  0.0717  0.1742
 3435W        W 5585  18.699   1.963   9.381 -0.0308  0.0922  0.2538
 3436W        W 5586   9.532   0.589   2.165  0.0957 -0.2159 -0.1260
 3437W        W 5587  22.864   2.569  24.181 -0.0249 -0.0479 -0.0441
 3438W        W 5588  13.790   1.847   8.253  0.0647 -0.2124 -0.0934
 3439W        W 5589  17.020   2.559  23.151  0.1249 -0.4181  0.3137
 3440W        W 5590   4.546   3.616  12.449  0.1661 -0.3569 -0.1645
 3441W        W 5591  14.312   0.940   1.374  0.2270  0.0164  0.3460
 3442W        W 5592  11.037   1.645  21.561 -0.1425 -0.1703 -0.0710
 3443W        W 5593  20.389   0.063  22.829  0.2201  0.3114 -0.0185
 3444W        W 5594  18.882   4.089   2.885  0.1312 -0.2393 -0.1450
 3445W        W 5595  19.069   2.175  32.922 -0.0147  0.0142 -0.0633
 3446W        W 5596   5.262   3.148  12.221 -0.1406  0.0479 -0.0628
 3447W        W 5597   4.001   4.482  25.398 -0.1303 -0.5362  0.3706
 3448W        W 5598   6.291   5.510  10.371  0.0784 -0.2522  0.1003
 3449W        W 5599  23.303   4.208   0.394  0.2025 -0.2802 -0.1864
 3450W        W 5600   1.706   0.791  24.196  0.0240 -0.1026 -0.1918
 3451W        W 5601   0.918   2.198  32.089  0.3277 -0.0307  0.1041
 3452W        W 5602  19.599   6.660   6.982 -0.2073 -0.1651 -0.0358
 3453W        W 5603  11.578   5.248   5.929  0.3683  0.0151 -0.0704
 3454W        W 5604   5.113   7.165   4.852  0.0925 -0.1178  0.0911
 3455W        W 5605  13.839   1.700  18.556  0.0703 -0.1055 -0.0752
 3456W        W 5606  13.749   1.166  31.763  0.1607 -0.0741 -0.0158
 3457W        W 5607   8.461   0.465  28.523 -0.0001  0.0598 -0.0687
 3458W        W 5608  21.536   2.659   9.810  0.1296 -0.1134 -0.0837
 3459W        W 5609   9.682   7.588  28.093  0.0626  0.2750 -0.3498
 3460W        W 5610   0.009   0.049  30.492 -0.0272 -0.0275  0.2690
 3461W        W 5611  24.699   3.015  28.823  0.1413  0.1722  0.0630
 3462W        W 5612  12.885   3.850  22.230 -0.2471  0.0155 -0.1357
 3463W        W 5613   8.090   4.099  15.612  0.0620 -0.0363 -0.0881
 3464W        W 5614  13.514   6.752  17.970  0.1853 -0.0194 -0.0998
 3465W        W 5615   4.652   4.913  13.929 -0.1102  0.3602  0.1858
 3466W        W 5616   8.035   3.894   6.929  0.3258 -0.0941  0.2969
 3467W        W 5617  17.652   0.492   8.772 -0.0140  0.1055  0.3167
 3468W        W 5618  13.420   1.062   5.046 -0.0008  0.0595 -0.0424
 3469W        W 5619  15.968   2.058  22.308 -0.1291  0.0392 -0.0551
 3470W        W 5620   4.381   3.568  31.667 -0.1470 -0.0439  0.0081
 3471W        W 5621  10.271   6.027   1.674  0.2573 -0.0211  0.1032
 3472W        W 5622  21.767   6.768   2.031 -0.1587  0.0340 -0.0119
 3473W        W 5623   6.330   5.787  25.324  0.0620  0.0559  0.2878
 3474W        W 5624  23.477   3.479   0.751 -0.1987  0.2507  0.1601
 3475W        W 5625  23.083   4.659   5.018 -0.1059  0.0735 -0.1380
 3476W        W 5626  16.598   4.769   8.549 -0.0434  0.0674 -0.0222
 3477W        W 5627   5.355   6.873   7.185  0.5129  0.0521  0.1260
 3478W        W 5628  19.915   1.347  19.970 -0.0222  0.1456 -0.2062
 3479W        W 5629  14.043   3.672   8.257 -0.0013  0.0890  0.0934
 3480W        W 5630   2.857   5.816  31.416 -0.0619  0.2941 -0.2219
 3481W        W 5631  14.222   1.783  29.386  0.0456  0.0587  0.0300
 3482W        W 5632  15.577   0.227  25.306 -0.0820 -0.1274 -0.2172
 3483W        W 5633  18.506   2.725  24.184  0.0472 -0.3629 -0.2634
 3484W        W 5634  10.221   1.844   0.990  0.0334 -0.2517 -0.1169
 3485W        W 5635  13.291   0.060   5.619 -0.0508 -0.1071 -0.0399
 3486W        W 5636  16.347   2.815  19.058  0.2428  0.0493  0.2788
 3487W        W 5637  16.354   0.945  23.949  0.2206  0.0197 -0.0292
 3488W        W 5638   6.219   6.920  12.624  0.0848 -0.1536  0.1899
 3489W        W 5639   6.891   7.474   4.736  0.3227 -0.1186  0.2156
 3490W        W 5640   2.975   2.343   3.834 -0.2463  0.3203 -0.0056
 3491W        W 5641  23.010   3.348  28.020 -0.1877 -0.0805 -0.0135
 3492W        W 5642  23.853   3.920   9.681  0.1998  0.1550  0.0521
 3493W        W 5643   8.101   7.386   0.887 -0.0910  0.1651 -0.2393
 3494W        W 5644  14.692   7.051   8.672  0.0435 -0.3067  0.1154
 3495W        W 5645  12.476   3.060  22.576 -0.0426 -0.1384  0.0028
 3496W        W 5646   8.254   7.672   4.429  0.0101 -0.1677  0.2086
 3497W        W 5647  23.170   7.418  28.923  0.0775 -0.0699 -0.1007
 3498W        W 5648  11.602   4.934  24.928  0.2827  0.1068 -0.0512
 3499W        W 5649  21.232   0.708  11.805 -0.2591  0.3732  0.2809
 3500W        W 5650  19.090   6.686   3.123  0.1795 -0.2074  0.1252
 3501W        W 5651  15.872   3.411  24.648  0.2126 -0.0250  0.0258
 3502W        W 5652  15.091   2.130  22.460 -0.0828  0.1857 -0.1515
 3503W        W 5653  14.220   1.031   5.258  0.2864  0.2101 -0.0695
 3504W        W 5654  18.659   4.111  28.438 -0.2654  0.2952 -0.2772
 3505W        W 5655   9.869   0.472  24.874 -0.1388 -0.1980  0.1020
 3506W        W 5656  21.590   3.407   2.513 -0.1016 -0.2402 -0.2415
 3507W        W 5657   8.090   1.730  30.647 -0.1210 -0.2950  0.0530
 3508W        W 5658  10.086   0.379   3.040 -0.1171 -0.0346  0.1248
 3509W        W 5659   0.996   1.881  25.735  0.0682  0.0921 -0.0714
 3510W        W 5660  19.042   3.947  15.684 -0.0736  0.1888  0.1918
 3511W        W 5661  18.606   6.684   7.756  0.0887  0.1158 -0.3173
 3512W        W 5662  23.455   3.685   7.597  0.0135 -0.0109 -0.0622
 3513W        W 5663  15.476   4.438  29.820 -0.1009  0.1377 -0.0787
 3514W        W 5664   5.699   0.460  14.568  0.1829 -0.2430 -0.0460
 3515W        W 5665   6.642   2.843  23.238 -0.1382 -0.1874 -0.1816
 3516W        W 5666  15.115   1.083  30.781  0.0356  0.0692 -0.0052
 3517W        W 5667  17.664   3.349   5.377  0.1088  0.2543  0.0795
 3518W        W 5668   0.812   2.304  31.467 -0.1133 -0.1057 -0.0347
 3519W        W 5669   2.573   2.118  27.498  0.2964  0.0371 -0.1206
 3520W        W 5670  16.070   7.245  24.872 -0.1509 -0.1200 -0.0729
 3521W        W 5671  11.049   1.953   6.374  0.0048  0.0419 -0.0106
 3522W        W 5672  19.173   5.464  29.702  0.1675  0.2201 -0.1395
 3523W        W 5673  13.818   7.611   3.722  0.0940 -0.1086 -0.3703
 3524W        W 5674  24.436   2.574  25.079 -0.1124  0.0168  0.0528
 3525W        W 5675  11.450   2.492  26.711  0.3774  0.1295 -0.0162
 3526W        W 5676  11.701   5.335  27.058  0.0604  0.3237  0.0652
 3527W        W 5677   3.267   0.229  18.131  0.1435 -0.1779 -0.2144
 3528W        W 5678  24.578   6.152  29.842  0.0043  0.0586  0.2038
 3529W        W 5679  23.445   7.699  31.441 -0.2449  0.0719  0.1767
 3530W        W 5680  12.229   6.894  16.800  0.1481 -0.2521  0.1133
 3531W        W 5681   2.418   0.053  23.290  0.2200  0.2390 -0.2169
 3532W        W 5682  13.511   3.852  32.152  0.0289 -0.0162 -0.0355
 3533W        W 5683   7.685   2.479   2.936  0.0462 -0.1317  0.1299
 3534W        W 5684  22.062   7.187  19.322  0.0696 -0.1304 -0.0432
 3535W        W 5685  16.975   5.595  28.041  0.2235  0.0616  0.2595
 3536W        W 5686  16.597   0.561   1.892 -0.2382 -0.0258 -0.2851
 3537W        W 5687  17.992   4.666   1.930 -0.1679  0.3152  0.1162
 3538W        W 5688   9.691   0.035  26.251 -0.0113 -0.1845 -0.0960
 3539W        W 5689  21.367   6.538  21.565 -0.2125  0.4202 -0.0451
 3540W        W 5690   9.074   1.846  27.150 -0.1452  0.1793 -0.0982
 3541W        W 5691  15.414   4.838  17.626  0.1349 -0.1714 -0.0358
 3542W        W 5692   9.978   1.754   8.081 -0.1634  0.0683  0.2562
 3543W        W 5693  14.276   0.407  21.149 -0.0492  0.0542  0.0846
 3544W        W 5694   8.328   1.947  24.729  0.0046 -0.1940 -0.1957
 3545W        W 5695   2.786   0.850  10.492  0.0029  0.1168 -0.1717
 3546W        W 5696  17.622   1.837  17.167 -0.0022 -0.0868  0.1251
 3547W        W 5697  15.435   6.670  15.998 -0.0706 -0.2080 -0.0386
 3548W        W 5698   6.341   3.308   7.928 -0.0956  0.1395  0.0691
 3549W        W 5699   7.812   3.681   0.344 -0.1227  0.1523  0.2850
 3550W        W 5700  23.873   6.582  29.523 -0.2347 -0.3062  0.0913
 3551W        W 5701   2.865   5.555  24.298  0.1093  0.0194  0.0411
 3552W        W 5702  20.365   2.803  22.483  0.4224 -0.0207  0.0546
 3553W        W 5703  11.140   6.958  26.820 -0.4617  0.0553  0.0799
 3554W        W 5704  21.553   7.206  23.136  0.2247  0.1711  0.2197
 3555W        W 5705   3.921   7.368   6.158 -0.1131  0.3905 -0.1453
 3556W        W 5706  21.244   4.106  11.251 -0.0808 -0.0145  0.1300
 3557W        W 5707  10.348   5.625  20.288  0.0809 -0.3898 -0.3496
 3558W        W 5708  23.302   1.205  25.551 -0.0508  0.0548  0.0327
 3559W        W 5709  19.943   5.363  29.421  0.1248 -0.3025 -0.1156
 3560W        W 5710  21.316   7.314  23.718  0.0136 -0.3658  0.3405
 3561W        W 5711  17.413   3.052  17.560 -0.0330  0.0511 -0.3372
 3562W        W 5712  14.299   4.235   2.146 -0.1121  0.1436  0.0940
 3563W        W 5713  23.500   2.524  21.728 -0.0544  0.3424 -0.1338
 3564W        W 5714   0.706   6.865  11.071  0.0552  0.1380  0.3014
 3565W        W 5715  19.635   0.328  28.560 -0.2985 -0.0672  0.1127
 3566W        W 5716   1.145   3.726  28.385 -0.0157 -0.1997  0.1335
 3567W        W 5717   5.269   1.555   3.596  0.0017 -0.1104  0.2796
 3568W        W 5718  10.082   2.726   3.149  0.1188 -0.0725  0.0744
 3569W        W 5719  11.062   4.347   0.531 -0.2148  0.0590  0.1128
 3570W        W 5720   2.637   3.682   9.282  0.1453  0.4730  0.0881
 3571W        W 5721  12.588   3.455  25.302 -0.1790  0.1420  0.1095
 3572W        W 5722  22.983   3.950  29.187  0.0062 -0.1089 -0.3297
 3573W        W 5723  11.135   5.100  30.292 -0.1352  0.0823 -0.0300
 3574W        W 5724   1.528   4.394   3.578 -0.2148 -0.0317 -0.0539
 3575W        W 5725  19.961   3.007  31.863 -0.2772 -0.1493  0.1630
 3576W        W 5726   5.974   7.789  15.455  0.2872 -0.0926 -0.1946
 3577W        W 5727   0.635   3.339   9.473 -0.3932  0.1005  0.1499
 3578W        W 5728   2.840   3.268   8.964 -0.1833 -0.1113 -0.0763
 3579W        W 5729  15.730   5.934  17.004 -0.0099 -0.3436  0.1186
 3580W        W 5730  15.065   7.575   5.001 -0.1895 -0.1379 -0.1925
 3581W        W 5731   2.286   6.603  23.247  0.0493  0.0760 -0.3645
 3582W        W 5732  24.721   7.129  30.207  0.0682  0.0985  0.2132
 3583W        W 5733  11.221   2.727   6.668  0.1769 -0.2727  0.0434
 3584W        W 5734   5.861   7.057  29.789  0.2014  0.0742 -0.1220
 3585W        W 5735   3.389   3.206   0.926 -0.0315 -0.0167  0.0918
 3586W        W 5736   3.869   0.991  24.589 -0.2809  0.0881  0.2395
 3587W        W 5737   5.224   7.089  26.884 -0.1887  0.2061 -0.0646
 3588W        W 5738   4.697   4.407  32.516 -0.0969  0.1004  0.0844
 3589W        W 5739  14.550   0.940   4.899 -0.1900 -0.3009  0.0340
 3590W        W 5740  13.153   5.587   0.128 -0.1724  0.0683  0.0510
 3591W        W 5741  20.866   5.488  23.958  0.1121  0.2258  0.0787
 3592W        W 5742   5.966   5.512  16.012  0.0572  0.1072  0.1216
 3593W        W 5743  12.792   5.848   3.070 -0.0780  0.1542  0.1371
 3594W        W 5744  23.717   0.287   1.138  0.0320  0.3892 -0.1649
 3595W        W 5745  13.653   5.809  10.340  0.0662  0.1826 -0.1482
 3596W        W 5746  19.054   1.248   7.477  0.0213 -0.1511  0.0130
 3597W        W 5747  11.303   1.463  11.885 -0.0012  0.1944 -0.0357
 3598W        W 5748  16.253   5.771  25.830 -0.0769 -0.0479 -0.2658
 3599W        W 5749  23.597   2.558  29.858 -0.1340 -0.0175 -0.0720
 3600W        W 5750   2.905   3.982   4.421  0.1022  0.2584  0.0607
 3601W        W 5751   0.767   4.676   9.979 -0.0706 -0.1432  0.2162
 3602W        W 5752  18.527   6.026  16.808  0.0376  0.1327  0.2063
 3603W        W 5753   2.898   6.380  22.571 -0.1528  0.1573  0.2132
 3604W        W 5754  17.047   0.167  32.392 -0.1118 -0.0232  0.3366
 3605W        W 5755   3.306   5.907  32.490 -0.1160  0.0091  0.0855
 3606W        W 5756   5.829   3.768   3.357  0.0493  0.0107  0.1181
 3607W        W 5757  10.605   7.146  28.067 -0.2384  0.1004  0.0583
 3608W        W 5758   2.326   5.243  14.897 -0.2017  0.1819  0.0804
 3609W        W 5759  10.566   7.580   8.010 -0.0520 -0.0785  0.1421
 3610W        W 5760  11.074   0.137  11.730 -0.0876 -0.0146 -0.2106
 3611W        W 5761   4.134   4.831  12.421 -0.1582 -0.0303  0.1023
 3612W        W 5762  21.282   4.606   2.973 -0.0081 -0.2885 -0.0772
 3613W        W 5763  20.877   1.994  28.560  0.1831 -0.2495 -0.0110
 3614W        W 5764  18.346   0.696  27.595 -0.0222 -0.2396 -0.0491
 3615W        W 5765  18.313   1.958  24.740 -0.0362 -0.1514 -0.2916
 3616W        W 5766  21.927   5.628   5.224 -0.0490  0.1731  0.2187
 3617W        W 5767  19.183   2.980  17.776  0.2233  0.0558 -0.0126
 3618W        W 5768  13.811   0.654   7.519  0.0417  0.0057 -0.1798
 3619W        W 5769   0.407   6.163  10.748 -0.0108  0.2603 -0.0554
 3620W        W 5770  19.719   7.099   7.152  0.1739 -0.1794 -0.0142
 3621W        W 5771  14.240   0.799   7.312  0.1950 -0.0024  0.0288
 3622W        W 5772   4.383   3.543  32.938  0.1958  0.1566  0.1454
 3623W        W 5773   4.272   1.878   2.413  0.0781  0.1948  0.2382
 3624W        W 5774   1.331   5.213   1.322  0.0079 -0.2664  0.0975
 3625W        W 5775  13.927   7.411   9.293 -0.1231  0.0014 -0.1922
 3626W        W 5776  13.210   1.846  31.642  0.0356  0.0623  0.0302
 3627W        W 5777  19.226   5.600   4.767 -0.0818 -0.0788 -0.1745
 3628W        W 5778   3.528   2.667  24.644  0.0091 -0.1030  0.0275
 3629W        W 5779  15.748   0.714  10.259 -0.1081 -0.1844  0.2764
 3630W        W 5780   7.134   1.627   2.899 -0.2230  0.2222  0.2381
 3631W        W 5781  10.683   3.117  31.381 -0.0072 -0.1369 -0.1907
 3632W        W 5782  17.948   4.574   8.036 -0.1912 -0.1624 -0.0406
 3633W        W 5783  22.303   0.336   2.878  0.0801  0.0116 -0.0728
 3634W        W 5784  23.330   4.010  21.386  0.2134  0.0363  0.5481
 3635W        W 5785  23.298   6.763  26.083  0.0633  0.2568  0.0095
 3636W        W 5786  15.476   4.846   3.104 -0.1076 -0.1170 -0.0047
 3637W        W 5787  22.758   7.227  13.488 -0.0620 -0.1847 -0.4088
 3638W        W 5788  22.564   6.209   1.443  0.0101 -0.2911  0.1423
 3639W        W 5789  20.944   1.214  23.560 -0.1118 -0.0623 -0.2562
 3640W        W 5790  10.825   5.919  12.193  0.1643  0.2358  0.0342
 3641W        W 5791  23.650   3.878   9.185  0.0512  0.3300 -0.2969
 3642W        W 5792   3.272   0.467  30.686  0.0459 -0.1869  0.2450
 3643W        W 5793  11.323   1.180   4.030 -0.0893 -0.2329  0.1283
 3644W        W 5794  15.578   2.007  14.950 -0.0662  0.0030 -0.1866
 3645W        W 5795   2.879   7.599   9.030  0.1056 -0.1290 -0.0970
 3646W        W 5796   5.566   3.159  23.789  0.1804 -0.0188  0.3397
 3647W        W 5797  10.421   3.926   9.013 -0.2929 -0.1240 -0.4535
 3648W        W 5798  22.674   7.088  31.261 -0.0199  0.2288 -0.1165
 3649W        W 5799  14.499   7.066  21.026 -0.2092 -0.2367  0.0150
 3650W        W 5800  23.334   3.979   9.646  0.1083 -0.1474  0.0018
 3651W        W 5801  16.212   2.153  31.094  0.0076 -0.1560 -0.0201
 3652W        W 5802  24.583   7.364   0.948 -0.1218  0.0764  0.0616
 3653W        W 5803  22.699   5.004   5.219 -0.2007  0.2247 -0.4337
 3654W        W 5804  21.839   4.330   9.327  0.1989 -0.1743  0.1786
 3655W        W 5805   9.209   7.456   0.535  0.0165 -0.0853 -0.0578
 3656W        W 5806  14.940   4.381  26.898  0.0757 -0.2483 -0.1237
 3657W        W 5807   3.255   4.474  14.742  0.1740 -0.1308 -0.1782
 3658W        W 5808   5.666   4.599  31.831 -0.3872  0.0256 -0.2177
 3659W        W 5809   0.631   1.641   3.199 -0.1291 -0.0506 -0.1199
 3660W        W 5810   7.954   3.320  15.192 -0.0468  0.0449  0.1796
 3661W        W 5811  18.339   4.843  21.813  0.1459  0.2874  0.1571
 3662W        W 5812   8.332   2.335  27.065 -0.1789  0.0218 -0.0256
 3663W        W 5813  13.880   5.988   3.784  0.1829  0.3203  0.0205
 3664W        W 5814  14.324   5.615  15.948 -0.0162 -0.3401 -0.2450
 3665W        W 5815  15.952   1.712  16.511  0.0894 -0.1437 -0.0944
 3666W        W 5816  16.846   3.758  32.873 -0.0637 -0.0665  0.0304
 3667W        W 5817   8.624   4.951   5.446 -0.0411  0.0041 -0.0101
 3668W        W 5818  11.454   3.249  18.360 -0.0847 -0.1780 -0.2651
 3669W        W 5819  21.020   1.415   9.401  0.0818  0.2431  0.1661
 3670W        W 5820  15.304   2.165   2.838 -0.0951  0.0018  0.2492
 3671W        W 5821  12.996   0.544   4.479 -0.1699  0.1548 -0.2269
 3672W        W 5822  12.901   2.365  23.964 -0.1591 -0.0985 -0.1111
 3673W        W 5823   0.444   3.531  14.916 -0.1101 -0.0174  0.1356
 3674W        W 5824  10.556   2.683  32.897  0.0201 -0.0427 -0.2191
 3675W        W 5825  15.108   2.706  22.222 -0.4620  0.2289 -0.0432
 3676W        W 5826  19.722   7.619   7.116 -0.1903  0.1998  0.0841
 3677W        W 5827   3.471   5.465  23.677 -0.3745  0.0752  0.1221
 3678W        W 5828  16.659   6.465  16.491  0.2769 -0.2630 -0.1340
 3679W        W 5829  15.197   2.975  24.011 -0.1141  0.2004 -0.0542
 3680W        W 5830  10.229   0.046  22.773 -0.2804 -0.0122 -0.0315
 3681W        W 5831  12.304   7.176  18.497  0.1801 -0.1292  0.0521
 3682W        W 5832   5.538   5.696  27.685  0.4271 -0.2548 -0.2094
 3683W        W 5833   2.715   2.771   7.689  0.2587  0.0978  0.3192
 3684W        W 5834   8.655   6.772   7.485  0.0943  0.1759 -0.5513
 3685W        W 5835  18.964   4.475   2.095 -0.1018  0.1917  0.3973
 3686W        W 5836  24.513   1.606  28.586 -0.0910 -0.1129 -0.1486
 3687W        W 5837   9.405   1.509  23.744 -0.1344 -0.0609 -0.2486
 3688W        W 5838   5.677   1.079   8.541 -0.3312 -0.0855 -0.1941
 3689W        W 5839   2.983   1.376  10.685 -0.1500 -0.0954  0.4099
 3690W        W 5840   4.191   1.702  12.845 -0.0514  0.1266 -0.2985
 3691W        W 5841   1.389   1.306   9.771  0.1543  0.0104  0.0101
 3692W        W 5842   4.985   4.672   8.514 -0.2509 -0.2580  0.1995
 3693W        W 5843  23.660   6.024  12.023 -0.0850 -0.1361 -0.0317
 3694W        W 5844   2.975   7.457   4.545 -0.2226 -0.2040 -0.1247
 3695W        W 5845   8.470   5.132  22.207  0.2136 -0.2930 -0.1662
 3696W        W 5846  15.747   5.940   6.559  0.1381  0.0246 -0.2962
 3697W        W 5847  13.261   5.185   0.487 -0.0132 -0.0154 -0.0421
 3698W        W 5848   7.526   6.436   0.701  0.2759 -0.3048 -0.0804
 3699W        W 5849  16.066   4.195  22.120  0.2616  0.5106 -0.1968
 3700W        W 5850   5.303   4.615  14.517 -0.1947 -0.0952  0.0054
 3701W        W 5851   5.768   0.173  11.776  0.0342 -0.0489 -0.1839
 3702W        W 5852  15.414   7.606   7.000 -0.1034  0.0181  0.0142
 3703W        W 5853  15.510   5.347  16.161 -0.0100  0.0811 -0.2828
 3704W        W 5854  15.438   6.347  31.962  0.0134  0.2702 -0.0338
 3705W        W 5855  22.296   2.961  21.964 -0.0561  0.0123  0.0802
 3706W        W 5856  23.122   5.874  21.837 -0.2138  0.0458  0.1582
 3707W        W 5857  24.608   3.555  28.161  0.1351  0.0998  0.0545
 3708W        W 5858   7.344   0.154  28.550 -0.3286  0.0443 -0.2206
 3709W        W 5859   3.273   1.227  15.153  0.2543  0.2781 -0.0955
 3710W        W 5860   0.984   4.696  21.940 -0.0971  0.4261  0.1755
 3711W        W 5861   7.851   2.233  31.061  0.2117 -0.0887  0.1283
 3712W        W 5862   9.494   3.132  27.598  0.1558 -0.2521 -0.0515
 3713W        W 5863   7.137   6.353   3.243 -0.3197  0.0215  0.0572
 3714W        W 5864  15.077   0.606  24.080 -0.0494  0.0645  0.1645
 3715W        W 5865  20.729   6.514   6.094  0.1481 -0.1057 -0.0372
 3716W        W 5866   9.675   6.971  21.129 -0.1633 -0.0615 -0.1221
 3717W        W 5867  11.529   4.251  11.447 -0.1678  0.1013  0.2025
 3718W        W 5868   2.992   3.208   9.536  0.0988 -0.0867  0.2671
 3719W        W 5869  14.763   6.653  15.975 -0.0529  0.0546  0.0338
 3720W        W 5870  18.751   4.406  20.069  0.0106  0.1122 -0.2522
 3721W        W 5871  11.620   6.128  10.787  0.2191  0.1642 -0.1601
 3722W        W 5872  13.066   1.305  33.000 -0.2125  0.1403  0.0170
 3723W        W 5873  21.495   5.456  19.853  0.0110 -0.1083 -0.0392
 3724W        W 5874   2.816   5.328  27.859 -0.2826 -0.1015 -0.0809
 3725W        W 5875  17.070   5.315   4.423  0.1071 -0.1483  0.0394
 3726W        W 5876  24.318   5.222  10.943  0.1369 -0.0447  0.1774
 3727W        W 5877   8.641   7.085  27.255 -0.1724 -0.0580 -0.0105
 3728W        W 5878  11.163   4.412  12.833  0.0167 -0.2048  0.1317
 3729W        W 5879  10.387   7.281  28.898 -0.1995 -0.2004 -0.0610
 3730W        W 5880  12.256   4.704   1.661  0.0021 -0.0159 -0.0470
 3731W        W 5881   6.372   6.634   5.115 -0.0282  0.2240  0.0092
 3732W        W 5882   2.583   3.254  16.724 -0.3217 -0.1532 -0.2280
 3733W        W 5883  20.275   4.784  26.832  0.1187  0.2174 -0.1234
 3734W        W 5884  18.988   5.202  20.203 -0.1560  0.0471 -0.2186
 3735W        W 5885   7.235   2.960  15.764  0.0340  0.0185 -0.1505
 3736W        W 5886   4.871   2.210   9.653 -0.4585 -0.0489 -0.0596
 3737W        W 5887  20.377   6.021  27.876  0.2913  0.0812  0.0943
 3738W        W 5888  15.991   2.008  17.062 -0.2366 -0.1796 -0.0916
 3739W        W 5889  24.573   1.888   6.225 -0.0735 -0.1459  0.0663
 3740W        W 5890  17.755   0.718   0.942 -0.3767  0.0229  0.3092
 3741W        W 5891  14.851   6.886  10.692  0.0541 -0.1006  0.3620
 3742W        W 5892   2.833   0.257  31.117 -0.1846 -0.1214  0.1496
 3743W        W 5893   8.202   5.945   4.797  0.2107 -0.1233 -0.1453
 3744W        W 5894   9.003   4.864   0.680 -0.1205  0.0205 -0.2587
 3745W        W 5895  23.065   3.100   5.492  0.2463  0.2352 -0.3086
 3746W        W 5896  10.385   6.103  30.648 -0.1965 -0.5315 -0.0719
 3747W        W 5897   1.490   3.370  13.344 -0.0910 -0.1740  0.2046
 3748W        W 5898  20.314   3.745  20.799 -0.1646  0.0450 -0.0619
 3749W        W 5899  15.991   1.051  19.984 -0.0185 -0.0790  0.2345
 3750W        W 5900   5.400   5.770   2.961  0.0601 -0.0805  0.0627
 3751W        W 5901   6.697   6.859  12.491 -0.1794  0.0739 -0.2635
 3752W        W 5902  10.546   4.561   0.070 -0.0882 -0.0773  0.0782
 3753W        W 5903   5.949   1.812  15.157  0.1271  0.3155  0.0186
 3754W        W 5904  20.362   4.720  19.441  0.2166 -0.2110 -0.0332
 3755W        W 5905  18.537   0.489   8.489  0.0922 -0.0403  0.2414
 3756W        W 5906  21.806   2.731  30.240 -0.1075  0.1452  0.1048
 3757W        W 5907   6.944   3.417  29.167  0.1587 -0.0021  0.1250
 3758W        W 5908  20.076   1.710  18.707  0.3527  0.1778  0.0203
 3759W        W 5909  17.020   5.194  15.988 -0.0979 -0.1578 -0.1442
 3760W        W 5910  21.433   1.819  28.459 -0.1698  0.1413 -0.1356
 3761W        W 5911  10.158   5.139  30.578  0.1580 -0.0439 -0.2087
 3762W        W 5912   7.091   3.852   8.889 -0.0334 -0.1225 -0.0648
 3763W        W 5913   4.059   5.455   0.449 -0.2237 -0.0196 -0.0844
 3764W        W 5914  18.585   3.499  22.199 -0.3670 -0.0267 -0.4549
 3765W        W 5915  13.489   6.688   3.742  0.0042 -0.3139  0.1441
 3766W        W 5916  12.785   1.135   8.841 -0.1738  0.0162  0.1236
 3767W        W 5917   9.299   0.718  21.645  0.0902  0.0196  0.0827
 3768W        W 5918  23.030   5.543  31.986  0.0062  0.1024  0.1460
 3769W        W 5919   3.920   6.679  28.183  0.1455  0.1889  0.0659
 3770W        W 5920  21.968   2.114   2.139 -0.0332 -0.4287 -0.0288
 3771W        W 5921   3.552   6.399   3.932  0.0022  0.3573  0.0380
 3772W        W 5922  13.291   1.837   0.095  0.2647 -0.1826  0.0971
 3773W        W 5923  22.480   6.390   9.981  0.1174 -0.1406 -0.2275
 3774W        W 5924  24.885   5.049  32.874 -0.0348  0.0846  0.1545
 3775W        W 5925  14.203   3.740   6.508 -0.2133  0.1447  0.1539
 3776W        W 5926  14.770   1.508  32.989  0.1177 -0.1217  0.1023
 3777W        W 5927  24.387   2.148  30.445 -0.3118 -0.1749 -0.2533
 3778W        W 5928  15.398   4.064  17.630 -0.0638  0.3490  0.0525
 3779W        W 5929  11.696   1.742   0.896  0.1607 -0.4069  0.0359
 3780W        W 5930  12.846   0.925  23.858 -0.0052  0.0771  0.1590
 3781W        W 5931  20.327   5.862  26.538 -0.3933  0.0032  0.2649
 3782W        W 5932  10.547   6.039  11.770  0.2751  0.2729 -0.0555
 3783W        W 5933  21.557   3.488  32.927 -0.2541 -0.1100 -0.0381
 3784W        W 5934  11.825   0.412  24.130  0.2703  0.1574  0.0739
 3785W        W 5935  24.840   7.581   1.418  0.2148 -0.0791 -0.1302
 3786W        W 5936   6.351   0.482   6.828  0.0638 -0.0902  0.1983
 3787W        W 5937  15.304   1.696  21.826 -0.0010 -0.3154 -0.0429
 3788W        W 5938   7.879   0.857   2.914 -0.1207 -0.0010 -0.1264
 3789W        W 5939   2.997   6.035  24.422  0.0217 -0.0370 -0.1437
 3790W        W 5940  22.253   4.329  29.845  0.0922  0.0527 -0.4378
 3791W        W 5941  22.829   5.847  25.276 -0.0099 -0.1976  0.0861
 3792W        W 5942   9.017   2.327   0.775 -0.2968 -0.1103  0.4857
 3793W        W 5943   9.278   0.835   0.944 -0.2301 -0.0225 -0.3762
 3794W        W 5944  10.664   6.628  21.413 -0.1541  0.4401  0.1838
 3795W        W 5945  10.287   4.835  29.317  0.1891  0.2928  0.0603
 3796W        W 5946   1.484   2.443  13.824  0.0315  0.2084 -0.3137
 3797W        W 5947  16.401   4.504   8.947 -0.0368 -0.1939  0.4557
 3798W        W 5948   6.080   4.891  12.795  0.0063  0.0935  0.1512
 3799W        W 5949   4.140   3.731   4.019  0.2375  0.0306  0.0354
 3800W        W 5950   1.707   0.059  29.809  0.3118  0.2407 -0.0713
 3801W        W 5951   2.123   1.700   4.306  0.0371  0.1760 -0.1529
 3802W        W 5952   0.958   6.326  31.968  0.1333 -0.0937  0.2371
 3803W        W 5953   0.370   6.158  12.813  0.3062  0.1138 -0.1668
 3804W        W 5954  12.236   5.740  22.266  0.1177  0.1284 -0.0817
 3805W        W 5955   9.847   4.300   1.809  0.0398  0.1993  0.0193
 3806W        W 5956   2.710   2.698  22.621  0.0077 -0.1003 -0.2004
 3807W        W 5957  13.087   1.936   4.699 -0.1218 -0.2443  0.0446
 3808W        W 5958  12.132   2.713   1.837 -0.0476  0.0586  0.1102
 3809W        W 5959  12.996   6.550  17.020  0.2079  0.4692 -0.1040
 3810W        W 5960   2.117   7.716  32.605  0.1992  0.0564 -0.0685
 3811W        W 5961   1.404   1.814   6.063 -0.1075  0.0929  0.1880
 3812W        W 5962   0.975   5.822   0.116 -0.0807  0.3256  0.1333
 3813W        W 5963  12.192   5.670   1.730  0.3164 -0.1405  0.2200
 3814W        W 5964  19.201   2.929  24.604 -0.0298  0.0165  0.0378
 3815W        W 5965  22.131   7.718   1.035 -0.1532  0.2477 -0.0435
 3816W        W 5966   9.649   1.115  19.936 -0.1002  0.0877  0.0309
 3817W        W 5967   3.438   1.088   5.661  0.1157  0.2028 -0.0145
 3818W        W 5968  14.548   6.887  29.276 -0.0565 -0.1119 -0.0891
 3819W        W 5969   0.016   5.513   0.335  0.1624  0.0132  0.2439
 3820W        W 5970  14.087   1.679  25.895 -0.2092 -0.1600 -0.0987
 3821W        W 5971  22.095   2.854  24.300  0.0192  0.0614 -0.0644
 3822W        W 5972   2.834   7.363  23.955  0.0365  0.0858  0.4070
 3823W        W 5973   5.780   2.289   0.383  0.1215  0.0689 -0.1632
 3824W        W 5974  19.879   1.572   4.234  0.2173 -0.0869 -0.0994
 3825W        W 5975  23.126   5.265  29.407  0.1793  0.0022  0.0168
 3826W        W 5976  10.544   7.170  11.628  0.1210  0.0529  0.0666
 3827W        W 5977  21.510   4.041  23.073 -0.0463  0.0301 -0.2194
 3828W        W 5978   4.109   1.467   4.498  0.2666  0.0841  0.0809
 3829W        W 5979   0.773   2.908   4.005  0.2672  0.0306 -0.1907
 3830W        W 5980  19.124   0.028  20.305  0.1009 -0.1481  0.0550
 3831W        W 5981   5.408   3.340  29.050 -0.0001 -0.3289 -0.1057
 3832W        W 5982   0.169   1.379  30.839 -0.0476  0.3289  0.1915
 3833W        W 5983  19.969   4.191  30.290  0.1266 -0.1766 -0.2260
 3834W        W 5984   6.768   0.542  31.346  0.1076 -0.1961 -0.0376
 3835W        W 5985  16.214   5.813  29.578  0.0421 -0.0726  0.2364
 3836W        W 5986   3.125   0.099   1.272  0.0302  0.0074  0.0407
 3837W        W 5987   0.929   2.665  22.999  0.1309  0.1989  0.2332
 3838W        W 5988  20.325   5.985  27.359  0.1557  0.1139  0.1120
 3839W        W 5989  19.142   3.896  32.067  0.0192 -0.1584  0.0313
 3840W        W 5990   4.001   2.926  28.704  0.0825  0.0690 -0.0173
 3841W        W 5991  24.461   5.301  15.126 -0.0100 -0.0454  0.0721
 3842W        W 5992   3.655   6.665  14.401 -0.0753  0.1513 -0.0588
 3843W        W 5993  22.431   6.256  13.282  0.1281  0.1683 -0.1280
 3844W        W 5994   1.928   3.931  14.309 -0.1198 -0.3329 -0.3319
 3845W        W 5995   2.306   1.096  22.426  0.2710  0.0832 -0.3371
 3846W        W 5996  11.496   3.950   4.912  0.3042  0.0650  0.3497
 3847W        W 5997  18.726   1.756   0.066 -0.0304  0.2255 -0.1793
 3848W        W 5998   7.648   5.724  29.148  0.2379  0.0376  0.2096
 3849W        W 5999  23.161   3.884  27.958  0.1707 -0.0395  0.0823
 3850W        W 6000  24.176   7.685   8.476 -0.0469 -0.0674  0.0231
 3851W        W 6001  19.472   4.499  17.690  0.2629  0.0636 -0.2828
 3852W        W 6002   2.218   1.058   5.364  0.1016  0.4194 -0.4261
 3853W        W 6003   7.819   2.382  27.286  0.0608  0.0201 -0.2959
 3854W        W 6004  22.135   0.170  19.831  0.0855  0.1652  0.1266
 3855W        W 6005  20.221   0.241   5.398  0.1050 -0.2425  0.2810
 3856W        W 6006  16.621   1.331  26.457  0.1284  0.0331 -0.0729
 3857W        W 6007   8.672   4.456   2.503  0.1145  0.1776  0.1961
 3858W        W 6008  14.551   4.127   4.721  0.1989 -0.0142 -0.0060
 3859W        W 6009  18.519   1.952  18.464 -0.0295  0.2457 -0.0227
 3860W        W 6010  21.761   0.387  19.558  0.3651 -0.5535  0.0480
 3861W        W 6011  21.478   0.094  32.987  0.1210 -0.1823 -0.0432
 3862W        W 6012   8.054   3.401  10.431  0.2638 -0.0255  0.0855
 3863W        W 6013   9.273   6.270   8.286 -0.0011 -0.0684  0.4585
 3864W        W 6014  18.202   0.749  21.011  0.1119 -0.0316 -0.0433
 3865W        W 6015  24.868   0.237  27.715 -0.0022  0.0749 -0.3072
 3866W        W 6016  18.621   4.115   4.270  0.3457  0.0399  0.1313
 3867W        W 6017  16.206   1.926   0.165  0.0604 -0.1773  0.0072
 3868W        W 6018   2.625   0.780  11.721 -0.1709  0.0761  0.0852
 3869W        W 6019  17.452   6.419  29.969  0.2342 -0.4296  0.0818
 3870W        W 6020  12.121   4.256  29.405 -0.0451  0.0646  0.1223
 3871W        W 6021  18.662   0.994   7.646 -0.0479  0.1699 -0.0409
 3872W        W 6022   9.476   2.984  28.179  0.0352 -0.1726  0.1067
 3873W        W 6023   0.443   6.730   5.156 -0.1262  0.1017  0.0346
 3874W        W 6024  20.332   6.649  30.473  0.0262 -0.0444 -0.0392
 3875W        W 6025   7.070   4.246  32.528  0.0784 -0.5732 -0.1642
 3876W        W 6026   9.939   5.017   8.202 -0.1430  0.1682 -0.2785
 3877W        W 6027   5.681   5.721  26.414  0.1447  0.0855  0.0999
 3878W        W 6028   3.869   0.639  17.161  0.2590 -0.0306  0.1117
 3879W        W 6029  24.378   7.313  25.446  0.0203  0.2563  0.0911
 3880W        W 6030   1.442   4.771   9.185  0.2712 -0.0528  0.1317
 3881W        W 6031  20.705   6.071   1.289 -0.1354  0.4170 -0.2307
 3882W        W 6032  13.102   1.396  28.641  0.1805  0.0294 -0.2781
 3883W        W 6033  14.726   6.123  22.043  0.1889  0.0797 -0.0289
 3884W        W 6034  16.925   1.854  31.727  0.3425  0.0627 -0.1538
 3885W        W 6035  14.532   4.916  19.884  0.0243 -0.3513  0.0849
 3886W        W 6036   4.634   6.765   8.356  0.0509  0.2360 -0.2367
 3887W        W 6037   7.670   6.798  28.174 -0.1272  0.1954  0.0567
 3888W        W 6038  22.883   4.477  27.642 -0.0556 -0.1751 -0.0711
 3889W        W 6039  24.650   4.390  31.664  0.0950 -0.1207 -0.4187
 3890W        W 6040  13.063   5.663  29.448  0.0649 -0.0252  0.2995
 3891W        W 6041   0.172   5.929  24.144  0.3457 -0.1495 -0.0430
 3892W        W 6042   5.146   2.099  26.825 -0.0038 -0.0737  0.5034
 3893W        W 6043   0.399   0.491   4.246 -0.2403  0.0561 -0.3565
 3894W        W 6044   7.660   5.370  14.106 -0.1431 -0.1156 -0.1769
 3895W        W 6045  22.274   2.681  19.433 -0.2249 -0.2854  0.0188
 3896W        W 6046  17.622   5.782  29.668 -0.2788 -0.1475 -0.0549
 3897W        W 6047  24.085   0.081   5.149 -0.1443 -0.1031 -0.1327
 3898W        W 6048   2.897   0.316   8.366  0.0039 -0.0429  0.1186
 3899W        W 6049  24.003   7.404  27.638 -0.0347 -0.1956 -0.1722
 3900W        W 6050   8.136   6.305  25.596 -0.1017 -0.1381  0.0888
 3901W        W 6051  16.198   1.457   9.804 -0.4611  0.1920 -0.4512
 3902W        W 6052  19.259   4.284   0.773 -0.0125 -0.2264 -0.2093
 3903W        W 6053   2.286   4.228  30.648  0.2221  0.4101  0.0407
 3904W        W 6054  24.504   5.770   5.737  0.1701 -0.0228 -0.2142
 3905W        W 6055  12.665   5.398   8.526 -0.0418  0.0382  0.2854
 3906W        W 6056  11.524   0.369   5.807  0.0381  0.2168  0.1684
 3907W        W 6057  14.623   4.258   9.602  0.3309  0.0144 -0.0595
 3908W        W 6058  10.838   6.898  26.339  0.0660  0.0046  0.4248
 3909W        W 6059  13.606   1.946  31.257  0.2726  0.1520  0.1637
 3910W        W 6060  23.612   3.517  10.014  0.1215  0.0733 -0.0761
 3911W        W 6061  24.653   6.133   2.624 -0.0549  0.1220 -0.0049
 3912W        W 6062   4.461   6.324  15.724 -0.2129 -0.2793 -0.1768
 3913W        W 6063   1.999   0.452   2.682  0.0641  0.0134 -0.1914
 3914W        W 6064  23.341   1.044  21.180 -0.1094 -0.0488 -0.2107
 3915W        W 6065  13.039   7.757  27.345 -0.1860  0.1660  0.3063
 3916W        W 6066   8.367   5.051   6.887 -0.4005  0.2395 -0.0767
 3917W        W 6067  11.009   0.227  29.210 -0.0222  0.0234 -0.3549
 3918W        W 6068  11.927   1.613   2.798  0.1517 -0.0602 -0.1193
 3919W        W 6069  17.442   2.556  32.510 -0.0654  0.0551  0.2741
 3920W        W 6070   0.692   5.918  23.232  0.0477 -0.0075 -0.0299
 3921W        W 6071   0.263   0.697   4.693  0.0507 -0.1159  0.0235
 3922W        W 6072  13.898   0.677  23.687 -0.1438 -0.4726  0.2901
 3923W        W 6073   2.820   2.542  23.556  0.2247 -0.2055 -0.3782
 3924W        W 6074  15.471   5.571  14.138 -0.0689 -0.1022  0.3327
 3925W        W 6075  20.166   3.169  10.614 -0.1280 -0.0347  0.1885
 3926W        W 6076   6.990   2.718  26.228  0.0245  0.1755  0.0190
 3927W        W 6077  20.085   6.271  22.729  0.0731 -0.2086  0.1140
 3928W        W 6078   1.414   1.575   7.995  0.1660  0.0998  0.2039
 3929W        W 6079  11.527   4.570  25.472 -0.1153  0.0859 -0.1410
 3930W        W 6080   8.828   7.514   6.387  0.3624 -0.0734  0.1526
 3931W        W 6081  18.081   6.982  27.956 -0.3522 -0.0084  0.0303
 3932W        W 6082  12.384   3.965   0.927 -0.2669 -0.0842 -0.0083
 3933W        W 6083  24.304   0.578   7.953  0.2124 -0.0319 -0.0042
 3934W        W 6084  10.647   6.403   7.012  0.2400 -0.0217 -0.0059
 3935W        W 6085  24.029   0.684   8.806 -0.0313  0.0250 -0.4085
 3936W        W 6086   8.159   4.718   6.482 -0.3002 -0.0838 -0.3861
 3937W        W 6087   2.632   5.006  12.186 -0.2197 -0.0253 -0.3959
 3938W        W 6088   9.291   5.520  29.838  0.3235  0.2803 -0.0998
 3939W        W 6089  24.871   6.287  12.638  0.0025 -0.3268 -0.2198
 3940W        W 6090  18.630   0.781  32.921  0.0803  0.2064  0.0985
 3941W        W 6091  11.096   3.026  28.024  0.1477  0.2751 -0.1735
 3942W        W 6092   2.170   1.461  31.926 -0.0086  0.2348  0.0131
 3943W        W 6093   0.217   0.609  28.131  0.3517 -0.2568 -0.1581
 3944W        W 6094  14.334   0.435   0.103  0.1849  0.4754 -0.0198
 3945W        W 6095   3.882   4.073  18.040  0.4869 -0.1662  0.0506
 3946W        W 6096  12.583   2.589   1.388  0.2481  0.1739 -0.1380
 3947W        W 6097  22.251   7.070   6.177  0.0760 -0.0640  0.0263
 3948W        W 6098  20.699   3.976  21.027  0.2620  0.0692 -0.0585
 3949W        W 6099   9.512   6.486  23.563 -0.0654  0.1467 -0.0336
 3950W        W 6100   7.594   3.494   7.705  0.0052 -0.1626  0.1176
 3951W        W 6101   5.390   4.355  29.821 -0.2295 -0.1655  0.2666
 3952W        W 6102  16.330   2.548  25.894  0.3044 -0.0925 -0.2408
 3953W        W 6103  20.711   1.836  20.017  0.0227 -0.1624  0.0819
 3954W        W 6104  18.238   5.592   1.543  0.2125 -0.2000  0.0846
 3955W        W 6105  15.528   2.540  29.277 -0.0344  0.0350 -0.2848
 3956W        W 6106  24.939   2.698  10.046 -0.2736  0.3028  0.1316
 3957W        W 6107  18.288   0.870  20.471 -0.1797 -0.0330  0.0316
 3958W        W 6108   1.165   4.646  25.125 -0.1180  0.1943  0.0388
 3959W        W 6109   5.192   7.181  29.739 -0.0219 -0.0192  0.2200
 3960W        W 6110   4.247   1.877   4.714  0.0553  0.1272  0.1700
 3961W        W 6111   2.983   6.248   6.870  0.3232 -0.0650 -0.1196
 3962W        W 6112  20.768   6.093  11.312 -0.0384  0.1844 -0.4263
 3963W        W 6113  23.730   7.010  19.875  0.1294 -0.0649  0.2827
 3964W        W 6114   7.441   5.418   3.169 -0.0127  0.0228 -0.1490
 3965W        W 6115   1.855   7.234  30.555 -0.0883 -0.1033 -0.0392
 3966W        W 6116   9.689   0.578  11.802 -0.2407 -0.4805  0.1864
 3967W        W 6117  18.020   3.282  26.264 -0.1415 -0.0279 -0.2962
 3968W        W 6118  17.306   4.462  17.993  0.2327  0.1354 -0.0433
 3969W        W 6119   4.777   2.178  28.489 -0.1747  0.0396  0.1772
 3970W        W 6120   4.222   5.976  22.466 -0.0337  0.0743  0.0953
 3971W        W 6121  15.968   0.988  25.098  0.0364  0.1548  0.1448
 3972W        W 6122  14.411   6.428   4.054 -0.4176 -0.0442  0.0814
 3973W        W 6123  10.475   0.357  24.504  0.1044  0.2264  0.0376
 3974W        W 6124   4.661   6.439  17.100 -0.2231  0.1992  0.5354
 3975W        W 6125   6.523   6.996  25.368 -0.5324  0.0944  0.0682
 3976W        W 6126  13.531   4.709   1.996 -0.2727 -0.3001  0.0585
 3977W        W 6127   3.598   5.687  24.137  0.3309  0.1539 -0.0762
 3978W        W 6128   4.187   1.049  12.596 -0.0527 -0.2588 -0.1843
 3979W        W 6129   9.405   6.608   1.279  0.0038  0.1432  0.0175
 3980W        W 6130  17.581   6.058  19.111 -0.2408  0.1008  0.1211
 3981W        W 6131  21.561   0.383   6.108 -0.0785 -0.2236  0.5066
 3982W        W 6132  13.219   1.590  25.365  0.3034 -0.0743 -0.3602
 3983W        W 6133   0.155   5.793   6.247  0.3470  0.1632  0.1261
 3984W        W 6134  19.010   7.685  28.560  0.0511  0.0731 -0.0010
 3985W        W 6135  12.202   2.701  30.205 -0.0213 -0.2029 -0.1795
 3986W        W 6136   0.279   4.334  23.981 -0.1050 -0.0679  0.0081
 3987W        W 6137   1.696   0.805  11.938 -0.3768 -0.1160 -0.1382
 3988W        W 6138  15.487   2.651  24.283  0.0325 -0.0974 -0.0131
 3989W        W 6139   9.843   1.258  19.432 -0.0886  0.2318 -0.0226
 3990W        W 6140   9.657   1.712  32.776 -0.0626  0.1738 -0.0761
 3991W        W 6141  13.223   0.955  15.995  0.2234  0.2926 -0.4501
 3992W        W 6142  17.936   4.265  20.741 -0.2858  0.1104 -0.1027
 3993W        W 6143  19.162   7.705   4.860 -0.3243 -0.1023  0.3187
 3994W        W 6144  22.364   0.116  28.632 -0.1510  0.0873  0.2333
 3995W        W 6145  20.359   7.270  18.364  0.0293  0.1967  0.3631
 3996W        W 6146  22.708   4.124  27.240 -0.1325  0.3195 -0.2938
 3997W        W 6147  16.554   1.696  24.763 -0.1964 -0.2987  0.2118
 3998W        W 6148   5.581   3.756  10.946  0.0846 -0.2999  0.1548
 3999W        W 6149  17.756   4.126   4.058  0.2053 -0.1532  0.0793
 4000W        W 6150  21.769   5.027  30.143  0.3210 -0.0798 -0.2372
 4001W        W 6151  12.121   7.084   6.503  0.2284 -0.0385  0.4678
 4002W        W 6152  11.691   6.742  30.637  0.3107 -0.2112 -0.1417
 4003W        W 6153   2.383   7.348  24.150  0.0402  0.2674 -0.0456
 4004W        W 6154   2.671   1.900  16.216  0.0025 -0.0312 -0.1154
 4005W        W 6155  18.305   2.002  19.018 -0.0509 -0.2254 -0.0946
 4006W        W 6156  21.341   6.210  32.746 -0.1364 -0.1051 -0.0737
 4007W        W 6157  23.739   2.660  11.947 -0.1827 -0.1715  0.0857
 4008W        W 6158   5.274   0.261  14.298  0.0180 -0.0507 -0.2468
 4009W        W 6159  13.638   1.826  28.019  0.2666 -0.2685  0.1742
 4010W        W 6160  24.824   6.855  10.600  0.2972 -0.2078  0.2678
 4011W        W 6161  12.510   5.061   6.972  0.2266 -0.2252  0.0611
 4012W        W 6162  11.553   6.525   7.066 -0.1599  0.3860  0.1457
 4013W        W 6163   9.295   4.799   5.970 -0.0131  0.2185  0.1099
 4014W        W 6164   2.682   4.818   0.859  0.0768 -0.2745 -0.1650
 4015W        W 6165  12.635   3.488  25.886 -0.2178  0.4236  0.0522
 4016W        W 6166  16.752   1.640  27.759 -0.5867  0.0599  0.0048
 4017W        W 6167   4.455   3.651  24.261 -0.2701 -0.2019  0.0503
 4018W        W 6168  13.028   5.706  24.614  0.0867 -0.2387 -0.1605
 4019W        W 6169  19.994   3.930  26.680  0.0131 -0.0105  0.0019
 4020W        W 6170  12.735   3.329  22.214 -0.0447 -0.3546 -0.1619
 4021W        W 6171  21.053   3.504  30.056  0.0987 -0.1194  0.0062
 4022W        W 6172   1.418   1.629  17.056  0.0040 -0.2929 -0.1022
 4023W        W 6173  17.871   0.773   3.128  0.0402  0.3727  0.3193
 4024W        W 6174  20.444   3.696  26.468 -0.2148 -0.0314 -0.1180
 4025W        W 6175  16.062   3.248  20.715 -0.0034  0.1675 -0.0571
 4026W        W 6176  12.295   2.744  27.070  0.0037  0.3846  0.0963
 4027W        W 6177  20.435   7.473  19.868 -0.1361 -0.1871  0.0700
 4028W        W 6178   7.446   7.620   2.199 -0.0891  0.2781  0.0848
 4029W        W 6179  13.525   3.315   5.601 -0.1943  0.0807 -0.0997
 4030W        W 6180  20.773   7.036   5.654  0.0703 -0.0283  0.2980
 4031W        W 6181  17.245   5.800   9.153  0.0348 -0.3344  0.1720
 4032W        W 6182  13.803   6.071  31.638 -0.1538  0.0682  0.1471
 4033W        W 6183   3.312   0.424   8.604 -0.0417 -0.0894  0.1125
 4034W        W 6184   3.946   2.501  27.424 -0.2445  0.0988 -0.1131
 4035W        W 6185  12.252   3.619  23.009 -0.1446  0.0293 -0.1499
 4036W        W 6186   7.666   3.104  15.549  0.1156 -0.1696 -0.3609
 4037W        W 6187   5.573   0.267  30.758 -0.0823  0.1787 -0.0003
 4038W        W 6188   0.614   4.067  25.902 -0.0582  0.3758  0.1446
 4039W        W 6189   2.171   5.783  27.278  0.0881  0.1069 -0.1464
 4040W        W 6190  21.347   6.303   6.810  0.0971  0.1909 -0.2657
 4041W        W 6191   3.188   3.964   5.402 -0.1037 -0.1469 -0.0425
 4042W        W 6192  23.706   4.929  10.627 -0.0518  0.4058 -0.1332
 4043W        W 6193   5.952   6.034  29.417 -0.0271 -0.1985 -0.2833
 4044W        W 6194   8.029   5.229   0.485  0.0361  0.1834 -0.0335
 4045W        W 6195   1.688   4.117  21.902  0.2168  0.0768  0.2540
 4046W        W 6196  23.045   3.125  31.611  0.1854  0.0639  0.2074
 4047W        W 6197   5.185   3.915  26.651 -0.1079 -0.0539 -0.0919
 4048W        W 6198   1.529   5.902  13.308  0.0451 -0.1816  0.0984
 4049W        W 6199  13.076   7.331   9.980 -0.1287 -0.2849 -0.1229
 4050W        W 6200   8.271   1.637   4.626  0.3362  0.0084  0.2650
 4051W        W 6201  19.058   0.948  25.147  0.3206  0.3339 -0.3744
 4052W        W 6202   4.981   5.432  10.866  0.0705  0.4702 -0.4273
 4053W        W 6203  10.157   5.456  10.975  0.4176  0.1926  0.1890
 4054W        W 6204  20.908   0.910   8.814  0.1687 -0.1465  0.1733
 4055W        W 6205  19.319   6.811  30.957 -0.2231  0.1923 -0.2955
 4056W        W 6206   2.270   5.586  21.843 -0.0300 -0.0369  0.0228
 4057W        W 6207   5.376   2.503  31.277  0.1111 -0.0736  0.0723
 4058W        W 6208   7.741   2.828   4.334 -0.0916  0.0825  0.2919
 4059W        W 6209  19.627   0.517  19.399  0.1515 -0.0568  0.0164
 4060W        W 6210  18.542   5.307  26.001  0.1537  0.1191 -0.1038
 4061W        W 6211   2.687   2.212   9.886  0.2254 -0.4811 -0.0853
 4062W        W 6212   2.840   6.437   0.182 -0.0563 -0.0524  0.0946
 4063W        W 6213  20.924   1.954  33.029 -0.3741 -0.0144  0.0086
 4064W        W 6214   9.139   3.735  27.886  0.0634 -0.0808 -0.0036
 4065W        W 6215   8.441   2.841  11.693 -0.0937 -0.1378 -0.1815
 4066W        W 6216  20.753   2.805   8.633  0.0113  0.0458 -0.0118
 4067W        W 6217  11.448   1.592  12.355  0.1228 -0.1511  0.3953
 4068W        W 6218  17.740   6.984  10.060 -0.2947 -0.0970 -0.0611
 4069W        W 6219   9.111   6.780   2.247 -0.0564  0.1373  0.0869
 4070W        W 6220  12.505   4.873  24.840  0.1844 -0.0957  0.1199
 4071W        W 6221  18.515   7.035  28.333  0.1279 -0.4569  0.1725
 4072W        W 6222   8.577   7.526  12.219  0.0710 -0.0523  0.1514
 4073W        W 6223  11.665   7.256  32.104  0.1100 -0.2427 -0.1344
 4074W        W 6224   9.801   3.817  20.357 -0.0672 -0.4895 -0.0878
 4075W        W 6225  19.339   6.898   6.410 -0.0721  0.0596 -0.0718
 4076W        W 6226   8.465   1.798  31.149  0.2654  0.1788 -0.2851
 4077W        W 6227   0.305   6.637   6.086  0.3588  0.3377  0.0918
 4078W        W 6228  22.995   4.334   3.168 -0.0170  0.2360 -0.0114
 4079W        W 6229   3.555   0.128  25.496 -0.0034  0.1024 -0.1699
 4080W        W 6230  23.599   7.232   5.662  0.0831 -0.0576  0.1274
 4081W        W 6231  12.651   0.555   1.028  0.0396 -0.0940 -0.0450
 4082W        W 6232  18.756   0.802  10.467  0.0249  0.3688  0.3783
 4083W        W 6233   8.006   1.360  27.923 -0.1117 -0.1270  0.0874
 4084W        W 6234  16.608   6.157  29.914  0.1131  0.2449  0.1668
 4085W        W 6235   3.280   7.231  16.499  0.0297 -0.1917  0.1160
 4086W        W 6236   2.245   1.639  12.202  0.1081  0.0352  0.1692
 4087W        W 6237  18.713   0.842  20.049  0.1421  0.1054 -0.0863
 4088W        W 6238  18.393   6.805  33.031 -0.2537  0.4319 -0.0529
 4089W        W 6239   2.762   7.013  28.381  0.1478 -0.0124  0.0079
 4090W        W 6240  20.556   6.122  19.569  0.0840 -0.0760  0.1902
 4091W        W 6241   3.722   1.760  12.404  0.1833  0.1184 -0.0341
 4092W        W 6242  23.256   4.962  31.905 -0.0969  0.1347 -0.0221
 4093W        W 6243  13.398   3.604   4.423  0.0862  0.0181  0.0087
 4094W        W 6244  18.498   5.597  29.243 -0.0016  0.1053 -0.2686
 4095W        W 6245  22.780   7.787  26.774 -0.1257  0.0670  0.0182
 4096W        W 6246   0.929   6.920   8.721 -0.2022 -0.0518 -0.1117
 4097W        W 6247  16.461   7.423  30.819 -0.1002 -0.0495 -0.0347
 4098W        W 6248   2.860   3.197  15.980 -0.0008 -0.2689  0.0013
 4099W        W 6249   6.516   7.248   1.117  0.2716  0.3096 -0.3447
 4100W        W 6250  19.060   1.867   5.652  0.0453  0.0286 -0.4077
 4101W        W 6251  14.989   6.999  27.856 -0.1627  0.0847  0.0289
 4102W        W 6252  11.927   5.745   3.453 -0.0212  0.2684  0.1171
 4103W        W 6253  11.620   5.872  11.257 -0.2106  0.0111  0.0097
 4104W        W 6254   9.919   4.611  24.632  0.3571 -0.2051  0.3666
 4105W        W 6255  10.650   1.565  27.389  0.0865  0.0128  0.1261
 4106W        W 6256  10.936   1.088   1.882 -0.0123  0.1706  0.0451
 4107W        W 6257  21.366   0.759  24.913 -0.1565  0.1721 -0.1735
 4108W        W 6258  10.897   2.982  23.508 -0.2154  0.2311 -0.1534
 4109W        W 6259  11.847   3.450   0.504 -0.0024 -0.1871  0.0214
 4110W        W 6260  24.369   5.423  28.046 -0.0537 -0.1118  0.1556
 4111W        W 6261   2.249   6.045   4.655  0.1813 -0.0272  0.1020
 4112W        W 6262  22.506   4.266  26.491  0.1878 -0.0456  0.0801
 4113W        W 6263  14.210   1.819  26.409 -0.0970 -0.0285 -0.1131
 4114W        W 6264  12.854   2.985  25.813 -0.0042 -0.2559 -0.0434
 4115W        W 6265  11.442   7.354  29.476 -0.1039 -0.0994 -0.0538
 4116W        W 6266  19.093   4.958  16.751 -0.0141  0.0577 -0.2630
 4117W        W 6267  21.711   7.009   8.504 -0.1175  0.1761  0.0285
 4118W        W 6268  17.358   4.253  31.566  0.1163 -0.1715 -0.2213
 4119W        W 6269  14.733   4.488  27.398 -0.1704  0.1877 -0.1987
 4120W        W 6270  13.783   1.306  29.493  0.0669 -0.0758  0.0389
 4121W        W 6271  13.571   4.903   7.371 -0.0228 -0.2572  0.0757
 4122W        W 6272  23.232   5.298  24.871  0.1073  0.2115 -0.0818
 4123W        W 6273  15.098   3.817   5.508  0.2069 -0.0567 -0.0305
 4124W        W 6274  11.357   7.508  11.508 -0.2187 -0.0021 -0.1138
 4125W        W 6275   3.181   7.774  27.423 -0.1652  0.0657 -0.1074
 4126W        W 6276  16.258   2.268  23.564 -0.1575 -0.0331 -0.0447
 4127W        W 6277  23.474   3.440   3.354 -0.1682 -0.0042  0.0342
 4128W        W 6278  16.682   5.405  22.481 -0.3248 -0.0291 -0.0291
 4129W        W 6279   7.445   2.483   6.587  0.2470  0.0163 -0.0093
 4130W        W 6280  24.786   1.268  31.837  0.0914  0.1330  0.3124
 4131W        W 6281   2.795   6.688  11.173  0.1210  0.1292 -0.1789
 4132W        W 6282  12.213   2.998  24.622 -0.0875 -0.0815  0.2436
 4133W        W 6283   8.417   1.156   3.480  0.2185 -0.1344  0.0211
 4134W        W 6284   8.379   2.740   1.671  0.2145  0.1335  0.0501
 4135W        W 6285   6.577   2.417   6.517  0.2517 -0.1537  0.0586
 4136W        W 6286  14.735   3.923  10.411 -0.0315 -0.1329 -0.1423
 4137W        W 6287   6.099   3.858  24.443 -0.0785 -0.0840 -0.1496
 4138W        W 6288   0.882   4.720   1.568  0.0940 -0.0199  0.2924
 4139W        W 6289   5.904   1.592  25.315  0.1200 -0.2024  0.1613
 4140W        W 6290  16.870   0.549  10.634  0.2280  0.3963 -0.2664
 4141W        W 6291  17.662   4.476  17.550 -0.0309 -0.0643 -0.1322
 4142W        W 6292  10.836   2.797  20.457 -0.0141  0.0726 -0.0160
 4143W        W 6293  12.349   5.430  29.720 -0.0191  0.0246 -0.0976
 4144W        W 6294  20.736   5.961  32.271 -0.1448 -0.1989 -0.0794
 4145W        W 6295  12.498   2.722   6.199 -0.2186 -0.0837 -0.2791
 4146W        W 6296   1.511   5.964   3.186  0.0944  0.2817 -0.0190
 4147W        W 6297  18.346   1.749  31.358  0.0106 -0.0073  0.0296
 4148W        W 6298   0.151   4.321   7.553  0.0824 -0.0370 -0.0689
 4149W        W 6299  16.255   5.923  28.445  0.2354  0.4639 -0.2453
 4150W        W 6300  21.214   4.066  10.212  0.2397 -0.2164 -0.0493
 4151W        W 6301   2.710   3.122   5.545  0.0308 -0.0203  0.0599
 4152W        W 6302   5.030   1.528  27.637  0.0834  0.2704  0.2108
 4153W        W 6303  10.972   3.730   9.703 -0.0485  0.1639  0.1583
 4154W        W 6304  15.208   7.166  24.066  0.4440 -0.0566  0.1415
 4155W        W 6305  16.826   1.717   8.571 -0.2345  0.0462 -0.1441
 4156W        W 6306  15.547   4.157   8.758 -0.0219  0.2181  0.3505
 4157W        W 6307  14.502   7.006  25.533 -0.0902 -0.4253 -0.2959
 4158W        W 6308   6.659   4.863  27.351  0.2304 -0.0881 -0.0703
 4159W        W 6309   3.903   6.257  14.422 -0.0017  0.0887  0.0908
 4160W        W 6310   6.691   1.315   6.506  0.1409  0.0223 -0.2867
 4161W        W 6311  16.347   2.672   5.742  0.2345  0.0157  0.0276
 4162W        W 6312   6.877   1.947  23.612  0.0390  0.1191 -0.0517
 4163W        W 6313  12.500   0.219  28.167 -0.1856  0.1498 -0.0210
 4164W        W 6314  21.669   0.323  20.094 -0.1361 -0.1328 -0.0685
 4165W        W 6315  21.838   2.033   5.025  0.0720  0.1808  0.2081
 4166W        W 6316   7.498   1.283   5.455  0.0218  0.2920 -0.1942
 4167W        W 6317  14.193   3.188  29.161 -0.0192 -0.2395 -0.0864
 4168W        W 6318   2.931   6.195  32.264  0.2307 -0.4103  0.1596
 4169W        W 6319   2.554   0.625  12.731  0.1767  0.1325 -0.1525
 4170W        W 6320  20.001   2.767   9.515  0.0979 -0.0729  0.0180
 4171W        W 6321   3.781   7.604   5.210 -0.2252  0.0462  0.2900
 4172W        W 6322  13.787   7.770  16.571 -0.0244  0.3680 -0.1612
 4173W        W 6323  15.053   6.574  22.890  0.1889 -0.3611  0.2058
 4174W        W 6324  12.135   3.610  27.231 -0.3080  0.0587 -0.1095
 4175W        W 6325   3.290   5.893   9.656 -0.0212  0.0233  0.0691
 4176W        W 6326   2.460   7.048  22.254  0.1026 -0.0313 -0.2054
 4177W        W 6327  12.955   4.436   7.268  0.0478  0.2706  0.0497
 4178W        W 6328   3.794   1.038   2.723 -0.0643 -0.1095  0.0765
 4179W        W 6329   7.112   5.758  26.108  0.1305  0.2291 -0.2217
 4180W        W 6330   2.870   5.056  25.956 -0.2989 -0.0513  0.0394
 4181W        W 6331  13.817   5.906   9.875 -0.0643 -0.1152  0.1645
 4182W        W 6332   6.244   6.335  29.120 -0.0567 -0.1497 -0.0048
 4183W        W 6333  13.794   3.366   6.740  0.1297  0.3264  0.1297
 4184W        W 6334  24.914   6.653   5.203  0.0205  0.4349 -0.1052
 4185W        W 6335  20.129   3.423  10.097  0.1218  0.3512  0.0608
 4186W        W 6336  23.323   7.060   9.835  0.3546  0.0807  0.2186
 4187W        W 6337   9.738   5.272  21.626 -0.1053  0.2276  0.1505
 4188W        W 6338   6.922   0.417   1.995  0.3019 -0.1258  0.0505
 4189W        W 6339  17.616   3.098   1.123 -0.0077  0.0452 -0.1248
 4190W        W 6340  20.126   7.282   4.037 -0.0987 -0.2362  0.0320
 4191W        W 6341   8.296   4.761  24.885  0.1502 -0.1127 -0.0767
 4192W        W 6342  21.160   4.482  30.525  0.1281  0.0658 -0.0931
 4193W        W 6343   9.539   7.115  27.576  0.2437 -0.1954  0.0607
 4194W        W 6344  21.619   5.608   4.792 -0.0411  0.0301  0.1949
 4195W        W 6345  13.521   6.215  25.765 -0.0973 -0.1239  0.2185
 4196W        W 6346   7.554   7.467   1.723  0.0796 -0.1207  0.2788
 4197W        W 6347   1.246   4.510   0.496  0.3787 -0.0037  0.0374
 4198W        W 6348   0.354   1.856   7.913  0.0499  0.0797  0.1732
 4199W        W 6349  16.572   7.102   6.466  0.1156 -0.1121 -0.0029
 4200W        W 6350  11.608   0.909  19.739  0.0016 -0.0868 -0.4774
 4201W        W 6351  13.599   5.926   6.156  0.0519  0.2997  0.1141
 4202W        W 6352  15.343   0.992  20.495  0.0033 -0.3674  0.1052
 4203W        W 6353   2.292   3.749  26.344 -0.1136  0.2177 -0.1348
 4204W        W 6354   5.705   1.985   1.380  0.1618 -0.3630  0.0110
 4205W        W 6355  22.262   4.982  12.026 -0.1644 -0.0440  0.3597
 4206W        W 6356   4.512   1.227   3.057  0.0804  0.0810  0.0506
 4207W        W 6357  16.782   7.669  29.941  0.1779  0.3479  0.0855
 4208W        W 6358  20.548   1.417  27.638 -0.0651 -0.1544 -0.2210
 4209W        W 6359   8.609   2.055  13.439 -0.0178 -0.2645  0.1753
 4210W        W 6360   2.888   5.053  28.798 -0.2463  0.4542 -0.1708
 4211W        W 6361  10.426   3.734   0.200  0.1097 -0.4426 -0.3374
 4212W        W 6362   6.442   2.012  32.290  0.1306 -0.0241 -0.1278
 4213W        W 6363  18.688   6.019   5.279  0.3491 -0.1029  0.2592
 4214W        W 6364  20.056   5.878   8.931  0.1380 -0.1288 -0.2070
 4215W        W 6365  11.085   0.020  22.450  0.0135 -0.0014 -0.0069
 4216W        W 6366  20.919   5.651  10.234 -0.2283 -0.1019 -0.0243
 4217W        W 6367   2.029   1.497  32.433  0.0705 -0.0177  0.1532
 4218W        W 6368  19.861   2.900  32.766  0.0113  0.5730  0.0430
 4219W        W 6369   2.653   3.054  15.543 -0.2789 -0.2653 -0.0489
 4220W        W 6370   1.536   5.648  28.050  0.0408 -0.2083 -0.1226
 4221W        W 6371  19.760   5.502  11.665 -0.1235  0.2276 -0.2574
 4222W        W 6372  15.260   1.697   7.858 -0.1746 -0.0379 -0.2065
 4223W        W 6373  21.224   0.008  20.175  0.1632 -0.1028  0.2391
 4224W        W 6374   1.009   6.169  23.540 -0.0292  0.0473  0.1354
 4225W        W 6375   8.345   5.092  32.701  0.0763 -0.0005 -0.1791
 4226W        W 6376  17.901   4.625  22.548 -0.2981 -0.4335 -0.0527
 4227W        W 6377  16.663   2.699   2.050  0.0079 -0.3210 -0.1268
 4228W        W 6378  15.973   6.546   4.442 -0.1188 -0.2135 -0.1969
 4229W        W 6379   2.761   6.393  14.051  0.1309  0.1980 -0.3126
 4230W        W 6380  24.468   5.252  24.823  0.2241  0.0292  0.2245
 4231W        W 6381   2.337   7.604   6.367  0.2410  0.0065  0.0272
 4232W        W 6382  11.879   5.761  17.230  0.0024 -0.1072  0.1811
 4233W        W 6383  24.611   6.165  21.605  0.0280  0.2057 -0.2278
 4234W        W 6384  13.396   3.336  29.282 -0.2723  0.0871 -0.1457
 4235W        W 6385  12.102   4.518  29.799  0.2426  0.1291 -0.3824
 4236W        W 6386  24.180   1.429  29.371 -0.2963  0.0320 -0.0640
 4237W        W 6387  12.217   5.930  31.607 -0.0002 -0.1733 -0.0062
 4238W        W 6388   0.360   5.434  27.399 -0.3969  0.1569 -0.2734
 4239W        W 6389   5.162   5.325   4.555 -0.5689 -0.3735  0.5786
 4240W        W 6390   7.750   4.061  31.200 -0.1140 -0.2125 -0.0791
 4241W        W 6391   0.437   2.808  15.462 -0.2271 -0.0789 -0.0740
 4242W        W 6392  13.764   6.738  24.013  0.4103 -0.2131  0.1907
 4243W        W 6393   7.465   6.996  12.085  0.0335  0.0084  0.3084
 4244W        W 6394   8.204   3.603  25.678 -0.0498 -0.1395  0.0599
 4245W        W 6395   7.340   2.052  22.591  0.1290 -0.1630 -0.0582
 4246W        W 6396   3.889   3.658  28.544  0.2112  0.2498 -0.0049
 4247W        W 6397  23.198   1.758  13.095  0.0551 -0.2405  0.0630
 4248W        W 6398  19.254   1.286  20.649  0.1858  0.1440 -0.1023
 4249W        W 6399  23.520   5.335   5.463 -0.1278 -0.1036  0.0644
 4250W        W 6400  21.604   5.618   6.080  0.0769 -0.0082 -0.0049
 4251W        W 6401  20.673   6.016  23.833  0.2466  0.2584 -0.1014
 4252W        W 6402   5.524   4.091  28.223  0.1470 -0.1918 -0.2927
 4253W        W 6403   6.411   6.987  11.041 -0.0045 -0.1204 -0.0561
 4254W        W 6404  17.820   7.388  23.037  0.0877 -0.0284  0.2593
 4255W        W 6405  17.785   6.893  32.463  0.0198  0.0583  0.0306
 4256W        W 6406   4.353   5.699  31.699  0.0271 -0.1448  0.1155
 4257W        W 6407   6.471   0.931  27.671  0.0443  0.2822 -0.3918
 4258W        W 6408   9.891   1.324   2.193 -0.1802 -0.1192  0.1661
 4259W        W 6409   4.045   1.022  11.086  0.0684  0.5503  0.1301
 4260W        W 6410  22.864   5.628  22.198  0.0591  0.1360  0.2281
 4261W        W 6411   8.615   0.593  26.714  0.0692  0.0928 -0.0745
 4262W        W 6412   8.229   4.406   5.229 -0.2293 -0.0510  0.0175
 4263W        W 6413   5.967   4.429  30.214  0.1294  0.2089  0.1287
 4264W        W 6414   0.105   3.036  23.346 -0.0331 -0.0315  0.1778
 4265W        W 6415   3.042   1.125   6.900 -0.0898 -0.2159 -0.0316
 4266W        W 6416  18.715   2.983  31.016  0.1053 -0.0516 -0.1727
 4267W        W 6417  22.749   4.216  10.316 -0.1327  0.2945  0.0983
 4268W        W 6418  20.434   3.156  29.386  0.0831  0.0852  0.2646
 4269W        W 6419  23.611   2.939  11.270  0.1418 -0.2649  0.0545
 4270W        W 6420   9.847   6.889   2.464  0.1064 -0.2755 -0.0211
 4271W        W 6421   8.156   7.617  31.138  0.0833  0.0119 -0.3684
 4272W        W 6422  21.535   4.617   1.956 -0.4048 -0.0295 -0.1197
 4273W        W 6423  13.602   5.352   0.152  0.0262  0.1852  0.0237
 4274W        W 6424   2.812   5.432  14.956 -0.4129  0.2123  0.0387
 4275W        W 6425  23.137   3.650  12.415 -0.1836  0.1928  0.2853
 4276W        W 6426  23.508   7.797   3.042 -0.0191  0.0703  0.1923
 4277W        W 6427  19.817   6.856  11.243 -0.0386 -0.3015 -0.4098
 4278W        W 6428   9.003   0.695  10.966 -0.0135  0.1039  0.3193
 4279W        W 6429  16.123   4.199   0.384 -0.1240  0.2887 -0.1828
 4280W        W 6430   9.101   3.568   4.418 -0.1471 -0.0776  0.1050
 4281W        W 6431   6.338   4.475   0.552 -0.0344  0.3724 -0.1350
 4282W        W 6432   5.550   6.878   5.523  0.2545 -0.2032  0.2055
 4283W        W 6433   3.554   1.420   2.490  0.1236  0.0604 -0.0204
 4284W        W 6434   8.550   4.864  31.867 -0.2022 -0.0076  0.1875
 4285W        W 6435  21.478   7.559   6.879 -0.0276  0.3024  0.2205
 4286W        W 6436  20.048   3.031   4.730  0.0158 -0.1824 -0.0071
 4287W        W 6437   3.382   3.346  15.852 -0.0966  0.1242  0.0505
 4288W        W 6438   8.632   1.697  12.479  0.0682  0.0467  0.1906
 4289W        W 6439  20.736   4.509   4.980 -0.0633  0.0344 -0.0329
 4290W        W 6440  23.936   4.938   2.380  0.1377  0.1230  0.1335
 4291W        W 6441   6.756   5.659  27.190 -0.0817  0.0795 -0.0933
 4292W        W 6442   8.641   1.637   1.382 -0.0083 -0.0546  0.2875
 4293W        W 6443  23.579   6.372   3.778  0.1840 -0.1026 -0.1245
 4294W        W 6444   3.938   6.790  27.163 -0.0461  0.1189  0.0399
 4295W        W 6445  23.127   7.544   4.831  0.0601  0.0115  0.0546
 4296W        W 6446  21.109   6.788  20.570  0.0281 -0.1489  0.1838
 4297W        W 6447   0.244   3.251   2.938  0.1765 -0.0080 -0.0487
 4298W        W 6448   5.654   5.580  23.485  0.2622 -0.2532 -0.2034
 4299W        W 6449   9.021   3.678  29.845  0.0168 -0.1134 -0.0099
 4300W        W 6450   5.256   0.621  30.583  0.0253 -0.1496 -0.0764
 4301W        W 6451   9.224   4.512  25.085 -0.0310  0.0812 -0.1074
 4302W        W 6452   0.144   5.803  14.599  0.2661  0.0253  0.1806
 4303W        W 6453  23.815   2.897   8.709 -0.1883  0.1617 -0.0116
 4304W        W 6454   6.979   0.227   2.892 -0.0833 -0.1730 -0.2183
 4305W        W 6455  14.476   1.946  20.355  0.2896  0.0686  0.1718
 4306W        W 6456  11.389   6.595  23.605  0.3864  0.0660  0.2247
 4307W        W 6457   8.231   1.381  30.262 -0.3227 -0.0960 -0.2013
 4308W        W 6458  18.310   5.704   7.924 -0.0884  0.0228 -0.0661
 4309W        W 6459  23.005   3.294   9.436  0.1030  0.1143  0.1065
 4310W        W 6460   6.359   6.568   7.087  0.0785 -0.2007 -0.0068
 4311W        W 6461   0.539   3.304  26.723 -0.0048 -0.1727  0.1084
 4312W        W 6462   6.878   3.969  32.926 -0.0052  0.1097  0.4374
 4313W        W 6463  10.049   0.568   9.811 -0.0959 -0.0449  0.0413
 4314W        W 6464   8.498   1.396   2.947 -0.0043  0.3971  0.0926
 4315W        W 6465   8.256   2.604  13.434 -0.1900  0.0085 -0.1010
 4316W        W 6466   6.574   2.347   4.206  0.3017 -0.0565 -0.1290
 4317W        W 6467  16.752   4.394   9.819  0.1191 -0.0074  0.1004
 4318W        W 6468  24.458   4.829   3.957 -0.0523  0.1567 -0.1425
 4319W        W 6469  10.923   1.919  23.182 -0.1031 -0.2214  0.1196
 4320W        W 6470   9.839   0.822   2.445  0.1332 -0.3025  0.0011
 4321W        W 6471  20.391   0.637  20.156  0.0248  0.0821 -0.2216
 4322W        W 6472   7.143   0.909  26.600  0.2066  0.0433  0.1073
 4323W        W 6473   5.717   7.080   6.807  0.0387  0.2500  0.3078
 4324W        W 6474  10.689   6.220   1.500  0.2229  0.1990  0.3685
 4325W        W 6475  10.909   1.296   4.812  0.3538  0.1201 -0.0131
 4326W        W 6476  24.893   5.967  11.057  0.1316  0.0137 -0.1047
 4327W        W 6477   1.236   0.152   3.821 -0.2317  0.0750 -0.0022
 4328W        W 6478  17.310   3.377  22.054  0.1436 -0.2348  0.1319
 4329W        W 6479  24.772   1.597   9.408 -0.0613 -0.2326 -0.3837
 4330W        W 6480   6.932   7.676  23.932  0.0628 -0.0569 -0.0194
 4331W        W 6481  22.472   0.582   6.033  0.2049  0.2662 -0.1801
 4332W        W 6482   6.005   7.200  26.087  0.2777  0.3153 -0.0028
 4333W        W 6483  23.513   2.615   8.396  0.4178  0.0509  0.2416
 4334W        W 6484   3.758   3.646  22.685 -0.2040 -0.0205  0.2385
 4335W        W 6485  13.210   7.133  26.051  0.0239 -0.2648  0.0572
 4336W        W 6486   4.491   4.742  22.774  0.0551  0.2084 -0.0761
 4337W        W 6487  12.619   4.379  29.663 -0.1325 -0.1051  0.0498
 4338W        W 6488  24.264   6.212  23.837 -0.3227 -0.1111  0.0050
 4339W        W 6489  14.500   3.493  17.692 -0.1983 -0.3196 -0.3457
 4340W        W 6490  11.734   0.848  31.081  0.2456  0.0827 -0.0590
 4341W        W 6491  21.796   7.132   3.909  0.1492  0.1165  0.2285
 4342W        W 6492  18.216   3.234  18.107  0.1247 -0.0950  0.2471
 4343W        W 6493  11.677   6.211  21.562 -0.2860 -0.0085  0.1434
 4344W        W 6494   3.515   6.780  31.172 -0.0768 -0.1806 -0.0997
 4345W        W 6495  11.177   3.458   7.002 -0.0351 -0.0349  0.2302
 4346W        W 6496  17.365   4.328  25.542 -0.0185 -0.3553  0.0048
 4347W        W 6497   2.684   6.238   4.924 -0.0585  0.1520 -0.1219
 4348W        W 6498   3.472   5.004  22.808  0.0770  0.1640 -0.0287
 4349W        W 6499  19.154   1.370  24.891 -0.0440 -0.2027 -0.1287
 4350W        W 6500   7.029   4.281  27.537  0.2112 -0.1378 -0.2378
 4351W        W 6501   4.686   4.844  32.852 -0.1297 -0.2271 -0.0394
 4352W        W 6502   7.833   6.987   4.498 -0.0412 -0.4470  0.2908
 4353W        W 6503  10.420   2.182  32.690 -0.0028  0.0016 -0.3400
 4354W        W 6504   8.896   7.301  21.255  0.1087 -0.1307  0.1765
 4355W        W 6505  16.160   3.502  20.225  0.1031  0.0988 -0.1387
 4356W        W 6506  24.431   5.040   9.054 -0.2384 -0.1248  0.2781
 4357W        W 6507  18.183   2.590  18.919 -0.0247 -0.1282  0.1612
 4358W        W 6508  15.816   3.315   4.269  0.0364 -0.1490 -0.0080
 4359W        W 6509  14.429   1.891  15.787 -0.1000 -0.2155  0.1867
 4360W        W 6510  21.587   2.601  25.793 -0.2477 -0.0336 -0.1496
 4361W        W 6511  23.316   1.633   0.012 -0.0432  0.2352 -0.1754
 4362W        W 6512  13.497   1.473  31.391 -0.1597 -0.2356 -0.2046
 4363W        W 6513   2.858   6.149  13.506  0.1044 -0.0978  0.0854
 4364W        W 6514   3.157   2.523   8.172 -0.2566 -0.0229  0.2155
 4365W        W 6515  19.778   3.645  23.260 -0.0874  0.1270 -0.1237
 4366W        W 6516  16.340   3.078  30.545  0.3020  0.0956 -0.2317
 4367W        W 6517  21.102   7.064  29.838 -0.0998  0.0526  0.1583
 4368W        W 6518  24.612   2.000  25.148 -0.2490 -0.0076  0.2148
 4369W        W 6519   0.674   1.985   9.918  0.0875 -0.0565  0.1474
 4370W        W 6520  23.287   7.528  12.368 -0.0455  0.2024  0.3976
 4371W        W 6521   1.825   3.196   4.946  0.1144  0.1605 -0.1645
 4372W        W 6522  13.559   6.982   6.504  0.2087 -0.1799  0.1194
 4373W        W 6523  15.516   6.722  14.035  0.1100  0.2097 -0.0036
 4374W        W 6524   9.707   1.837  25.607  0.2258  0.0797 -0.0923
 4375W        W 6525   1.036   4.081  13.283  0.2077 -0.3039  0.1448
 4376W        W 6526  13.525   7.103  32.721 -0.1409 -0.0294 -0.0910
 4377W        W 6527  10.214   4.648   3.270  0.0995  0.1558 -0.2130
 4378W        W 6528  11.099   4.511  19.550  0.0397 -0.4044 -0.1029
 4379W        W 6529   9.672   2.190   8.167 -0.0830  0.0948  0.1440
 4380W        W 6530   2.664   1.503  30.020 -0.2235  0.2418 -0.1527
 4381W        W 6531   2.138   4.027   1.968  0.0525 -0.1460  0.0645
 4382W        W 6532  18.888   5.830   8.863 -0.0165  0.1346  0.0425
 4383W        W 6533   1.018   6.358  27.575  0.0110  0.0876  0.0225
 4384W        W 6534  14.455   2.788   4.601  0.1477  0.1274 -0.1835
 4385W        W 6535  24.617   6.689  28.527 -0.2529  0.0711  0.3933
 4386W        W 6536  15.007   0.336   5.418 -0.0807  0.1315  0.0813
 4387W        W 6537  15.274   1.197  15.737 -0.0142  0.0776 -0.0630
 4388W        W 6538  18.248   2.571   2.105  0.0330 -0.1826  0.1445
 4389W        W 6539   4.078   3.026   4.980 -0.2241 -0.1867  0.0125
 4390W        W 6540   8.852   1.372  21.701 -0.0349  0.0171  0.2631
 4391W        W 6541  22.118   6.794   3.466  0.0526 -0.0669  0.1273
 4392W        W 6542  10.459   6.253  21.686 -0.2770 -0.1135  0.1635
 4393W        W 6543  13.294   4.017  23.157  0.0011 -0.0426 -0.1333
 4394W        W 6544  10.308   2.821  32.065 -0.2110  0.2338 -0.0199
 4395W        W 6545  23.644   3.331  27.274  0.0440 -0.0102 -0.1304
 4396W        W 6546  14.033   7.152  29.235 -0.1815  0.2276  0.1902
 4397W        W 6547  14.048   5.196   7.439 -0.2610 -0.1133 -0.0106
 4398W        W 6548   3.994   2.534  16.682  0.0506  0.2977 -0.1726
 4399W        W 6549  12.944   1.177  25.966 -0.1535  0.0631  0.1537
 4400W        W 6550  20.822   3.352  18.179  0.1541 -0.1680  0.1569
 4401W        W 6551  16.779   4.806  16.287  0.0774  0.2506 -0.0750
 4402W        W 6552   3.691   3.555   7.162 -0.0590 -0.1010 -0.4188
 4403W        W 6553   3.916   5.654  17.223  0.0553  0.2990 -0.0615
 4404W        W 6554  24.120   0.471  12.101  0.0471  0.0409  0.1539
 4405W        W 6555  10.196   4.647  28.825  0.2496  0.0433 -0.2650
 4406W        W 6556   7.605   4.897  27.324  0.1405  0.1610  0.1979
 4407W        W 6557  21.848   5.696  12.354  0.0662 -0.2103  0.2806
 4408W        W 6558   8.395   3.471  28.203  0.1635 -0.1320  0.1185
 4409W        W 6559  14.263   3.922  21.880  0.0153  0.1025  0.1320
 4410W        W 6560   7.993   1.277   3.164 -0.1475  0.0985 -0.2967
 4411W        W 6561  13.543   5.200  29.720 -0.1520  0.1095  0.3509
 4412W        W 6562  19.646   4.823   2.556 -0.0060 -0.1005 -0.0238
 4413W        W 6563  13.771   2.878  19.950 -0.1129  0.0819 -0.4934
 4414W        W 6564   3.811   3.221  16.110 -0.2257 -0.0916  0.1119
 4415W        W 6565   5.442   0.415  28.472  0.1459 -0.1232 -0.1069
 4416W        W 6566  13.453   3.719  10.192  0.3304  0.0361  0.1365
 4417W        W 6567  16.847   7.012  22.521  0.3999  0.1664 -0.1116
 4418W        W 6568   8.275   1.453  31.563 -0.1965 -0.0391 -0.0040
 4419W        W 6569  10.332   2.350  24.247  0.2722 -0.1546  0.1229
 4420W        W 6570   3.228   2.448  11.345  0.1294 -0.0376  0.1242
 4421W        W 6571   5.961   6.147   4.578 -0.3793  0.1165  0.0821
 4422W        W 6572   3.876   5.301   1.478 -0.0080 -0.1599 -0.1838
 4423W        W 6573  14.876   6.702  28.257 -0.0201  0.0339  0.2823
 4424W        W 6574  10.207   3.030   8.669  0.1897  0.0829 -0.4802
 4425W        W 6575   8.433   0.252   9.991 -0.1681 -0.0795  0.0413
 4426W        W 6576  14.023   2.991  22.708 -0.3109  0.1966  0.4601
 4427W        W 6577  18.542   1.743  27.816 -0.1567  0.0368 -0.2308
 4428W        W 6578   2.176   6.048   2.675 -0.0168  0.1520 -0.5604
 4429W        W 6579  12.426   7.347  32.643 -0.3436 -0.3358  0.1998
 4430W        W 6580  24.028   0.290  13.597  0.1482 -0.1007  0.1831
 4431W        W 6581  10.707   5.732  25.235  0.2825  0.2562 -0.3180
 4432W        W 6582   0.808   3.433  29.457 -0.0469  0.0812 -0.2655
 4433W        W 6583  13.697   6.078  32.848 -0.2298 -0.0510  0.2971
 4434W        W 6584   1.965   3.366   9.849 -0.0616  0.1063  0.1850
 4435W        W 6585  21.996   5.279  11.686  0.0349 -0.0111 -0.1287
 4436W        W 6586  12.126   6.732  27.132  0.0446  0.0303 -0.0707
 4437W        W 6587  19.057   0.449  28.786  0.1368  0.2271  0.1943
 4438W        W 6588   5.753   0.651   4.439  0.2229  0.1534 -0.0107
 4439W        W 6589  14.557   2.280  19.277 -0.1340  0.3477  0.5004
 4440W        W 6590  19.425   2.693  29.756  0.0302 -0.3248  0.0938
 4441W        W 6591  15.990   7.198   2.018  0.1478 -0.0513  0.0733
 4442W        W 6592  16.087   5.236   0.741 -0.0959  0.2142 -0.0697
 4443W        W 6593   0.792   3.482  13.014 -0.1841 -0.5158 -0.0363
 4444W        W 6594  23.882   0.948  22.266  0.4899 -0.0736 -0.0997
 4445W        W 6595   0.194   7.687   0.124  0.2061 -0.0559 -0.1211
 4446W        W 6596   9.298   0.309  11.061 -0.1668  0.1452 -0.0788
 4447W        W 6597   8.239   5.722   1.830 -0.2918  0.0106 -0.3267
 4448W        W 6598  22.631   5.090  21.003 -0.1438  0.0206 -0.0537
 4449W        W 6599   6.337   6.452   4.409 -0.1423  0.2178 -0.1491
 4450W        W 6600  23.080   7.097   4.417  0.2986 -0.0932  0.0171
 4451W        W 6601  14.861   3.813  28.704  0.0195  0.0466 -0.0382
 4452W        W 6602   6.055   2.901  29.141 -0.2133  0.0721 -0.2280
 4453W        W 6603  18.119   6.707  10.324  0.0829  0.0169  0.0310
 4454W        W 6604  15.835   4.929  21.692  0.2709 -0.4176  0.3566
 4455W        W 6605   7.459   1.936  12.806 -0.1665  0.2191  0.0089
 4456W        W 6606   2.040   4.214  32.555 -0.1771  0.0647 -0.0254
 4457W        W 6607   7.513   3.078   7.428 -0.2348 -0.5276  0.2065
 4458W        W 6608  10.309   7.468  31.891  0.2133 -0.0831  0.0415
 4459W        W 6609  13.673   0.982   9.946  0.3062 -0.2218  0.1291
 4460W        W 6610   6.837   3.822  27.861  0.2355  0.3023 -0.1562
 4461W        W 6611  18.824   2.678  22.153 -0.0907  0.2859  0.1473
 4462W        W 6612  14.049   7.562   1.811 -0.0005  0.0684 -0.1177
 4463W        W 6613  16.065   1.092  30.881  0.1465 -0.2609 -0.2177
 4464W        W 6614  11.730   5.009  21.055  0.1569  0.1532  0.0287
 4465W        W 6615  15.379   6.638   3.196 -0.1696  0.4604 -0.1801
 4466W        W 6616   1.275   6.168  25.345 -0.2646 -0.1614  0.2419
 4467W        W 6617   5.904   0.854  31.497 -0.1395  0.2108  0.0662
 4468W        W 6618   3.947   3.028   7.959  0.0445 -0.1606  0.0563
 4469W        W 6619   2.705   7.595  11.766 -0.0762 -0.1046 -0.0934
 4470W        W 6620   8.916   5.436   2.329  0.3073 -0.1183  0.0642
 4471W        W 6621   5.855   1.241  31.205  0.1846 -0.1471  0.1603
 4472W        W 6622  17.915   2.770  30.352  0.2486  0.0294  0.0810
 4473W        W 6623   2.025   1.284   8.656 -0.0135  0.1235 -0.2239
 4474W        W 6624  10.590   0.561  29.771 -0.0292  0.0183 -0.1003
 4475W        W 6625   3.688   6.489  24.929  0.0253 -0.0108 -0.1560
 4476W        W 6626   2.191   1.253  30.665  0.0722 -0.0165 -0.0902
 4477W        W 6627  17.578   6.381  18.112 -0.0797  0.1125  0.1024
 4478W        W 6628   5.111   3.699  10.896  0.1073 -0.1740 -0.3339
 4479W        W 6629   3.455   5.866  11.123 -0.1355 -0.1124 -0.1265
 4480W        W 6630  17.681   2.497   5.926  0.4864 -0.0326  0.3410
 4481W        W 6631   1.187   3.603  16.405  0.2424 -0.3430  0.2430
 4482W        W 6632  22.081   0.836   2.332  0.1030 -0.1458  0.0656
 4483W        W 6633  12.548   6.448  29.629 -0.1936  0.0867  0.2135
 4484W        W 6634  20.510   0.604  10.557 -0.0742 -0.1384  0.1934
 4485W        W 6635  13.396   3.414   2.641 -0.0574 -0.1005 -0.0594
 4486W        W 6636  11.197   3.163   8.882  0.0060  0.2606  0.0900
 4487W        W 6637  17.488   5.794   2.959  0.1897 -0.1956 -0.0027
 4488W        W 6638  14.357   4.930  21.989  0.2704 -0.0440 -0.1859
 4489W        W 6639   8.964   4.834  27.016  0.1580  0.1846 -0.1827
 4490W        W 6640  13.500   5.794  31.974  0.0331 -0.1186  0.2468
 4491W        W 6641   4.479   5.455   8.650  0.1065  0.0128  0.1952
 4492W        W 6642  17.027   4.263   3.840  0.2859  0.0102  0.0017
 4493W        W 6643  23.557   3.119  13.990 -0.0127  0.0432  0.0765
 4494W        W 6644  23.286   7.311  25.178 -0.0508  0.2810 -0.0955
 4495W        W 6645  23.196   1.600  14.607 -0.0654 -0.5456 -0.2031
 4496W        W 6646   1.343   2.483   0.859  0.0103 -0.0368  0.0627
 4497W        W 6647  11.157   1.760   8.959 -0.1123 -0.0739  0.0311
 4498W        W 6648   3.496   4.040  18.382 -0.1472  0.0049 -0.2067
 4499W        W 6649   6.691   2.288   5.582  0.3780  0.4555 -0.3183
 4500W        W 6650  17.751   4.978  20.397 -0.0969  0.0336 -0.3678
 4501W        W 6651  20.601   1.820   4.845 -0.3049  0.2673 -0.1233
 4502W        W 6652  23.228   3.647  32.908 -0.0907 -0.1387  0.2900
 4503W        W 6653  11.913   5.345   7.423  0.1684 -0.1268  0.0429
 4504W        W 6654  17.511   4.669   0.115 -0.1290  0.3179  0.0839
 4505W        W 6655  21.911   5.327  20.075  0.3888  0.4066 -0.0901
 4506W        W 6656   4.118   5.269  25.508  0.2205 -0.4472  0.0494
 4507W        W 6657  22.576   7.235  32.548  0.1681 -0.0532 -0.4691
 4508W        W 6658  18.896   3.677  30.109  0.0834  0.0685 -0.0290
 4509W        W 6659  16.496   1.378  32.283 -0.2505 -0.2131 -0.1023
 4510W        W 6660  16.044   4.540   9.301 -0.0778 -0.0112  0.0375
 4511W        W 6661   7.083   4.770  14.508  0.0884 -0.5259  0.0560
 4512W        W 6662   2.587   2.675  29.750 -0.2454 -0.1354 -0.0272
 4513W        W 6663   9.217   6.306   2.971 -0.0473  0.0878  0.0332
 4514W        W 6664  11.854   2.101   8.490  0.0311 -0.1928 -0.0304
 4515W        W 6665  10.570   0.036  20.774 -0.1160  0.1633  0.0565
 4516W        W 6666   4.059   5.478   6.524  0.1103  0.2739  0.4088
 4517W        W 6667   2.764   1.226  10.168  0.0018  0.1578  0.0859
 4518W        W 6668   6.460   2.871  12.705 -0.1484 -0.1778  0.2862
 4519W        W 6669  14.295   7.754   9.389 -0.1955 -0.2485 -0.1256
 4520W        W 6670  19.957   7.496  10.024 -0.0066  0.1539 -0.0529
 4521W        W 6671  24.354   6.403  29.307  0.1394 -0.0542 -0.0356
 4522W        W 6672   3.964   4.465  29.059 -0.0064  0.0536  0.0487
 4523W        W 6673  14.976   0.014  29.205  0.1941 -0.2130 -0.0544
 4524W        W 6674  22.821   2.018  29.838  0.1287 -0.1754 -0.0080
 4525W        W 6675  20.791   1.266  11.161 -0.0400 -0.0594 -0.0467
 4526W        W 6676  12.273   0.392  17.550  0.0773 -0.3841  0.1451
 4527W        W 6677   9.032   2.048  11.735  0.0512  0.2147  0.0988
 4528W        W 6678  24.858   5.259  28.167 -0.0678  0.0236 -0.2340
 4529W        W 6679  14.112   2.379   0.683 -0.2378  0.3491 -0.1179
 4530W        W 6680   7.756   2.605  28.247 -0.0896  0.0488 -0.0584
 4531W        W 6681  23.549   7.255   8.648 -0.0642 -0.2964  0.0373
 4532W        W 6682  15.511   0.577   0.060 -0.0288 -0.2458  0.3049
 4533W        W 6683   6.357   7.596   7.301  0.0668 -0.0167  0.0218
 4534W        W 6684   4.440   5.934   6.476  0.0711  0.0252 -0.1826
 4535W        W 6685  22.204   3.779  29.072  0.1617 -0.0976 -0.5352
 4536W        W 6686   9.180   5.307  12.316 -0.0924 -0.1113  0.3260
 4537W        W 6687  23.258   2.509   6.424  0.0593  0.0325  0.1171
 4538W        W 6688  16.241   3.089  14.217  0.0779  0.2165  0.0688
 4539W        W 6689   6.583   5.749  15.806  0.1086 -0.2109 -0.1765
 4540W        W 6690  19.061   2.697   3.900 -0.1433 -0.1794 -0.1897
 4541W        W 6691  13.312   1.994  26.648  0.0687 -0.0235  0.2062
 4542W        W 6692  22.607   1.197   1.949  0.0384  0.0997 -0.4254
 4543W        W 6693  12.567   0.125  27.428 -0.1722 -0.0911  0.1495
 4544W        W 6694   7.035   5.266   5.691 -0.0575 -0.0745  0.2564
 4545W        W 6695  24.049   1.198   9.252 -0.0839 -0.1428 -0.1709
 4546W        W 6696   7.303   6.862   5.187  0.1360  0.0190  0.3082
 4547W        W 6697   8.985   3.526  23.875  0.3600  0.1484 -0.1271
 4548W        W 6698  23.279   0.581  23.194  0.0122  0.1833  0.1910
 4549W        W 6699  22.504   0.309   1.750 -0.0185  0.0920 -0.2532
 4550W        W 6700  24.319   7.212   2.244  0.0619 -0.0404  0.2552
 4551W        W 6701   6.111   3.311   8.884  0.4740 -0.0905  0.0754
 4552W        W 6702   8.577   4.413   6.384  0.0851  0.0537  0.0576
 4553W        W 6703   5.004   1.189   9.082 -0.0014  0.1425 -0.0146
 4554W        W 6704   1.558   4.493  23.662 -0.4225 -0.2101 -0.0228
 4555W        W 6705  17.318   6.857   6.313  0.2597 -0.2228  0.2336
 4556W        W 6706   2.427   2.131   3.082 -0.0602  0.0520  0.0019
 4557W        W 6707  13.620   6.640  22.976  0.1137 -0.0100 -0.1114
 4558W        W 6708   0.258   3.234   5.846  0.0856  0.2512  0.1129
 4559W        W 6709   0.764   6.802  31.007 -0.1293  0.1021 -0.2176
 4560W        W 6710  10.315   6.560   6.674  0.0115  0.1075 -0.0012
 4561W        W 6711   7.138   3.298  25.463  0.3808 -0.0623  0.0536
 4562W        W 6712   9.202   6.932  31.425  0.0766 -0.3364  0.1226
 4563W        W 6713   9.622   3.993   4.276  0.5611  0.1026  0.1292
 4564W        W 6714  23.341   1.879  31.036 -0.1062 -0.0465 -0.2667
 4565W        W 6715   1.335   6.801   8.282  0.0082 -0.1996 -0.0774
 4566W        W 6716  17.198   0.175  31.207  0.0320  0.2300 -0.0136
 4567W        W 6717  14.744   3.625  21.783  0.0946 -0.1104  0.1798
 4568W        W 6718   2.637   6.341  28.836  0.3447 -0.2689 -0.1784
 4569W        W 6719   5.260   6.057  32.001  0.0898 -0.1399  0.1419
 4570W        W 6720   2.041   3.787   2.582  0.1522 -0.1626  0.0010
 4571W        W 6721   3.833   5.711  24.688 -0.2552 -0.1493 -0.1038
 4572W        W 6722   8.250   3.990   2.581 -0.2846  0.2954  0.0460
 4573W        W 6723   6.185   6.934  13.241  0.0322  0.0123 -0.0146
 4574W        W 6724  16.621   1.708  25.427  0.1000 -0.0743 -0.1604
 4575W        W 6725  17.711   1.498  21.039  0.1770  0.2147 -0.0787
 4576W        W 6726  21.821   1.828   8.591 -0.0413 -0.0438 -0.2671
 4577W        W 6727  12.610   0.468  21.108 -0.0247  0.1429 -0.0265
 4578W        W 6728  21.036   1.846   6.818 -0.1342  0.3321  0.1167
 4579W        W 6729  14.820   5.461  28.764  0.0235  0.4288  0.1120
 4580W        W 6730  16.070   6.906  30.325  0.0062 -0.1435 -0.1329
 4581W        W 6731   7.236   6.089   1.982 -0.1826 -0.0957 -0.2662
 4582W        W 6732  10.562   7.127  20.132 -0.2243 -0.0552 -0.0496
 4583W        W 6733   9.957   3.192   5.543 -0.0841  0.1192 -0.1557
 4584W        W 6734  22.383   3.522  24.495 -0.1213 -0.2740 -0.1969
 4585W        W 6735   5.562   0.721  25.492  0.1704  0.1040  0.5261
 4586W        W 6736  21.459   7.234  22.099  0.0175 -0.2593 -0.1176
 4587W        W 6737  11.678   3.621  28.755 -0.1860 -0.0269  0.2093
 4588W        W 6738   6.415   6.108  12.582 -0.0285 -0.1366  0.1587
 4589W        W 6739  24.633   7.131  28.866 -0.0773  0.0787 -0.1498
 4590W        W 6740   2.924   6.625  26.253  0.2247 -0.1824 -0.0942
 4591W        W 6741  10.249   0.232  10.946  0.0280  0.0140 -0.2176
 4592W        W 6742  22.817   5.761   4.768  0.0030 -0.2006  0.0174
 4593W        W 6743  21.976   7.082  27.620 -0.0168  0.1384 -0.5279
 4594W        W 6744   7.592   0.093   5.071  0.2814 -0.3134  0.1123
 4595W        W 6745  12.053   6.478  30.907 -0.0038  0.2002 -0.1540
 4596W        W 6746  16.795   7.501  15.056  0.0165  0.2109 -0.2245
 4597W        W 6747   1.208   1.960  27.596  0.0354  0.0909  0.1399
 4598W        W 6748  23.193   2.697  32.134 -0.1157 -0.0376  0.0315
 4599W        W 6749  23.169   3.266   6.837  0.3180 -0.2302 -0.0068
 4600W        W 6750  15.990   1.555   3.376  0.0257  0.2379  0.1250
 4601W        W 6751   6.775   7.570  12.066 -0.1601 -0.0350  0.2683
 4602W        W 6752   5.378   6.613  14.067  0.1376 -0.0299  0.1262
 4603W        W 6753  16.904   2.321   5.348 -0.0076 -0.0831  0.2388
 4604W        W 6754  22.942   0.040  20.154 -0.0021 -0.4879 -0.1912
 4605W        W 6755  23.377   5.744  31.172  0.2105 -0.1347  0.2717
 4606W        W 6756  24.957   7.623  12.836 -0.0094 -0.0863 -0.1160
 4607W        W 6757   9.805   1.296   9.421  0.0070 -0.0318 -0.0609
 4608W        W 6758  15.986   4.839   6.532  0.0527  0.2545 -0.0067
 4609W        W 6759   0.988   6.897  31.891  0.1684  0.1627  0.2827
 4610W        W 6760   7.990   0.423   9.713 -0.0750 -0.0609  0.4285
 4611W        W 6761  20.347   0.727   9.031  0.0468 -0.2071  0.1079
 4612W        W 6762   6.376   1.329   8.456 -0.0257 -0.2438  0.2609
 4613W        W 6763  20.711   5.931  24.624 -0.1962 -0.2520 -0.3182
 4614W        W 6764  19.679   0.708   2.914  0.1920 -0.0119  0.1148
 4615W        W 6765   8.522   5.550  14.588 -0.2879  0.0681 -0.0942
 4616W        W 6766  24.682   0.731  10.943 -0.0261  0.2528 -0.3025
 4617W        W 6767   2.973   2.690  27.326  0.1696 -0.1253  0.2471
 4618W        W 6768  16.362   4.890  17.703  0.0458 -0.1673  0.2334
 4619W        W 6769   4.358   5.425   1.389 -0.1102 -0.0072  0.2165
 4620W        W 6770  11.897   3.165   2.663  0.0338 -0.4764 -0.2536
 4621W        W 6771  24.782   4.418  21.213 -0.1612  0.0312 -0.0765
 4622W        W 6772  14.633   1.388  25.384  0.1925 -0.1018  0.1996
 4623W        W 6773   4.115   1.641  16.581  0.2713 -0.3421 -0.1146
 4624W        W 6774  20.954   0.132  30.887  0.1210  0.2791 -0.1935
 4625W        W 6775   5.473   2.684   5.453 -0.0374  0.0301 -0.1568
 4626W        W 6776   6.034   2.757   0.536 -0.0837  0.1308  0.0941
 4627W        W 6777   9.314   0.111  28.165 -0.1226  0.1381  0.2136
 4628W        W 6778   9.052   3.519  25.761 -0.3365  0.1311  0.1872
 4629W        W 6779   2.850   0.818  13.196 -0.2425 -0.1689 -0.0308
 4630W        W 6780  23.423   4.371  12.343 -0.0065  0.3607  0.0716
 4631W        W 6781  17.329   2.393  29.081 -0.1494 -0.0597 -0.1764
 4632W        W 6782  21.664   5.980  19.559  0.0868  0.1084 -0.0371
 4633W        W 6783  23.577   5.906  12.477  0.1929 -0.1335  0.1960
 4634W        W 6784  11.577   3.937  30.217  0.0058 -0.1136  0.3574
 4635W        W 6785   7.078   7.310  17.377 -0.2790 -0.2289  0.1401
 4636W        W 6786  24.462   7.600   4.515  0.0856  0.1543  0.1610
 4637W        W 6787  16.583   5.487  14.695 -0.2152 -0.2349  0.0857
 4638W        W 6788   7.319   3.316   6.934  0.2854  0.0072  0.1602
 4639W        W 6789  14.656   3.095  21.680  0.0187  0.0062  0.0602
 4640W        W 6790  19.938   0.941  25.095 -0.0984  0.3164  0.1379
 4641W        W 6791  17.839   1.584  29.143  0.3604 -0.0457 -0.0723
 4642W        W 6792  18.425   4.622  26.769  0.1478 -0.1788 -0.4141
 4643W        W 6793  16.851   5.264  16.483 -0.1192 -0.0444  0.1129
 4644W        W 6794  14.178   6.969  24.476 -0.1756 -0.0880  0.0166
 4645W        W 6795   8.272   2.217   7.154 -0.1182 -0.2166  0.2344
 4646W        W 6796  15.222   1.823  32.803 -0.2451  0.0229 -0.4581
 4647W        W 6797  13.553   6.987  19.674  0.1201  0.1577  0.0122
 4648W        W 6798  21.021   6.774   7.878  0.2050  0.1229  0.0958
 4649W        W 6799  24.706   4.662  28.616  0.0425  0.0742  0.1051
 4650W        W 6800   4.905   4.367   3.873  0.1106  0.0738 -0.0784
 4651W        W 6801   9.643   3.788  21.959 -0.0675 -0.4497  0.0348
 4652W        W 6802  16.082   7.090  28.714 -0.2076  0.3342  0.1014
 4653W        W 6803   3.281   5.610  31.085  0.1725 -0.2452  0.1278
 4654W        W 6804  11.903   3.068  24.253 -0.0898  0.1122  0.1121
 4655W        W 6805   2.514   4.541  10.021 -0.1710  0.2248  0.1097
 4656W        W 6806   9.931   1.346  25.152 -0.1227 -0.2215  0.0922
 4657W        W 6807  16.537   7.031  28.851 -0.0173 -0.0728  0.0355
 4658W        W 6808   1.802   6.668  23.104  0.1277  0.1468  0.1738
 4659W        W 6809   5.428   5.005   4.271  0.2794  0.0724 -0.3022
 4660W        W 6810   8.052   1.257   8.514 -0.1489  0.1284 -0.2331
 4661W        W 6811  17.593   2.060   8.874 -0.0876  0.1624  0.1032
 4662W        W 6812   5.374   5.569  17.683  0.3467 -0.0603  0.1057
 4663W        W 6813  24.678   4.037   2.126 -0.1513  0.2934  0.1153
 4664W        W 6814  13.467   0.978  32.913 -0.2435 -0.1228  0.1202
 4665W        W 6815  15.125   1.280  16.188 -0.0044 -0.1304 -0.1552
 4666W        W 6816  23.827   1.344  22.890  0.0209  0.0387 -0.3258
 4667W        W 6817   1.274   7.296  12.300  0.0993  0.1897  0.0677
 4668W        W 6818   3.171   0.277   6.745  0.2449  0.1291 -0.1493
 4669W        W 6819  19.424   5.172   7.869 -0.0636 -0.0728 -0.5065
 4670W        W 6820   2.422   0.115  18.062 -0.2475  0.1383 -0.2778
 4671W        W 6821   9.215   1.616   4.531  0.3202  0.1207  0.1321
 4672W        W 6822  24.301   4.032  30.139 -0.0204 -0.0003 -0.0201
 4673W        W 6823  23.997   0.967   0.805 -0.0554  0.0011  0.1126
 4674W        W 6824   4.452   4.625   7.336 -0.2290  0.2593  0.0846
 4675W        W 6825  14.439   4.117  28.332 -0.2267  0.0657 -0.3073
 4676W        W 6826   8.640   6.106  23.603 -0.0247 -0.0620  0.0397
 4677W        W 6827   7.759   6.341  13.305  0.2691  0.1531 -0.0213
 4678W        W 6828   8.058   1.016  24.396  0.0084 -0.1334  0.1906
 4679W        W 6829   2.428   0.682  24.351 -0.2017  0.0553 -0.3444
 4680W        W 6830  22.692   3.047  23.851  0.1998  0.2277 -0.1017
 4681W        W 6831  12.039   6.924   4.375 -0.1182  0.1621  0.0948
 4682W        W 6832  12.206   7.224   8.303  0.1358  0.0301  0.0564
 4683W        W 6833  10.234   4.839  21.337  0.2046 -0.2050  0.4019
 4684W        W 6834  12.441   3.765  27.808 -0.0300 -0.2105  0.3276
 4685W        W 6835  13.487   5.090   9.743 -0.0535  0.0599 -0.1165
 4686W        W 6836   4.883   4.373  26.889 -0.1522  0.0376  0.0621
 4687W        W 6837  24.680   7.579   2.285 -0.0615 -0.1731 -0.0377
 4688W        W 6838  19.893   3.251   9.195 -0.0869 -0.0827  0.0526
 4689W        W 6839  22.232   3.652  13.244  0.0851  0.0186 -0.0034
 4690W        W 6840  22.257   2.799  25.371  0.0529  0.0705  0.0840
 4691W        W 6841   7.064   2.874  14.085 -0.2370  0.1246 -0.0015
 4692W        W 6842  21.640   2.772  11.935  0.0760  0.0754 -0.0721
 4693W        W 6843   7.913   6.717  22.742 -0.0740 -0.3251 -0.2095
 4694W        W 6844  19.489   3.877  20.011 -0.0595  0.4335 -0.5163
 4695W        W 6845  13.212   6.408  19.720 -0.2387  0.2110 -0.0007
 4696W        W 6846   4.715   5.805   9.621 -0.0680  0.0463  0.1737
 4697W        W 6847   6.217   5.541  28.793  0.0845 -0.3173  0.3490
 4698W        W 6848   8.956   0.282  10.702 -0.1938 -0.0796  0.1126
 4699W        W 6849   1.969   4.827  16.352 -0.1059  0.3173  0.1054
 4700W        W 6850  21.369   2.499  32.358 -0.0709  0.0862 -0.2121
 4701W        W 6851  21.692   7.406  30.050  0.1447 -0.0872  0.2204
 4702W        W 6852  13.134   3.040   0.292  0.1501  0.1347 -0.0757
 4703W        W 6853  19.068   2.635  16.090  0.2976 -0.1029 -0.0015
 4704W        W 6854   0.653   0.131  31.315 -0.0352 -0.0393  0.2292
 4705W        W 6855  13.615   5.359   1.718  0.0481 -0.2600  0.0536
 4706W        W 6856   0.806   6.844  29.388  0.0645  0.1919  0.0363
 4707W        W 6857   3.478   5.867  30.231  0.0843 -0.1279  0.0718
 4708W        W 6858   3.329   5.866   1.360  0.2848 -0.0196  0.1258
 4709W        W 6859  17.812   3.291  24.044 -0.0613  0.0240 -0.1447
 4710W        W 6860  15.187   1.828  24.363  0.1556  0.0266  0.0228
 4711W        W 6861   4.889   6.676  25.174  0.0385  0.0864  0.0633
 4712W        W 6862   4.036   4.893   1.706 -0.1658 -0.1282  0.1824
 4713W        W 6863  19.900   7.303  21.360 -0.2353 -0.2105  0.2271
 4714W        W 6864   3.815   5.296   1.992  0.0533  0.2655  0.2002
 4715W        W 6865  14.447   3.771  16.489 -0.1198  0.0842 -0.1948
 4716W        W 6866   8.020   2.955   0.991 -0.0341 -0.0714 -0.2712
 4717W        W 6867  16.405   4.911  10.369  0.0539 -0.1581  0.0801
 4718W        W 6868  15.977   0.557  25.446 -0.1615 -0.0142 -0.0323
 4719W        W 6869  12.009   2.827  30.900  0.1792 -0.0740 -0.0026
 4720W        W 6870  13.170   5.914  21.975  0.1947 -0.5262 -0.1104
 4721W        W 6871  15.777   4.282  18.306  0.0115  0.1647 -0.1217
 4722W        W 6872   4.363   2.879  32.051 -0.0594  0.1634  0.3530
 4723W        W 6873  20.178   3.622   3.087 -0.3578  0.0739  0.1113
 4724W        W 6874   4.002   7.051  29.422  0.0339  0.0868  0.0999
 4725W        W 6875  10.150   6.083   8.310  0.0350 -0.2790 -0.0465
 4726W        W 6876   8.289   7.457  32.610 -0.4415 -0.0003  0.1901
 4727W        W 6877  10.736   4.391  30.342  0.2457 -0.0141  0.4210
 4728W        W 6878   8.601   0.620   1.410 -0.0332 -0.0165  0.0643
 4729W        W 6879   5.776   1.802   8.946 -0.2821 -0.2794 -0.1608
 4730W        W 6880  24.899   2.137  13.404 -0.1146 -0.0807 -0.0289
 4731W        W 6881  17.387   6.531  15.864  0.1496  0.1038  0.0251
 4732W        W 6882  16.525   1.096  22.979 -0.1850 -0.0731 -0.2920
 4733W        W 6883  22.915   6.551  24.319  0.1309  0.0417 -0.0382
 4734W        W 6884   7.271   5.248   1.086 -0.0673  0.0469  0.1125
 4735W        W 6885  23.226   3.429  13.259  0.1680  0.0627  0.0816
 4736W        W 6886  24.251   7.501  15.220  0.0014  0.2151 -0.2008
 4737W        W 6887   3.411   7.560  13.801 -0.1073 -0.0513 -0.1577
 4738W        W 6888  14.937   5.873  19.506 -0.0668 -0.0792 -0.0655
 4739W        W 6889  23.153   7.031  30.024  0.2850  0.3357 -0.2184
 4740W        W 6890  23.093   6.201   1.152  0.2149  0.1420 -0.1846
 4741W        W 6891  22.528   2.236  11.303  0.0535 -0.3945  0.1924
 4742W        W 6892   7.874   1.802   9.256  0.2255  0.1993 -0.0049
 4743W        W 6893  11.101   6.976   2.034  0.0890 -0.0832 -0.2235
 4744W        W 6894  10.435   1.441  31.801  0.1530 -0.2777 -0.0863
 4745W        W 6895  14.202   7.208  30.285 -0.1531 -0.0401  0.1798
 4746W        W 6896  15.171   6.633  22.283 -0.0458 -0.0929  0.1655
 4747W        W 6897  10.041   0.298   7.503  0.0580 -0.2355 -0.1001
 4748W        W 6898  13.155   6.070  25.378  0.0511  0.1128 -0.2914
 4749W        W 6899   4.585   0.160   8.529 -0.0719  0.0961 -0.2448
 4750W        W 6900  23.005   0.736  24.332 -0.1738  0.0603 -0.2428
 4751W        W 6901  14.205   2.810  10.271 -0.0915  0.2225  0.0991
 4752W        W 6902  12.417   5.186  10.875 -0.2165 -0.0946 -0.1432
 4753W        W 6903   3.116   1.389  31.903 -0.2566  0.1690  0.0329
 4754W        W 6904   4.354   3.814  31.107  0.2615  0.0155 -0.0871
 4755W        W 6905  14.824   1.205  31.850 -0.1516 -0.1880  0.0190
 4756W        W 6906  12.469   4.188   3.727 -0.2494  0.1698  0.0160
 4757W        W 6907  12.463   4.771  26.006 -0.0310  0.0516  0.0786
 4758W        W 6908   7.759   0.407  25.087  0.1431  0.0304  0.1511
 4759W        W 6909  13.270   0.949  27.329  0.0445  0.0269  0.0770
 4760W        W 6910  13.079   1.945  22.666 -0.2237  0.0275 -0.0336
 4761W        W 6911   4.817   5.576  11.585 -0.0540 -0.0272 -0.0539
 4762W        W 6912  13.512   4.248  26.883  0.0896  0.1404  0.0430
 4763W        W 6913   4.479   2.961  22.096 -0.3792 -0.1467 -0.2718
 4764W        W 6914   9.344   3.002  32.809  0.0870 -0.0991 -0.2305
 4765W        W 6915   7.126   0.332  25.298  0.0061 -0.0480 -0.2978
 4766W        W 6916  13.184   3.755  16.467  0.0316 -0.0370 -0.0389
 4767W        W 6917  12.832   1.271  25.454  0.0319 -0.1588 -0.3744
 4768W        W 6918   2.908   4.825  33.033  0.0240  0.2260 -0.0638
 4769W        W 6919   0.435   0.112   1.948 -0.1078  0.1889 -0.1675
 4770W        W 6920   9.531   6.587  30.540 -0.1517 -0.2346  0.2000
 4771W        W 6921   1.571   1.132  24.489 -0.1543  0.2564 -0.3935
 4772W        W 6922  18.957   7.467  22.443  0.3861  0.2329  0.3181
 4773W        W 6923  24.867   1.392  32.528  0.1213 -0.0280  0.0234
 4774W        W 6924  10.116   7.396  22.574  0.0001 -0.2764 -0.1835
 4775W        W 6925   2.650   4.483  32.750 -0.1173 -0.0259  0.0999
 4776W        W 6926   7.871   5.422   6.649 -0.2350  0.0621  0.0034
 4777W        W 6927  12.313   2.936  32.389 -0.0635  0.5041  0.2319
 4778W        W 6928   7.902   3.335  13.881 -0.0756  0.0071  0.3047
 4779W        W 6929   5.479   1.937   0.717  0.0796  0.0226  0.4155
 4780W        W 6930   5.959   0.290  12.361  0.1528  0.0706  0.3125
 4781W        W 6931  24.676   0.075   0.993  0.2465 -0.1246 -0.1368
 4782W        W 6932  12.020   7.534  20.592  0.1486 -0.0193 -0.0401
 4783W        W 6933  23.018   1.077   6.663 -0.0287 -0.0925  0.0047
 4784W        W 6934  18.220   1.359  15.199  0.1500 -0.3224 -0.0068
 4785W        W 6935   4.717   5.245  15.578  0.3879 -0.0537  0.1716
 4786W        W 6936   3.712   2.643   5.595  0.1709  0.2711  0.0556
 4787W        W 6937   5.616   0.708  28.835 -0.0840  0.0020  0.0826
 4788W        W 6938   1.948   7.717  11.112 -0.2837  0.1019 -0.1952
 4789W        W 6939   9.633   3.344  29.704  0.1506 -0.0574  0.3822
 4790W        W 6940  23.062   4.135   8.814 -0.1792 -0.0979  0.0609
 4791W        W 6941  21.305   7.377  14.012 -0.3945  0.1631  0.0347
 4792W        W 6942  21.443   3.906  21.357  0.0014 -0.1371  0.0521
 4793W        W 6943  21.181   4.952  23.861 -0.3561  0.3013 -0.2426
 4794W        W 6944  22.165   6.048  21.322 -0.0312 -0.0896  0.0099
 4795W        W 6945  13.716   3.827  27.589  0.0371  0.0729  0.2452
 4796W        W 6946   0.651   4.599  11.204  0.2196  0.2149  0.0682
 4797W        W 6947   9.577   2.050   1.741 -0.0588  0.1056  0.0947
 4798W        W 6948   1.155   3.223  30.605 -0.4038  0.4084  0.3626
 4799W        W 6949  13.223   4.444   4.896 -0.0218  0.1422  0.0216
 4800W        W 6950   8.554   5.347   4.949  0.1744  0.0257 -0.0967
 4801W        W 6951  23.435   5.689  26.268 -0.1607 -0.1035 -0.1351
 4802W        W 6952   4.173   7.668   4.323 -0.0984  0.1644 -0.2434
 4803W        W 6953   6.735   6.719   6.487 -0.1811 -0.0448 -0.0944
 4804W        W 6954  19.326   7.791  25.057  0.0713 -0.0429  0.2948
 4805W        W 6955  22.502   0.962   5.320  0.0446  0.0551 -0.1793
 4806W        W 6956  11.562   1.210   3.594  0.0635 -0.2835  0.0825
 4807W        W 6957  18.446   5.314   5.752  0.0110  0.1265  0.2460
 4808W        W 6958  19.686   4.080  21.159  0.0343 -0.2221 -0.2373
 4809W        W 6959   1.083   4.164  24.327 -0.3477 -0.3076  0.0537
 4810W        W 6960  13.798   0.754  27.006  0.2820  0.0577  0.1465
 4811W        W 6961   8.877   0.080   0.543  0.1308 -0.0930 -0.0574
 4812W        W 6962   1.708   1.583  11.784 -0.2299 -0.1339  0.1527
 4813W        W 6963   6.257   0.746  13.712 -0.0045 -0.0005 -0.5860
 4814W        W 6964   8.969   4.924   8.211  0.2002  0.2173  0.0068
 4815W        W 6965  17.421   4.705   8.073  0.0791 -0.0369 -0.0661
 4816W        W 6966  16.106   4.867  24.146 -0.3119 -0.3377  0.2435
 4817W        W 6967  20.314   1.608   1.035 -0.3419 -0.0064  0.1645
 4818W        W 6968  12.586   3.569   8.891  0.0797  0.0159  0.0919
 4819W        W 6969   1.253   3.315  21.826  0.2785  0.0640  0.1747
 4820W        W 6970   9.502   6.706   5.701 -0.0084 -0.1436 -0.0824
 4821W        W 6971  10.317   1.948  12.906 -0.0455 -0.0136  0.2102
 4822W        W 6972  13.292   4.079  20.431  0.0346  0.0846 -0.0361
 4823W        W 6973  19.759   1.923   1.985 -0.0761  0.1300 -0.4774
 4824W        W 6974  16.913   1.428  31.352 -0.0324 -0.0988  0.1773
 4825W        W 6975   5.525   6.000  16.826 -0.0011  0.1929  0.1858
 4826W        W 6976   0.761   1.182  27.172  0.0940 -0.2815  0.1285
 4827W        W 6977  18.365   5.064   6.190  0.1467  0.0217  0.1977
 4828W        W 6978  24.715   7.568  29.974 -0.3118 -0.1195  0.0105
 4829W        W 6979   0.814   5.635   5.169 -0.0940 -0.0270  0.1319
 4830W        W 6980  13.590   6.211  18.125  0.2105 -0.1110  0.2507
 4831W        W 6981   4.053   5.959  13.124 -0.0305 -0.0910 -0.0464
 4832W        W 6982   7.305   1.884  12.287  0.0470  0.0890 -0.2471
 4833W        W 6983  14.797   1.600   8.636 -0.0235 -0.1847  0.2576
 4834W        W 6984  15.895   2.296  24.015 -0.4762 -0.0312  0.1780
 4835W        W 6985  23.334   1.113  31.005  0.0231  0.1107 -0.2119
 4836W        W 6986   2.676   4.958  29.993  0.2923  0.0367  0.3668
 4837W        W 6987  20.109   3.219  22.509  0.0538 -0.0447 -0.1215
 4838W        W 6988  16.013   6.422   6.937 -0.3278 -0.1510 -0.1252
 4839W        W 6989   1.686   7.712  32.837 -0.1468 -0.1227  0.0072
 4840W        W 6990  22.534   1.540   9.671  0.2075  0.0988  0.0219
 4841W        W 6991   2.508   5.778   4.141 -0.2242  0.0498  0.1846
 4842W        W 6992  19.406   6.086  18.371 -0.2661  0.1111 -0.1341
 4843W        W 6993  13.702   4.346  32.367 -0.0428  0.4148 -0.1612
 4844W        W 6994   8.002   2.830  30.041  0.1122 -0.2984  0.4017
 4845W        W 6995  20.866   7.064   9.766  0.0710 -0.1172  0.1514
 4846W        W 6996  18.845   3.156  29.947  0.1044 -0.0220 -0.0256
 4847W        W 6997  11.115   4.064  20.412 -0.1362 -0.2343 -0.0840
 4848W        W 6998   1.607   2.985  10.556  0.1677 -0.0026  0.1015
 4849W        W 6999  18.984   4.412  27.760 -0.0953  0.0733 -0.0309
 4850W        W 7000   1.977   7.020  23.993 -0.4771 -0.1491 -0.0560
 4851W        W 7001  23.422   1.722  25.353  0.1974  0.1376  0.1930
 4852W        W 7002  24.821   3.663  25.605 -0.0132  0.1102  0.1669
 4853W        W 7003   7.386   4.965  17.322  0.0823 -0.0945  0.0711
 4854W        W 7004  16.919   6.958  27.299  0.2077  0.3289 -0.2119
 4855W        W 7005   9.034   2.413  30.771  0.0618 -0.1559 -0.0874
 4856W        W 7006  18.583   0.574  26.980 -0.0046 -0.0434 -0.0285
 4857W        W 7007  18.179   1.020  28.530  0.0084  0.1120 -0.0304
 4858W        W 7008  22.651   1.017   7.124 -0.1874 -0.1700  0.4925
 4859W        W 7009  24.664   0.246  11.173  0.0187  0.1263  0.0115
 4860W        W 7010  11.177   2.376   8.248  0.1236  0.0661 -0.1149
 4861W        W 7011   6.895   0.038  26.710  0.0521  0.1369  0.1320
 4862W        W 7012   0.899   3.077  22.547  0.1463  0.4266 -0.0410
 4863W        W 7013  13.744   3.964   7.588  0.1953  0.3909  0.1195
 4864W        W 7014  15.443   6.173  26.492  0.2173  0.2886 -0.3394
 4865W        W 7015  21.187   1.115   8.002 -0.1648 -0.0424  0.0347
 4866W        W 7016   0.255   7.267  26.535 -0.0866 -0.2221 -0.1385
 4867W        W 7017  21.004   5.565   7.607 -0.0280 -0.1794  0.2789
 4868W        W 7018  14.914   2.678  24.369 -0.1879  0.1151 -0.0437
 4869W        W 7019  13.952   3.955  27.093  0.0532 -0.0967 -0.0011
 4870W        W 7020  17.691   0.256  31.188  0.0105 -0.1923 -0.1932
 4871W        W 7021  17.418   6.935  17.412 -0.0802  0.1948 -0.1292
 4872W        W 7022   1.420   6.541  32.845 -0.2751  0.0771 -0.1591
 4873W        W 7023  21.212   4.511   4.600 -0.1565  0.2874  0.1475
 4874W        W 7024   7.388   0.217  14.193 -0.3419  0.1098 -0.1298
 4875W        W 7025   6.652   6.909   3.894 -0.1265  0.0839  0.2636
 4876W        W 7026  14.371   6.340   7.377  0.1744 -0.1614  0.0776
 4877W        W 7027  24.733   1.737  10.242 -0.0789  0.0289  0.0333
 4878W        W 7028   0.481   5.762  21.890 -0.1965 -0.1095 -0.0427
 4879W        W 7029   7.639   2.053   9.588  0.0521 -0.1817 -0.2285
 4880W        W 7030  16.468   5.304  25.546  0.0062 -0.1316  0.1376
 4881W        W 7031  16.587   1.259  15.862 -0.1019 -0.0701  0.2282
 4882W        W 7032   3.865   0.504  11.250 -0.0245  0.3939  0.0537
 4883W        W 7033  23.028   7.345  23.086 -0.1911 -0.1916  0.3387
 4884W        W 7034  14.190   3.118  24.716  0.0035 -0.2033 -0.0486
 4885W        W 7035  23.287   7.130  25.638  0.3270  0.0340 -0.2787
 4886W        W 7036  13.180   0.693  22.011 -0.1011 -0.0907  0.0801
 4887W        W 7037  20.874   7.053   2.814  0.1293 -0.0731  0.1249
 4888W        W 7038  23.120   0.939  11.882 -0.1770  0.1702 -0.1649
 4889W        W 7039  12.221   1.114   3.801  0.0912  0.1879  0.4370
 4890W        W 7040  24.890   2.579   5.646 -0.0983  0.0736  0.3514
 4891W        W 7041  18.770   0.398  32.628 -0.0526  0.0960 -0.1424
 4892W        W 7042  18.006   0.893  32.662  0.0308 -0.0305 -0.0810
 4893W        W 7043  22.022   1.995  19.795  0.0752 -0.4484  0.2387
 4894W        W 7044   8.846   7.077   3.278  0.1499 -0.1112 -0.2347
 4895W        W 7045   7.455   1.690  29.035  0.1117  0.1483 -0.0284
 4896W        W 7046   0.256   4.869  27.946 -0.1392 -0.1872 -0.2488
 4897W        W 7047  18.189   3.715   4.867  0.1373  0.1426  0.1352
 4898W        W 7048   3.883   4.886  11.984 -0.1882 -0.1042 -0.1148
 4899W        W 7049   8.821   0.146  28.308  0.1271 -0.0320  0.0213
 4900W        W 7050   4.036   6.191   2.841 -0.1114  0.1333 -0.0765
 4901W        W 7051  13.863   6.022   1.105 -0.0943 -0.0336  0.1802
 4902W        W 7052  20.098   3.614   6.231 -0.1105  0.0326 -0.4418
 4903W        W 7053   5.050   2.107  18.951 -0.0761  0.4158 -0.0288
 4904W        W 7054   9.428   1.559  30.902 -0.0677  0.1213 -0.2856
 4905W        W 7055  18.861   2.017   6.708 -0.1068 -0.0579  0.0135
 4906W        W 7056  17.822   2.821   5.395 -0.0276  0.3104 -0.2445
 4907W        W 7057  12.114   1.669  24.918 -0.0516 -0.0582  0.0101
 4908W        W 7058   9.357   4.652   6.662  0.2264  0.1214  0.1608
 4909W        W 7059  19.413   4.896  28.879  0.0956 -0.1400  0.0181
 4910W        W 7060   7.936   4.414  22.010 -0.1605  0.2492  0.0247
 4911W        W 7061  13.039   6.852  27.534 -0.1420  0.1539 -0.1014
 4912W        W 7062  22.758   4.002  32.640  0.2113  0.0440  0.1099
 4913W        W 7063  17.475   7.300  25.478 -0.0463 -0.3293 -0.1151
 4914W        W 7064   8.715   6.211  13.053  0.1632  0.0792  0.2110
 4915W        W 7065  13.965   0.293  27.338  0.0847 -0.2560  0.1664
 4916W        W 7066   4.401   0.343   4.997 -0.1241  0.3229 -0.0653
 4917W        W 7067  15.216   2.535   8.246 -0.0215 -0.0977 -0.0099
 4918W        W 7068  13.104   4.878   4.223  0.1344 -0.1961  0.2449
 4919W        W 7069   2.320   5.974  12.176  0.1053  0.2520 -0.0734
 4920W        W 7070   6.145   0.352  11.442 -0.1567  0.1425 -0.1425
 4921W        W 7071   1.928   0.267  28.835  0.1821  0.1316 -0.3141
 4922W        W 7072   0.388   4.270  25.456  0.0905  0.2074  0.2574
 4923W        W 7073  16.912   1.822  32.235  0.1535  0.3143  0.0675
 4924W        W 7074   0.014   2.079   8.758  0.0578 -0.2065  0.1296
 4925W        W 7075   8.482   3.546  28.989 -0.1024  0.1501 -0.0533
 4926W        W 7076   8.209   3.145  25.493 -0.0874 -0.0520  0.1628
 4927W        W 7077  19.766   7.034  10.701 -0.2240  0.0010  0.0525
 4928W        W 7078  21.146   2.398  22.131  0.1068 -0.0072  0.0366
 4929W        W 7079  23.943   6.677   7.904 -0.1021 -0.2395  0.1488
 4930W        W 7080  14.810   3.964   6.110 -0.0763  0.0548 -0.2175
 4931W        W 7081   2.499   2.160   9.398  0.2002 -0.0192 -0.0495
 4932W        W 7082   8.381   4.961   4.655 -0.2510  0.1347  0.2275
 4933W        W 7083  16.089   7.731  15.925  0.0898 -0.1143  0.1597
 4934W        W 7084  16.662   4.679  29.812  0.0945  0.1485  0.2501
 4935W        W 7085  14.394   1.136  16.516 -0.1198  0.0999  0.1729
 4936W        W 7086  18.468   0.395  24.427 -0.0564 -0.1628 -0.4016
 4937W        W 7087   9.291   3.411   7.296 -0.1833 -0.2189  0.3635
 4938W        W 7088  18.965   3.132   4.178  0.2969 -0.0615  0.1150
 4939W        W 7089   8.099   1.420   7.344  0.1053 -0.3515 -0.2855
 4940W        W 7090  10.505   7.020   4.017 -0.2881 -0.3391  0.1200
 4941W        W 7091   3.477   7.519  28.379  0.1531 -0.0738  0.2091
 4942W        W 7092   0.069   0.378   0.545  0.0121  0.2202  0.0170
 4943W        W 7093  24.358   0.806  27.977  0.1485 -0.2061  0.0328
 4944W        W 7094  19.271   3.068  10.451 -0.0478 -0.0476 -0.1451
 4945W        W 7095   0.635   6.419  23.758  0.4190  0.0592 -0.3031
 4946W        W 7096  12.843   6.609   0.090 -0.1745  0.0598 -0.1057
 4947W        W 7097  18.375   7.755  32.745  0.0132  0.1822  0.0920
 4948W        W 7098  10.113   7.640  23.202 -0.0742 -0.0642 -0.0827
 4949W        W 7099  14.570   2.224  17.098 -0.0957 -0.1521 -0.0831
 4950W        W 7100   3.506   4.479   9.446  0.0118  0.2156 -0.2350
 4951W        W 7101   6.393   1.566   6.855 -0.0730  0.1031 -0.2465
 4952W        W 7102  22.811   6.495  26.077  0.1075 -0.3469 -0.1597
 4953W        W 7103  16.106   3.001  24.488  0.0835  0.1453 -0.1235
 4954W        W 7104   7.681   5.921   5.585 -0.1024  0.0018  0.4026
 4955W        W 7105  18.439   4.667  10.964  0.1151 -0.1039 -0.1889
 4956W        W 7106  19.344   5.291   9.053 -0.2596 -0.0323 -0.1418
 4957W        W 7107  21.993   6.601   9.917  0.0619  0.0906  0.1493
 4958W        W 7108  20.793   7.279  25.084  0.0597  0.0016 -0.0337
 4959W        W 7109  17.075   6.236   6.898  0.0274 -0.1651  0.2037
 4960W        W 7110  15.590   1.497  14.971 -0.0871  0.0103  0.1652
 4961W        W 7111  18.264   2.881   5.237 -0.1250 -0.0361  0.0280
 4962W        W 7112  15.646   3.252  24.231 -0.1473  0.0566 -0.0141
 4963W        W 7113  12.953   0.766   8.321 -0.0136 -0.0262  0.0727
 4964W        W 7114   0.716   6.334   9.695  0.0556  0.1870 -0.2309
 4965W        W 7115  21.239   0.443   9.282 -0.2087 -0.2160 -0.4832
 4966W        W 7116  12.168   0.212  12.568 -0.1569 -0.3373 -0.1945
 4967W        W 7117  14.603   3.405  27.534  0.1534 -0.1161 -0.3589
 4968W        W 7118  21.083   7.174   2.387  0.1476 -0.0064 -0.2560
 4969W        W 7119   7.063   2.770  24.700 -0.1981 -0.1287 -0.2226
 4970W        W 7120   6.296   6.136  32.061  0.1399 -0.2010  0.2085
 4971W        W 7121   6.349   2.378  26.130 -0.0667 -0.1749  0.0170
 4972W        W 7122  23.124   3.998  26.917 -0.3359 -0.1623  0.1228
 4973W        W 7123   8.148   4.363   8.773 -0.3140 -0.0962 -0.2875
 4974W        W 7124   7.668   7.686   0.831 -0.1835  0.1135  0.1958
 4975W        W 7125   7.823   5.810   8.121  0.0134 -0.1997 -0.1535
 4976W        W 7126  13.548   1.362   2.039  0.1300  0.1329  0.0543
 4977W        W 7127   0.646   3.402  30.037 -0.0579 -0.2136  0.3662
 4978W        W 7128  18.231   2.659  21.367 -0.3092  0.0234  0.0145
 4979W        W 7129   1.123   7.407   7.598  0.0643  0.0274  0.1700
 4980W        W 7130  17.081   5.842   7.321 -0.5052  0.1674  0.4822
 4981W        W 7131  16.386   2.448   7.484  0.3602  0.1132  0.4624
 4982W        W 7132  24.375   7.366  27.254  0.0298 -0.2078 -0.0474
 4983W        W 7133  11.991   0.522   0.334 -0.0720  0.1224 -0.1587
 4984W        W 7134   3.761   6.485   3.220  0.0875  0.3358  0.1367
 4985W        W 7135   3.963   2.909  10.925 -0.0848  0.0101  0.0357
 4986W        W 7136  14.681   7.158  15.837  0.2132 -0.3776  0.0813
 4987W        W 7137  14.831   7.305  18.076 -0.1615 -0.0676 -0.1128
 4988W        W 7138  17.501   3.624  23.759 -0.2158  0.0312 -0.3520
 4989W        W 7139  14.769   6.844  14.483 -0.1308 -0.0921  0.0275
 4990W        W 7140   4.468   7.780  13.244  0.3091 -0.1028  0.1221
 4991W        W 7141   7.560   2.882  22.219 -0.2050 -0.1162  0.3836
 4992W        W 7142  17.433   7.524   0.341 -0.0211 -0.1988 -0.0825
 4993W        W 7143   5.882   3.323  28.860 -0.1895 -0.1479 -0.3002
 4994W        W 7144  17.868   2.098  15.022 -0.0346 -0.0478 -0.0136
 4995W        W 7145  14.821   6.880   6.958 -0.2940 -0.0801 -0.1359
 4996W        W 7146   6.880   6.007  12.376 -0.1551 -0.2907 -0.2971
 4997W        W 7147  20.470   2.671   0.030 -0.1527  0.0568  0.1646
 4998W        W 7148  11.621   7.018   9.422  0.2559 -0.2047 -0.2597
 4999W        W 7149  16.616   3.008  21.383 -0.2426 -0.2384 -0.2141
 5000W        W 7150  24.552   3.510  10.978  0.1248  0.1660 -0.2676
 5001W        W 7151   8.605   1.528  26.423  0.0858  0.2139 -0.0958
 5002W        W 7152  15.222   2.177  28.519 -0.1988 -0.2204 -0.1809
 5003W        W 7153  18.628   4.247  32.042  0.3374  0.0918 -0.2278
 5004W        W 7154  23.612   4.886  30.191  0.1924 -0.2644 -0.0431
 5005W        W 7155  23.610   0.403  29.164 -0.2915  0.1178 -0.1712
 5006W        W 7156   6.892   3.818   0.454 -0.2325  0.0828 -0.1265
 5007W        W 7157  21.934   6.186  31.011 -0.0668  0.1109 -0.2972
 5008W        W 7158   8.554   7.183  10.665 -0.1095  0.2600  0.0541
 5009W        W 7159   2.964   4.843  27.982 -0.1137  0.1008  0.2369
 5010W        W 7160   8.289   3.871  32.128  0.2528 -0.2708  0.0102
 5011W        W 7161  23.984   6.193  12.467  0.1454  0.0393 -0.1116
 5012W        W 7162   9.015   6.619   7.827 -0.0789  0.1709  0.3524
 5013W        W 7163  16.568   3.859   3.045 -0.0446 -0.0386 -0.0125
 5014W        W 7164   6.839   1.825  24.846 -0.4221 -0.0502  0.0027
 5015W        W 7165  16.804   6.372   4.412  0.0511 -0.0983 -0.0137
 5016W        W 7166   8.866   1.193   9.492 -0.1113  0.3617 -0.0928
 5017W        W 7167   7.290   6.665  11.660  0.0886  0.0908  0.3804
 5018W        W 7168   5.308   7.740  25.057 -0.1525  0.0333  0.0010
 5019W        W 7169   3.733   0.196  15.418 -0.0749  0.0322 -0.1223
 5020W        W 7170  14.162   0.891  19.447 -0.1376  0.1547  0.0384
 5021W        W 7171   9.230   6.153   0.003 -0.1314 -0.2502  0.3161
 5022W        W 7172   4.911   2.895   6.054 -0.0980 -0.0860 -0.1036
 5023W        W 7173  17.086   7.050   7.615  0.2294 -0.0414 -0.0643
 5024W        W 7174  22.628   0.888   2.337  0.3746 -0.3567  0.1052
 5025W        W 7175  11.692   7.047  10.910  0.1147 -0.1926  0.0188
 5026W        W 7176  23.467   1.497  28.274 -0.0912 -0.0529  0.0802
 5027W        W 7177  19.818   7.650  31.092 -0.1874  0.2392 -0.1802
 5028W        W 7178   7.275   6.879  12.549 -0.2604  0.1043  0.2290
 5029W        W 7179  21.908   1.680   2.453  0.1428 -0.1466  0.3180
 5030W        W 7180  22.884   6.254  11.664  0.0812 -0.0121 -0.0440
 5031W        W 7181  12.887   3.779  29.737  0.5012 -0.2626  0.2363
 5032W        W 7182   6.461   2.929  31.886 -0.0249 -0.2388  0.0758
 5033W        W 7183  20.086   2.740   2.440 -0.1359 -0.1876 -0.0349
 5034W        W 7184  18.192   1.597  21.140 -0.0364 -0.2473  0.2470
 5035W        W 7185  16.924   6.285  21.119 -0.0140  0.2003 -0.0655
 5036W        W 7186   3.209   0.463   4.972 -0.1857 -0.0231 -0.1409
 5037W        W 7187  19.256   0.427   3.611 -0.2690 -0.1441 -0.0357
 5038W        W 7188   7.632   3.804  11.334 -0.1608  0.0204 -0.1251
 5039W        W 7189  23.556   4.278  14.265  0.3662  0.2412 -0.0969
 5040W        W 7190  16.099   3.558  15.036  0.1450  0.1326  0.0421
 5041W        W 7191   3.098   7.680  12.457  0.3429 -0.2552  0.0900
 5042W        W 7192  21.689   7.337  28.056  0.1062 -0.0387 -0.0002
 5043W        W 7193  23.971   6.889  29.870  0.1346 -0.2097 -0.0878
 5044W        W 7194   1.756   2.741   8.783 -0.0312 -0.2276  0.0410
 5045W        W 7195  11.040   2.092  19.041 -0.0611 -0.2661 -0.2151
 5046W        W 7196  22.244   1.056  24.972 -0.0133  0.2539  0.1885
 5047W        W 7197  14.993   6.138   6.159 -0.2366  0.0486 -0.1315
 5048W        W 7198   7.554   0.403  28.909 -0.3869  0.1172  0.0193
 5049W        W 7199   6.820   6.169  31.772 -0.2899 -0.0325  0.0646
 5050W        W 7200   3.509   4.400   8.595 -0.2111  0.0478  0.2818
 5051W        W 7201  18.047   2.569   6.527  0.0471  0.1453  0.1059
 5052W        W 7202  12.979   1.657  23.137 -0.0093 -0.1174 -0.3247
 5053W        W 7203   3.053   2.796   9.082 -0.2243 -0.1415 -0.0357
 5054W        W 7204  10.812   2.602  19.901 -0.2456 -0.0048 -0.1038
 5055W        W 7205  19.412   0.307  29.415  0.1350 -0.4805  0.2365
 5056W        W 7206  14.557   0.663  16.370  0.0673  0.4310 -0.2052
 5057W        W 7207  17.588   3.654  20.208  0.2872 -0.3386 -0.1606
 5058W        W 7208  16.475   1.111  19.256 -0.4596  0.5477  0.2969
 5059W        W 7209   1.773   5.385  21.589  0.1697 -0.1877 -0.2441
 5060W        W 7210   7.109   1.910   3.737 -0.0958 -0.2714 -0.1847
 5061W        W 7211  23.572   0.542  26.926  0.1499  0.0053  0.5000
 5062W        W 7212  22.066   7.159  28.307  0.1532  0.0478 -0.0527
 5063W        W 7213  13.777   4.975   0.486  0.4205  0.0463 -0.3832
 5064W        W 7214   2.168   3.425   0.445 -0.3623  0.3150 -0.0995
 5065W        W 7215  14.227   0.514  24.391 -0.0923 -0.0064 -0.0290
 5066W        W 7216  14.000   1.605  27.323  0.2323  0.1827  0.0844
 5067W        W 7217  24.802   0.421  25.486 -0.1821 -0.2720 -0.1892
 5068W        W 7218   2.144   2.546   1.195 -0.2006  0.7028 -0.0603
 5069W        W 7219  15.321   0.614  22.004  0.0462  0.1934  0.4740
 5070W        W 7220  20.613   4.053   9.589 -0.0257 -0.0451 -0.3100
 5071W        W 7221  13.385   2.416  29.647  0.1668 -0.2017 -0.1712
 5072W        W 7222   0.621   5.900  23.771 -0.1360 -0.0208 -0.0780
 5073W        W 7223  17.574   6.291   5.743  0.3989  0.2979 -0.2792
 5074W        W 7224  24.331   2.772  25.547  0.2284 -0.0881 -0.0389
 5075W        W 7225  16.103   4.533  21.757  0.1072 -0.1163  0.1953
 5076W        W 7226  22.257   3.516   3.202  0.1186 -0.3322 -0.1871
 5077W        W 7227  12.814   0.743  10.911  0.1283  0.0556 -0.0316
 5078W        W 7228   8.246   1.423  27.475  0.1348  0.2909 -0.3628
 5079W        W 7229   2.836   2.185  27.955  0.3577 -0.0587  0.3413
 5080W        W 7230  14.818   7.152   1.102 -0.3368 -0.1636  0.0394
 5081W        W 7231  15.298   1.763  28.742  0.1280  0.1624 -0.0350
 5082W        W 7232  23.039   2.925   7.696 -0.2358 -0.0654  0.1232
 5083W        W 7233   5.434   0.708   6.134  0.3083 -0.0123  0.2068
 5084W        W 7234  17.168   6.766  28.835 -0.3599 -0.2266  0.0945
 5085W        W 7235   2.050   5.851  32.798  0.0933 -0.2899  0.2061
 5086W        W 7236  24.112   1.488  21.151  0.1156 -0.0303  0.0663
 5087W        W 7237  22.297   4.677   2.626  0.0531 -0.1819  0.1121
 5088W        W 7238   1.779   6.757   4.982  0.1438 -0.0707  0.0946
 5089W        W 7239   6.984   2.730   9.115  0.0432 -0.1155  0.1083
 5090W        W 7240  15.589   0.993   3.931 -0.2108 -0.1883 -0.0154
 5091W        W 7241  11.832   4.309   4.101 -0.2430 -0.1944 -0.2057
 5092W        W 7242  13.768   4.468  16.280  0.2665  0.1339 -0.0037
 5093W        W 7243  24.869   3.597   7.819 -0.1852  0.2845  0.1323
 5094W        W 7244   8.454   1.592   8.699  0.2681 -0.5507 -0.0762
 5095W        W 7245   6.254   2.522  23.461 -0.2650  0.0657  0.1309
 5096W        W 7246   7.486   0.215   2.641 -0.1714  0.1097  0.1170
 5097W        W 7247   3.130   6.466   8.222  0.0706 -0.1060  0.1697
 5098W        W 7248  20.160   0.625   2.370 -0.0107  0.2039  0.0369
 5099W        W 7249  11.536   4.589   0.938  0.1797 -0.4206  0.1938
 5100W        W 7250   6.257   2.881  32.304 -0.0356  0.2957 -0.0589
 5101W        W 7251   9.551   2.978   3.319  0.2543 -0.0083  0.1664
 5102W        W 7252  16.854   5.088  28.789  0.0183  0.1867  0.0268
 5103W        W 7253   3.565   2.309   9.739 -0.0124  0.1361 -0.2522
 5104W        W 7254  12.899   1.640  30.689 -0.2758  0.2815 -0.2051
 5105W        W 7255  12.047   1.594  18.420  0.1610 -0.2452 -0.0542
 5106W        W 7256   0.436   3.333  10.401  0.0320  0.0141  0.0715
 5107W        W 7257   6.217   2.156   1.357  0.1723  0.2552  0.0127
 5108W        W 7258  21.618   0.120   9.971  0.0542  0.0536  0.0302
 5109W        W 7259  14.947   2.471   0.356 -0.1820 -0.0487 -0.3454
 5110W        W 7260   5.476   4.871  10.222  0.1477  0.2283  0.1426
 5111W        W 7261  20.271   6.493  27.864  0.2884  0.1061 -0.0527
 5112W        W 7262   8.549   4.315  12.519  0.2894  0.1036 -0.3164
 5113W        W 7263   0.764   2.612  25.323  0.3972  0.1970  0.0535
 5114W        W 7264  21.590   4.672  28.241  0.3153  0.1963 -0.3347
 5115W        W 7265  24.584   0.218  21.049 -0.0438  0.1101  0.0885
 5116W        W 7266  21.114   4.983   2.724  0.4782 -0.1347 -0.3297
 5117W        W 7267   1.255   5.163  25.248 -0.1198  0.0183  0.0090
 5118W        W 7268  21.037   0.259  18.823  0.4422 -0.0701  0.0961
 5119W        W 7269  19.523   5.565  16.039  0.2157 -0.1131 -0.1208
 5120W        W 7270  11.923   3.621  31.564  0.2099 -0.0764  0.1979
 5121W        W 7271  13.056   7.789  32.463  0.1178 -0.1762  0.1870
 5122W        W 7272  21.509   0.019  31.946 -0.1815 -0.3326 -0.0098
 5123W        W 7273  10.798   1.809  27.823  0.1215 -0.0283  0.0923
 5124W        W 7274  16.973   5.673  28.543 -0.0851  0.1618 -0.0028
 5125W        W 7275  14.161   2.843  26.479  0.1349  0.0171 -0.1397
 5126W        W 7276  22.238   7.225   5.266 -0.0310  0.1125  0.1173
 5127W        W 7277   1.635   6.273   2.810  0.3328  0.0468 -0.0425
 5128W        W 7278  18.966   4.594   9.563  0.0606  0.1582 -0.2807
 5129W        W 7279  19.906   6.398  21.177 -0.3629  0.0365 -0.0153
 5130W        W 7280  12.522   4.287  25.833  0.0288  0.1099  0.4525
 5131W        W 7281   5.722   6.875  28.517 -0.3502 -0.0455  0.1045
 5132W        W 7282  15.756   1.563  30.702  0.2040  0.2626 -0.1144
 5133W        W 7283  19.446   1.240   0.530  0.0326 -0.1171  0.1896
 5134W        W 7284  24.199   5.524   6.094  0.0732  0.0544 -0.2306
 5135W        W 7285   1.583   0.602  28.941  0.2300  0.0468 -0.0365
 5136W        W 7286   3.193   4.314  14.173  0.1633 -0.2884 -0.0105
 5137W        W 7287  17.953   7.207  19.030 -0.1498 -0.2585  0.0381
 5138W        W 7288   2.154   4.193   4.789  0.2180 -0.0578 -0.0241
 5139W        W 7289  22.747   7.519   3.136 -0.1770 -0.1102 -0.0705
 5140W        W 7290   3.269   4.189   8.976 -0.0229 -0.3357  0.1535
 5141W        W 7291   4.229   7.660   8.390  0.2387 -0.1458 -0.1701
 5142W        W 7292  20.724   0.832   5.956  0.2252  0.0121  0.1770
 5143W        W 7293  10.965   6.092  30.889  0.0154 -0.2529 -0.3660
 5144W        W 7294   5.932   5.577  13.305  0.2250 -0.1249 -0.0472
 5145W        W 7295   3.790   2.276  24.989 -0.1737 -0.1328  0.1000
 5146W        W 7296  19.232   7.354  21.976 -0.2076 -0.0510  0.0685
 5147W        W 7297  22.688   3.458  31.419  0.1214 -0.0776 -0.0104
 5148W        W 7298   4.865   3.332   9.064 -0.1620 -0.3861  0.1442
 5149W        W 7299   3.728   3.420  30.244 -0.1363  0.3811 -0.1226
 5150W        W 7300  12.669   4.636  21.953  0.0521 -0.2208 -0.0096
 5151W        W 7301  21.460   3.339   1.681 -0.0044  0.0072 -0.0607
 5152W        W 7302  15.720   3.716  31.381 -0.1335 -0.0112 -0.1546
 5153W        W 7303  23.363   5.416   7.250  0.0207  0.2644  0.1473
 5154W        W 7304   2.959   7.576   5.717  0.3659  0.1255 -0.1136
 5155W        W 7305   0.997   0.228  13.602  0.2996  0.0218  0.1628
 5156W        W 7306   8.402   4.627  12.912 -0.0167  0.2507 -0.0905
 5157W        W 7307   3.717   3.953  24.581  0.0703  0.1148 -0.0077
 5158W        W 7308   7.757   2.951   2.308 -0.0261 -0.0022 -0.0896
 5159W        W 7309   4.000   1.013  25.961  0.0399  0.0144 -0.3952
 5160W        W 7310   3.793   7.176   8.320 -0.1654 -0.0353 -0.0503
 5161W        W 7311   6.893   0.868  16.144 -0.1087  0.0621 -0.2016
 5162W        W 7312  21.137   6.561   0.668 -0.3788 -0.2722 -0.3201
 5163W        W 7313  18.511   2.318  27.270 -0.2358  0.1630  0.1187
 5164W        W 7314   1.506   2.996  12.421  0.2678 -0.2744 -0.0510
 5165W        W 7315  20.207   5.381   6.463 -0.1550 -0.0388 -0.0460
 5166W        W 7316   0.501   5.916   8.779  0.1162 -0.1365 -0.1119
 5167W        W 7317   6.640   0.284  23.668 -0.1192 -0.1065  0.1326
 5168W        W 7318  23.334   7.405  19.399 -0.0652 -0.1891 -0.3072
 5169W        W 7319  21.299   0.137  17.936 -0.0222 -0.0614  0.0263
 5170W        W 7320  22.590   2.882   5.812 -0.2581  0.0612 -0.1048
 5171W        W 7321   8.052   1.930   1.273 -0.1099  0.2720  0.3177
 5172W        W 7322  10.655   1.928  11.037  0.2073  0.0064  0.0431
 5173W        W 7323   0.378   5.414  28.864 -0.1651 -0.0873  0.2070
 5174W        W 7324  11.610   2.344  21.639 -0.0880  0.3328 -0.1999
 5175W        W 7325   3.025   2.791   6.312 -0.0324  0.0661  0.1178
 5176W        W 7326  22.286   2.984  30.251 -0.3489 -0.0154 -0.1203
 5177W        W 7327  24.076   5.043   1.852  0.0367  0.2405  0.2762
 5178W        W 7328  19.093   4.886   5.639  0.0187 -0.2019 -0.3479
 5179W        W 7329   7.079   7.799  28.999  0.2669  0.1364 -0.0767
 5180W        W 7330  14.178   6.984  28.427 -0.1546  0.1416 -0.0395
 5181W        W 7331  12.056   2.705   8.409  0.0633 -0.0135  0.2071
 5182W        W 7332   9.317   2.615  21.513 -0.3388 -0.0337 -0.2036
 5183W        W 7333  11.073   4.221   6.663  0.0342 -0.3805  0.2777
 5184W        W 7334   2.474   3.166   9.502 -0.3157 -0.0199  0.3588
 5185W        W 7335  19.557   2.641   7.724  0.3080  0.2138  0.2804
 5186W        W 7336  14.303   1.819  21.316 -0.1277  0.1925 -0.0731
 5187W        W 7337   9.283   1.543   5.414 -0.1139  0.2677  0.0002
 5188W        W 7338   6.785   1.130   0.371 -0.0804 -0.3180 -0.3420
 5189W        W 7339   6.650   1.879  24.099 -0.2726 -0.1964  0.0845
 5190W        W 7340  24.080   6.803  24.092  0.1510 -0.0044  0.1753
 5191W        W 7341   5.372   1.888   1.783  0.0663  0.0855  0.2675
 5192W        W 7342  14.042   0.401   8.009 -0.0527 -0.1577  0.0079
 5193W        W 7343  13.573   5.723  16.819  0.0859  0.0618  0.3532
 5194W        W 7344  16.095   1.554  31.783 -0.0780  0.0862 -0.0191
 5195W        W 7345  23.714   5.608   9.147 -0.0864 -0.2332  0.3197
 5196W        W 7346  10.622   4.349   2.548  0.4298 -0.0922  0.0735
 5197W        W 7347   2.584   7.355  28.681 -0.2066  0.0835  0.5210
 5198W        W 7348  14.831   2.066   5.315  0.1873  0.4748 -0.1875
 5199W        W 7349  20.169   5.355   1.492 -0.0489  0.0209  0.2259
 5200W        W 7350  14.985   3.921   0.467  0.1538 -0.0027  0.0457
 5201W        W 7351  11.048   0.328  22.895 -0.0956  0.1066  0.0642
 5202W        W 7352  14.743   6.964  22.145 -0.4365  0.3478 -0.0782
 5203W        W 7353   9.648   3.953  24.300 -0.0060  0.2617  0.1251
 5204W        W 7354   5.124   4.007  24.180  0.1148  0.1161 -0.1588
 5205W        W 7355  21.184   1.706   0.840  0.3762 -0.0539 -0.3245
 5206W        W 7356   5.883   2.515  16.143 -0.0826 -0.0651 -0.0823
 5207W        W 7357   2.876   7.457  25.528  0.0295  0.1030  0.1568
 5208W        W 7358  24.350   2.203   4.608 -0.0509 -0.1210  0.4249
 5209W        W 7359   9.867   3.009   8.255  0.0149 -0.0548 -0.0354
 5210W        W 7360  13.454   3.403  19.125  0.0419  0.2287  0.4320
 5211W        W 7361  23.108   2.271  21.944  0.3223 -0.0436 -0.0566
 5212W        W 7362   9.737   4.344  27.385  0.2976  0.1063 -0.1781
 5213W        W 7363  21.250   2.561  28.103  0.0013  0.2073  0.0342
 5214W        W 7364   6.324   6.296   0.884  0.0675  0.0831  0.2740
 5215W        W 7365   4.622   2.852   8.966  0.1340 -0.0781 -0.1804
 5216W        W 7366  14.171   4.236  28.735 -0.3369 -0.2302 -0.0097
 5217W        W 7367  14.854   1.986   7.693  0.1681  0.1869  0.1968
 5218W        W 7368   0.309   6.097  32.611 -0.0954  0.3195 -0.0161
 5219W        W 7369   4.851   5.605  16.036  0.0744  0.0312 -0.1160
 5220W        W 7370  15.448   1.864  15.619 -0.2987 -0.4473  0.2456
 5221W        W 7371   0.691   4.399  32.078 -0.0232 -0.1578  0.0499
 5222W        W 7372   7.968   3.720   1.482 -0.2818  0.1297 -0.1025
 5223W        W 7373   5.509   6.607  28.166 -0.0857  0.2920 -0.1773
 5224W        W 7374   2.485   5.015  26.790 -0.0418  0.2501  0.1706
 5225W        W 7375  17.018   7.547  19.887  0.0473  0.0070  0.3696
 5226W        W 7376  10.309   3.032  10.462  0.0837 -0.2515  0.1381
 5227W        W 7377  21.869   5.467  19.474  0.1469  0.1247  0.0226
 5228W        W 7378   6.619   4.406   2.052  0.1659  0.0692 -0.0992
 5229W        W 7379   7.173   4.317   5.464 -0.2140 -0.0249 -0.1936
 5230W        W 7380  10.309   2.785   1.036  0.0387  0.1766 -0.2877
 5231W        W 7381   9.553   3.819   3.029  0.1412 -0.1501  0.0086
 5232W        W 7382   6.628   4.521  26.385  0.1996 -0.1992  0.3267
 5233W        W 7383  19.405   5.071  30.061  0.2937 -0.2119 -0.1974
 5234W        W 7384  24.483   1.383  14.814 -0.0080 -0.0326 -0.1392
 5235W        W 7385  15.396   7.734  19.170  0.2287 -0.1117 -0.2066
 5236W        W 7386   9.470   2.311   8.718  0.4562 -0.0596 -0.2267
 5237W        W 7387  16.303   0.021   8.668  0.1335  0.0044 -0.4188
 5238W        W 7388  13.198   4.180  31.792 -0.0099  0.1951  0.0059
 5239W        W 7389  21.121   0.317  24.846 -0.0344  0.0328 -0.2006
 5240W        W 7390  21.313   3.271  24.187  0.0028 -0.0169  0.0114
 5241W        W 7391  11.069   0.941   9.555  0.3336 -0.0360  0.0701
 5242W        W 7392  17.109   7.790  19.457  0.2655 -0.1305 -0.1148
 5243W        W 7393   8.331   5.980  14.266 -0.4258  0.0588  0.2025
 5244W        W 7394  16.449   1.877  14.777 -0.2713  0.0074  0.0416
 5245W        W 7395   3.798   3.975   8.703 -0.1576 -0.3128  0.2560
 5246W        W 7396  15.377   3.174   2.777 -0.1592  0.0763  0.2654
 5247W        W 7397  22.798   1.616   0.181 -0.1201 -0.3266  0.0315
 5248W        W 7398   1.151   5.613  12.582  0.0808 -0.2849  0.1084
 5249W        W 7399   5.159   0.333  24.187  0.0118  0.1183  0.1941
 5250W        W 7400   6.801   3.413  15.618  0.1140 -0.0501  0.0655
 5251W        W 7401   4.854   3.839   7.574 -0.2404 -0.0191 -0.0965
 5252W        W 7402  23.502   3.076   5.744 -0.0916  0.1214 -0.2837
 5253W        W 7403  13.091   5.059   3.216 -0.2294  0.1985 -0.2892
 5254W        W 7404   8.231   7.621  31.613 -0.1899 -0.0001  0.1254
 5255W        W 7405  20.118   4.591   5.129  0.1718 -0.1378  0.1506
 5256W        W 7406  20.606   3.553   9.848 -0.0610  0.0144  0.0988
 5257W        W 7407  17.891   1.124  20.729 -0.1432 -0.5270 -0.2335
 5258W        W 7408  16.362   5.189   3.221  0.1396  0.0113  0.0174
 5259W        W 7409   8.945   6.433  31.819  0.3893  0.0298 -0.1558
 5260W        W 7410  16.659   4.913  17.296  0.0127  0.0501  0.0516
 5261W        W 7411  15.937   7.700  23.212 -0.2029  0.0326  0.0785
 5262W        W 7412  12.184   3.700  30.135  0.0817  0.1915 -0.1525
 5263W        W 7413  21.053   0.918   3.406 -0.0629 -0.2105 -0.1353
 5264W        W 7414  18.981   6.685   8.962  0.1898 -0.1154  0.1190
 5265W        W 7415  11.665   3.434  10.003 -0.2973  0.0397  0.1885
 5266W        W 7416  12.715   6.747  31.480 -0.2625 -0.0329 -0.1035
 5267W        W 7417   1.309   1.957  15.673  0.0845  0.0719  0.2382
 5268W        W 7418   4.768   7.279  26.762 -0.4424  0.0034  0.2071
 5269W        W 7419  17.217   0.695  17.002  0.2856  0.0800  0.1478
 5270W        W 7420   3.740   6.715  32.351  0.1584 -0.2523 -0.1661
 5271W        W 7421   0.066   1.256  25.395 -0.0662  0.0761 -0.0996
 5272W        W 7422  14.652   2.173   6.642 -0.1440 -0.1356 -0.1426
 5273W        W 7423   8.423   6.654   1.121 -0.0835 -0.0344 -0.2939
 5274W        W 7424  22.615   0.059  23.103 -0.0644 -0.0407  0.3219
 5275W        W 7425   1.551   1.024  15.698 -0.2957 -0.3378  0.0958
 5276W        W 7426  20.345   1.672  22.940  0.0973  0.1400 -0.1403
 5277W        W 7427  18.679   5.685  17.116 -0.0317 -0.2667  0.0419
 5278W        W 7428  21.816   2.308  26.115  0.0723  0.1496 -0.0552
 5279W        W 7429   7.401   6.331  24.695 -0.0599  0.0907 -0.1452
 5280W        W 7430   1.716   7.779  17.324 -0.0007  0.0219 -0.0584
 5281W        W 7431  20.216   3.141   3.763 -0.1437  0.0183 -0.2160
 5282W        W 7432  18.295   3.868   8.420 -0.0324 -0.0110  0.0238
 5283W        W 7433   0.879   1.348   6.597  0.0343  0.1000 -0.2568
 5284W        W 7434  22.443   4.734  20.662 -0.3441  0.2039 -0.0787
 5285W        W 7435   2.760   1.784  16.699 -0.1385  0.0962  0.0581
 5286W        W 7436  17.550   6.684  25.808 -0.2480 -0.0047 -0.0067
 5287W        W 7437  17.348   0.236   5.213 -0.3777  0.5662  0.2362
 5288W        W 7438  24.427   0.185  14.528 -0.3162 -0.1085 -0.1166
 5289W        W 7439   4.601   0.608   3.488  0.1044  0.3643 -0.2525
 5290W        W 7440  20.412   5.525   1.864 -0.0350  0.1057 -0.1173
 5291W        W 7441   1.483   7.308  26.954 -0.0135  0.3594 -0.0182
 5292W        W 7442  15.692   1.537  20.549 -0.0800 -0.3120  0.1584
 5293W        W 7443   4.111   3.316   5.812  0.0251 -0.2592  0.0817
 5294W        W 7444   5.729   6.838  32.756 -0.0181 -0.1369  0.1272
 5295W        W 7445  22.505   6.199   2.893 -0.0621 -0.1014 -0.1856
 5296W        W 7446   1.014   1.611  29.166  0.2549 -0.1443  0.1612
 5297W        W 7447  18.221   5.972  29.138  0.0283  0.0882 -0.1229
 5298W        W 7448   9.614   1.841  22.176  0.4206 -0.3418 -0.1566
 5299W        W 7449   2.168   4.490  17.166  0.2857  0.1985  0.3508
 5300W        W 7450   9.865   2.540  24.334 -0.1123 -0.0303  0.1617
 5301W        W 7451  12.014   5.926   5.324  0.4086  0.0711  0.1638
 5302W        W 7452  10.163   3.120   9.614 -0.2402  0.2104 -0.0257
 5303W        W 7453  17.536   0.841  32.596 -0.0078 -0.0067  0.2723
 5304W        W 7454  23.822   3.826  14.494  0.0911  0.3203  0.0571
 5305W        W 7455   8.001   3.579  15.603 -0.1109  0.2025 -0.0128
 5306W        W 7456  13.083   4.493  32.237 -0.1871 -0.1825  0.5192
 5307W        W 7457   9.994   5.898  27.857 -0.1092 -0.2118  0.0388
 5308W        W 7458  10.421   6.080  27.593  0.1684  0.1262  0.1187
 5309W        W 7459   8.777   4.183  26.425 -0.0784 -0.3816  0.2015
 5310W        W 7460   1.237   0.178  15.309 -0.1060 -0.0311  0.0732
 5311W        W 7461  22.429   0.058  11.056 -0.0724  0.1370  0.1689
 5312W        W 7462  15.788   6.211  17.392 -0.2880  0.1044 -0.3323
 5313W        W 7463  23.468   6.942   7.126 -0.0082 -0.0719  0.1257
 5314W        W 7464  20.895   4.305  30.118 -0.1991 -0.1767 -0.2896
 5315W        W 7465   6.398   3.534  22.333 -0.1083  0.1689  0.2740
 5316W        W 7466  19.887   4.916  21.056  0.1680  0.0270  0.0064
 5317W        W 7467  16.475   7.243  25.215  0.1819 -0.1508  0.0761
 5318W        W 7468  14.680   6.912  16.397  0.2097 -0.0227 -0.0731
 5319W        W 7469  14.131   1.388  29.915  0.1343 -0.1124  0.0234
 5320W        W 7470  18.263   1.505  21.671  0.2483 -0.1239  0.1905
 5321W        W 7471  21.690   1.563   0.976 -0.0500 -0.3857  0.2381
 5322W        W 7472  15.108   4.765   4.074 -0.2813  0.0076  0.1898
 5323W        W 7473   9.524   5.218   3.780 -0.1039  0.0760  0.1088
 5324W        W 7474  14.211   0.237  26.834  0.0077  0.2830  0.0506
 5325W        W 7475  21.867   5.881  28.855  0.1424  0.0217  0.0669
 5326W        W 7476   9.104   2.037   8.479  0.1887  0.1919  0.0857
 5327W        W 7477  19.684   7.438  22.226  0.0667 -0.0316  0.1357
 5328W        W 7478  24.150   4.877   7.858 -0.5386 -0.2801 -0.0853
 5329W        W 7479  16.986   1.043   6.400 -0.3178 -0.1830  0.0347
 5330W        W 7480  12.278   6.587  20.985 -0.0059  0.1331  0.0411
 5331W        W 7481  18.945   5.721  26.050 -0.1706  0.1234 -0.0147
 5332W        W 7482   1.361   5.690  29.416  0.1393  0.3385 -0.1375
 5333W        W 7483  15.146   7.120  27.299  0.0269  0.2271  0.1621
 5334W        W 7484   0.716   0.548   8.406 -0.0780 -0.1496 -0.2428
 5335W        W 7485  10.213   7.217   1.470  0.2935  0.5311  0.0225
 5336W        W 7486   0.119   1.992  21.818 -0.0170  0.0937 -0.0377
 5337W        W 7487   4.119   7.216  17.719 -0.0175  0.0317 -0.1298
 5338W        W 7488   6.820   3.132  13.794  0.2360  0.4709  0.0356
 5339W        W 7489  13.667   6.019  23.388  0.2844 -0.2335  0.1199
 5340W        W 7490   6.436   0.228  10.610  0.0684 -0.0510  0.1321
 5341W        W 7491  13.564   2.797   0.229 -0.0854  0.1697  0.0398
 5342W        W 7492  22.587   2.436   3.814 -0.0245  0.2157 -0.0044
 5343W        W 7493   2.597   3.703  29.098  0.2995 -0.0216  0.2267
 5344W        W 7494   0.120   6.335  15.276 -0.0622 -0.3290 -0.0462
 5345W        W 7495   3.128   7.144  18.013  0.0918 -0.1026  0.1885
 5346W        W 7496   5.392   2.871  14.070 -0.0898 -0.1202 -0.1500
 5347W        W 7497  16.526   4.388  30.213 -0.2724 -0.4477 -0.0208
 5348W        W 7498  13.968   5.717   8.965  0.2139 -0.1766  0.0044
 5349W        W 7499  13.172   4.670   9.790  0.0339  0.0828  0.0056
 5350W        W 7500   1.400   4.948   6.345 -0.0359  0.0398  0.0357
 5351W        W 7501  11.576   5.014   1.119  0.1153  0.1595 -0.0730
 5352W        W 7502  16.787   6.562   2.520  0.1636  0.2827 -0.1146
 5353W        W 7503   4.952   1.015  12.149  0.1376 -0.0210  0.1382
 5354W        W 7504  22.196   3.567   5.194 -0.1409  0.0302 -0.0220
 5355W        W 7505   6.690   0.785  32.988  0.1040  0.1812 -0.0453
 5356W        W 7506  19.306   6.287   2.940  0.0485  0.0843 -0.1117
 5357W        W 7507   3.292   0.400  26.992 -0.0657 -0.3734  0.0488
 5358W        W 7508   1.206   0.745  15.615 -0.0343  0.2694 -0.0545
 5359W        W 7509  11.879   2.130  31.810 -0.3969  0.2128  0.2670
 5360W        W 7510   5.643   0.427  26.413 -0.0580  0.4133  0.0939
 5361W        W 7511  17.734   3.121  15.711 -0.0757  0.2457  0.1750
 5362W        W 7512  23.626   1.196   1.089 -0.1457 -0.0042  0.2235
 5363W        W 7513  20.852   3.475  27.179  0.0409  0.0904  0.0447
 5364W        W 7514   3.438   7.586   5.954  0.0795  0.0597  0.2240
 5365W        W 7515  20.445   3.183   0.726 -0.0826  0.1098 -0.1600
 5366W        W 7516  15.182   3.619  19.962 -0.1216  0.0755  0.0922
 5367W        W 7517  14.222   0.897  30.315 -0.1420  0.1246 -0.3061
 5368W        W 7518  13.849   3.723  17.491  0.1207 -0.0736  0.1666
 5369W        W 7519   4.231   3.079   7.409  0.1963  0.3926  0.1316
 5370W        W 7520   7.476   4.984  10.227 -0.0979 -0.0582 -0.1505
 5371W        W 7521   2.276   2.092   0.100 -0.0344 -0.3172  0.0133
 5372W        W 7522   3.873   0.010  28.859 -0.0907  0.1312 -0.1352
 5373W        W 7523  13.425   4.433  21.371 -0.1393 -0.1280 -0.1215
 5374W        W 7524   5.883   3.760  27.937 -0.2090  0.4533  0.1346
 5375W        W 7525   4.637   7.092   0.592 -0.1668  0.1332 -0.0351
 5376W        W 7526  19.564   6.745   5.624  0.2420  0.0087 -0.0572
 5377W        W 7527   0.577   5.457  23.398 -0.0282 -0.0333  0.2663
 5378W        W 7528  23.063   2.967   2.951 -0.0074  0.2690 -0.1414
 5379W        W 7529  15.826   1.478  32.685 -0.0794  0.0427 -0.1232
 5380W        W 7530  20.203   2.502  11.513 -0.1387  0.1375  0.2058
 5381W        W 7531   4.543   4.341  25.597 -0.2595 -0.0525  0.2927
 5382W        W 7532  15.298   7.245   1.062  0.2250  0.0813 -0.3076
 5383W        W 7533   4.800   7.022   3.392 -0.3700  0.1038 -0.2200
 5384W        W 7534  24.160   4.178   2.355 -0.0174  0.0046 -0.1873
 5385W        W 7535  23.823   4.619  12.185 -0.0480  0.0388  0.2250
 5386W        W 7536  24.687   5.163  29.419 -0.1122  0.0056  0.0152
 5387W        W 7537   0.796   5.013  23.792 -0.0998 -0.1147  0.2058
 5388W        W 7538  10.482   1.317  30.205 -0.0895 -0.1493  0.2461
 5389W        W 7539  16.151   2.083  23.103  0.0449  0.0343  0.3009
 5390W        W 7540   3.846   2.848   6.994 -0.1180 -0.0783 -0.0568
 5391W        W 7541   3.877   0.912  10.196 -0.0331 -0.2698  0.1630
 5392W        W 7542   9.402   4.204   5.242 -0.1051  0.1424  0.1997
 5393W        W 7543  10.588   3.654   9.376  0.2007  0.0726 -0.1331
 5394W        W 7544  22.630   4.229   8.572  0.3476  0.1692  0.0446
 5395W        W 7545   3.235   5.188  28.243 -0.0639 -0.1221  0.0051
 5396W        W 7546  13.947   0.939   8.023  0.0311 -0.0956 -0.1956
 5397W        W 7547  17.038   5.014  29.939  0.0395 -0.0788 -0.0680
 5398W        W 7548  23.189   1.863  32.444  0.0111  0.1908 -0.0621
 5399W        W 7549  17.633   0.650  17.464  0.1745  0.2351 -0.2119
 5400W        W 7550   8.058   1.411   8.997 -0.0504  0.4206 -0.3655
 5401W        W 7551  17.671   4.169  23.411  0.2085 -0.0146  0.2203
 5402W        W 7552   6.044   3.578   0.965  0.2789 -0.3700  0.0507
 5403W        W 7553  16.542   0.798  26.651 -0.3176 -0.0030 -0.1126
 5404W        W 7554  13.868   6.695  15.737 -0.1206 -0.3282  0.0583
 5405W        W 7555  15.001   5.003  19.679  0.1462  0.0579 -0.0881
 5406W        W 7556  22.911   0.485  32.949 -0.1237 -0.1094  0.2118
 5407W        W 7557  18.875   4.688  10.710 -0.3765  0.2443 -0.0818
 5408W        W 7558   4.668   6.041  25.952 -0.2839 -0.1463 -0.4041
 5409W        W 7559   5.704   7.057  12.999 -0.5083 -0.1713 -0.0086
 5410W        W 7560  11.691   1.511  27.821  0.0090  0.1185 -0.5466
 5411W        W 7561  22.545   2.570  28.744  0.1966 -0.0734  0.3724
 5412W        W 7562   1.867   6.447  31.543 -0.0055  0.0546 -0.1578
 5413W        W 7563  13.789   0.684  25.597 -0.2217  0.0178  0.1092
 5414W        W 7564   1.040   6.751   2.182 -0.0032 -0.0641 -0.5060
 5415W        W 7565   3.431   6.482   1.918 -0.0197  0.1073 -0.0911
 5416W        W 7566  23.935   5.171   0.894 -0.2506 -0.0476 -0.1201
 5417W        W 7567  20.581   1.976   1.258  0.1814 -0.3574 -0.3854
 5418W        W 7568  16.028   6.494   7.925  0.1480 -0.1426  0.1206
 5419W        W 7569   2.174   4.865  13.438  0.3061  0.2525 -0.0228
 5420W        W 7570   4.785   4.160  14.813 -0.2042 -0.0049  0.2749
 5421W        W 7571  17.909   6.088  29.952 -0.0438  0.1177 -0.2746
 5422W        W 7572  23.934   7.417  22.932 -0.0056  0.2669 -0.1309
 5423W        W 7573   9.689   7.426  26.564  0.0026 -0.1693  0.3614
 5424W        W 7574  24.666   2.324  27.554  0.1019  0.2576  0.0521
 5425W        W 7575   9.458   6.999  30.277 -0.2397  0.0686 -0.0726
 5426W        W 7576   3.941   4.999  29.885 -0.0584  0.1438 -0.2935
 5427W        W 7577  22.172   7.285  30.170 -0.3826 -0.0362 -0.0421
 5428W        W 7578   5.958   2.835   2.534  0.0421 -0.2448 -0.0603
 5429W        W 7579   7.739   5.093  31.001  0.1446 -0.1316  0.1081
 5430W        W 7580  14.608   3.872   8.922  0.4407 -0.0476  0.2940
 5431W        W 7581  22.278   6.033   9.224 -0.1479  0.1341 -0.1454
 5432W        W 7582  17.123   0.388   5.761 -0.0328  0.1376  0.2038
 5433W        W 7583   5.076   2.038  27.537 -0.2058 -0.1599 -0.1798
 5434W        W 7584   6.205   5.530  23.477 -0.1933 -0.1529 -0.0459
 5435W        W 7585  17.689   5.003   2.252 -0.1474 -0.1624 -0.2357
 5436W        W 7586   0.805   4.573   4.750 -0.1083  0.2108  0.0718
 5437W        W 7587  11.465   7.345   0.354  0.1202  0.0735  0.2595
 5438W        W 7588  23.801   4.649  14.588  0.1214 -0.2140  0.2497
 5439W        W 7589  12.344   4.829  23.879  0.2754  0.0095 -0.0737
 5440W        W 7590  13.652   5.921  25.407  0.2098 -0.0397  0.2109
 5441W        W 7591   1.397   1.547   6.548  0.1202  0.1280  0.1545
 5442W        W 7592  16.086   2.696  32.189  0.3300  0.2171  0.1383
 5443W        W 7593  16.704   4.543   5.557 -0.0587 -0.0109  0.1417
 5444W        W 7594  18.321   7.282  30.074  0.2485 -0.4120  0.1194
 5445W        W 7595   7.684   6.821  27.520  0.1302 -0.0075  0.2899
 5446W        W 7596  21.362   3.534  30.767  0.0143 -0.0708 -0.1028
 5447W        W 7597   6.911   1.614  12.565 -0.2497 -0.2811  0.1789
 5448W        W 7598   0.145   3.837   7.403 -0.0238  0.2132 -0.0692
 5449W        W 7599  10.936   1.395  29.506  0.1176  0.0827 -0.1747
 5450W        W 7600   2.086   0.278   0.089 -0.1267  0.0636  0.2482
 5451W        W 7601  21.534   2.455  22.631 -0.0096 -0.1103  0.2090
 5452W        W 7602  20.957   4.916  17.965 -0.1021 -0.0943  0.3420
 5453W        W 7603  19.124   7.662  24.214 -0.4458 -0.3074 -0.0080
 5454W        W 7604  24.809   6.013  25.151  0.1754  0.0369  0.0486
 5455W        W 7605  13.470   4.211  20.024  0.0856  0.1203 -0.2761
 5456W        W 7606  11.051   5.443   1.088 -0.1915 -0.0133  0.1237
 5457W        W 7607   8.523   6.000   8.780  0.0832  0.1159  0.0754
 5458W        W 7608  22.354   4.402   7.941  0.0460  0.0148  0.2368
 5459W        W 7609  13.497   6.635  20.191  0.1184  0.1989 -0.1107
 5460W        W 7610   0.347   3.837   2.304 -0.0150 -0.0781  0.1104
 5461W        W 7611  14.822   3.371  24.534 -0.1332  0.2667  0.1084
 5462W        W 7612   0.611   3.374  23.766 -0.1534  0.1185  0.0414
 5463W        W 7613  11.556   5.775   5.122 -0.2329  0.2036 -0.0608
 5464W        W 7614   3.357   0.431  11.131 -0.0859 -0.0334 -0.1361
 5465W        W 7615  22.518   0.722  23.379  0.1276  0.3325  0.2393
 5466W        W 7616  10.230   5.336   6.459 -0.0813  0.2828  0.0356
 5467W        W 7617   3.744   2.744  11.641  0.0467 -0.2031 -0.0105
 5468W        W 7618   1.889   4.077  11.999 -0.0337 -0.0172 -0.0029
 5469W        W 7619   5.863   1.631  24.791 -0.1419  0.0875  0.1468
 5470W        W 7620  13.880   3.993  17.062 -0.0415 -0.0508  0.1359
 5471W        W 7621  13.844   7.371  16.901 -0.0477  0.0085  0.0439
 5472W        W 7622  19.035   7.119  25.544  0.2303  0.1384 -0.2102
 5473W        W 7623  16.192   1.506   7.440  0.1381  0.2336 -0.0925
 5474W        W 7624  16.952   6.140  18.006 -0.0115 -0.0531 -0.3377
 5475W        W 7625   2.058   3.546  14.610  0.2068  0.0500  0.0312
 5476W        W 7626  22.936   0.350  26.417  0.1057  0.1595  0.0079
 5477W        W 7627  10.482   7.704   8.973 -0.2167  0.0488 -0.2257
 5478W        W 7628  14.167   3.173  23.650  0.0344  0.2769 -0.1209
 5479W        W 7629  18.109   5.364   9.240  0.1533  0.1752  0.4298
 5480W        W 7630   8.006   4.320   6.160  0.3767  0.0644  0.1183
 5481W        W 7631  19.477   1.373   8.825  0.0071  0.0397 -0.1122
 5482W        W 7632   0.272   0.778  14.572  0.2888  0.1002 -0.2223
 5483W        W 7633  21.590   6.420   1.306  0.1275 -0.0304 -0.0397
 5484W        W 7634  13.124   0.453   1.215 -0.2996 -0.0478 -0.3481
 5485W        W 7635  20.803   4.272  22.020  0.1331 -0.0543 -0.0542
 5486W        W 7636   6.782   7.125  23.713 -0.0963  0.1069 -0.2268
 5487W        W 7637   4.884   3.947   3.598 -0.0405  0.2736  0.1359
 5488W        W 7638  22.192   2.487  26.403  0.0911  0.0867  0.4642
 5489W        W 7639  15.178   5.868   8.471 -0.1010 -0.0716  0.3049
 5490W        W 7640  13.458   3.789  18.252  0.1228  0.1154  0.5047
 5491W        W 7641  22.138   2.895  28.761 -0.4588 -0.0603  0.1635
 5492W        W 7642  10.495   4.471  21.812  0.0816  0.1233  0.0873
 5493W        W 7643   0.821   2.352   6.394 -0.1848  0.2638  0.0391
 5494W        W 7644  15.333   6.314   8.860 -0.1941 -0.0714  0.2878
 5495W        W 7645  13.407   6.703  19.302 -0.0867  0.2683 -0.0970
 5496W        W 7646  15.956   2.013   6.240  0.1928  0.0514 -0.1351
 5497W        W 7647   2.282   2.830  17.496  0.2728  0.1896 -0.3847
 5498W        W 7648   6.589   3.878  15.530  0.0817  0.2532  0.1900
 5499W        W 7649  10.492   6.069  23.982  0.0790 -0.0449  0.0190
 5500W        W 7650   0.933   7.578   8.382  0.3969 -0.1033 -0.1770
 5501W        W 7651  23.793   7.666   1.555 -0.1917  0.0960 -0.0661
 5502W        W 7652  21.713   5.947  27.277 -0.1158  0.1009  0.2244
 5503W        W 7653   8.560   2.562  31.618  0.1796  0.3050  0.1681
 5504W        W 7654   9.211   7.410  27.963  0.2759 -0.1236  0.1754
 5505W        W 7655   7.759   6.676  29.882  0.0559  0.4107 -0.2089
 5506W        W 7656  10.095   0.819  26.779  0.0339 -0.1285  0.1047
 5507W        W 7657   0.676   1.229  24.079 -0.2132  0.1260  0.1159
 5508W        W 7658  13.700   1.744   5.035 -0.0310 -0.0416 -0.1953
 5509W        W 7659   1.651   2.089  30.309 -0.1553 -0.0347 -0.1354
 5510W        W 7660   0.123   7.481   1.008 -0.0798 -0.0980 -0.1401
 5511W        W 7661  22.332   1.003   1.164 -0.0749 -0.0190  0.1398
 5512W        W 7662  19.307   4.389  24.670  0.0480 -0.1344 -0.0230
 5513W        W 7663   1.059   3.803  23.988 -0.0878 -0.1899 -0.0372
 5514W        W 7664  10.442   0.684  27.291  0.3078  0.2997  0.3350
 5515W        W 7665  15.206   2.783  25.034 -0.1519 -0.0148 -0.0145
 5516W        W 7666  10.750   3.249  21.860  0.1713  0.1347 -0.0969
 5517W        W 7667  18.745   4.649  32.626  0.2978 -0.0987 -0.1614
 5518W        W 7668  20.532   5.100  10.008 -0.2285 -0.1999  0.0538
 5519W        W 7669   8.579   1.263  30.727 -0.1497 -0.2241 -0.2111
 5520W        W 7670  20.540   6.464  19.920  0.0414 -0.1400  0.0015
 5521W        W 7671   3.200   4.729  17.021  0.2608  0.0312 -0.0395
 5522W        W 7672  16.611   6.861   0.079  0.1173  0.2177 -0.0755
 5523W        W 7673   0.479   0.108  11.643  0.4499  0.0283 -0.1907
 5524W        W 7674  19.072   6.325   3.493 -0.0709 -0.1120 -0.3289
 5525W        W 7675  12.008   5.769  27.696 -0.1102 -0.3009  0.1657
 5526W        W 7676  21.606   6.283  22.570 -0.0561 -0.1424  0.2202
 5527W        W 7677   1.735   3.996   2.259  0.3145  0.0788 -0.0913
 5528W        W 7678   4.569   2.160   0.754 -0.1144  0.0017 -0.0626
 5529W        W 7679   2.914   0.289  15.359  0.2476  0.0208  0.0647
 5530W        W 7680  21.757   0.511   8.267  0.1858  0.0732  0.0242
 5531W        W 7681  16.324   4.725  27.183  0.2184  0.1269  0.0359
 5532W        W 7682   5.197   1.983  31.838 -0.1969 -0.0483 -0.1571
 5533W        W 7683  10.444   2.586  11.285 -0.1709  0.4076 -0.1700
 5534W        W 7684   1.010   6.530  32.419  0.1708  0.0373 -0.0319
 5535W        W 7685  16.893   5.241  16.987 -0.2232 -0.1301 -0.1165
 5536W        W 7686   6.398   3.456  14.449  0.1113  0.1744  0.0654
 5537W        W 7687  22.694   0.664  13.159 -0.1440  0.0069  0.0626
 5538W        W 7688   7.981   0.725   4.372 -0.0773 -0.0653  0.0947
 5539W        W 7689  16.670   6.791   2.071  0.0971 -0.0322  0.0731
 5540W        W 7690  18.399   5.090  17.811  0.1312  0.0121 -0.3354
 5541W        W 7691   8.340   2.198  30.730  0.1555 -0.3104 -0.1184
 5542W        W 7692  23.827   4.997   8.172  0.0307 -0.2924 -0.2858
 5543W        W 7693   8.083   2.959   0.399  0.1426 -0.1231 -0.0677
 5544W        W 7694  14.721   7.610   7.755  0.0371 -0.0829 -0.3833
 5545W        W 7695  23.741   4.888  32.103  0.1585 -0.1831  0.1968
 5546W        W 7696   9.117   6.187  30.522 -0.0286  0.1242 -0.0665
 5547W        W 7697  17.264   5.650   0.149  0.1509 -0.0971 -0.1151
 5548W        W 7698  15.771   2.919   0.333  0.0710  0.1608  0.2105
 5549W        W 7699   4.740   0.176   8.028  0.0810 -0.1326 -0.2263
 5550W        W 7700  11.473   4.757   8.043 -0.0347 -0.4228 -0.1037
 5551W        W 7701   2.032   0.974  24.537 -0.2013  0.2732  0.0100
 5552W        W 7702  16.789   1.714  19.800 -0.0945  0.2431 -0.1505
 5553W        W 7703   1.566   4.423  27.685 -0.1633 -0.0283  0.0122
 5554W        W 7704  19.093   5.143  27.146 -0.0563 -0.0196  0.1264
 5555W        W 7705  15.522   7.502  26.226  0.3806 -0.1195  0.0303
 5556W        W 7706   4.755   3.057  23.216 -0.1707 -0.2441  0.0708
 5557W        W 7707   8.832   7.665   0.058  0.0312 -0.0816 -0.0698
 5558W        W 7708   9.851   3.954  21.465  0.0838  0.1231 -0.3764
 5559W        W 7709  13.930   3.671   5.718 -0.2178 -0.3181 -0.0162
 5560W        W 7710  18.765   0.253  10.541  0.0150  0.2326  0.2012
 5561W        W 7711  11.106   6.013   2.304  0.3444 -0.1085 -0.2875
 5562W        W 7712  23.758   2.884  10.664 -0.1640  0.0637  0.1190
 5563W        W 7713  13.985   2.835   4.396 -0.2023  0.0585 -0.1582
 5564W        W 7714   4.031   2.225  32.380  0.1155  0.1430  0.0543
 5565W        W 7715  10.726   7.212   1.733 -0.2384 -0.0519  0.1524
 5566W        W 7716   0.506   7.016   1.390 -0.1365 -0.0474 -0.0962
 5567W        W 7717  21.058   7.322  23.032 -0.0154  0.0301  0.0378
 5568W        W 7718  16.251   0.091   8.160  0.1227  0.2843  0.0093
 5569W        W 7719   9.751   2.564  32.092 -0.0590 -0.3527 -0.1407
 5570W        W 7720  15.972   1.117  29.224  0.3126  0.2476 -0.0905
 5571W        W 7721  16.134   7.659   5.117 -0.3575  0.1191  0.0309
 5572W        W 7722  13.509   3.744  28.722 -0.2886  0.1101 -0.2335
 5573W        W 7723  11.184   2.218  27.734  0.0826 -0.1294  0.0584
 5574W        W 7724  23.224   5.744  23.520  0.2000 -0.0335  0.2475
 5575W        W 7725   3.486   7.103  10.791  0.0173  0.1043 -0.4324
 5576W        W 7726  24.807   6.141  12.182  0.0423 -0.0682  0.0564
 5577W        W 7727  16.994   1.056   7.814  0.1825 -0.1307  0.1638
 5578W        W 7728  21.105   4.702   5.894 -0.1939  0.1073 -0.2251
 5579W        W 7729   8.424   3.490   7.586  0.0677  0.1540 -0.0759
 5580W        W 7730  18.045   5.514   2.118  0.0187  0.1470 -0.0583
 5581W        W 7731  22.984   0.926  31.340  0.3321  0.1465  0.0369
 5582W        W 7732   4.381   5.147  13.036  0.0541  0.0159  0.0591
 5583W        W 7733  16.934   4.003  22.124 -0.0943 -0.1238  0.3441
 5584W        W 7734  23.826   4.506  20.321  0.1761 -0.0497 -0.0739
 5585W        W 7735   3.483   5.305  32.798  0.2406 -0.0770 -0.1183
 5586W        W 7736   4.822   5.450   1.220 -0.0021 -0.0544 -0.0651
 5587W        W 7737  24.764   5.857  13.542 -0.2634 -0.0956  0.3524
 5588W        W 7738   0.431   6.929   5.674 -0.5231  0.2678 -0.4190
 5589W        W 7739   3.824   1.233   6.592 -0.2334  0.2898 -0.1543
 5590W        W 7740  12.596   6.400  28.981 -0.0554 -0.0122  0.0883
 5591W        W 7741  12.269   6.955  26.056  0.1284 -0.1748  0.2860
 5592W        W 7742  20.020   2.685  22.842 -0.1973 -0.1000  0.1170
 5593W        W 7743  17.708   2.706  22.407 -0.1442 -0.1446  0.3227
 5594W        W 7744  21.521   2.942  11.498  0.2916  0.3795 -0.1012
 5595W        W 7745  23.182   3.255   8.980  0.2894 -0.2009 -0.0042
 5596W        W 7746  21.920   2.983   4.814  0.2965 -0.1849 -0.1024
 5597W        W 7747  18.749   1.562  20.732  0.1051 -0.1499 -0.2283
 5598W        W 7748   2.887   7.117   1.731 -0.1737 -0.0248 -0.1184
 5599W        W 7749  18.020   2.352  27.254 -0.1452  0.0189 -0.1578
 5600W        W 7750  17.959   5.644  30.048  0.0356  0.4453 -0.3035
 5601W        W 7751  14.384   4.287   7.656  0.2251 -0.0244  0.2475
 5602W        W 7752  11.058   3.114  25.384  0.0686  0.0899 -0.0401
 5603W        W 7753   6.115   6.261  27.635 -0.1223 -0.1507 -0.1300
 5604W        W 7754  15.682   1.075  16.130  0.3774 -0.0032 -0.1664
 5605W        W 7755  15.614   4.297  30.241 -0.0920  0.2220  0.2556
 5606W        W 7756  19.093   7.704  21.641 -0.1746 -0.2887 -0.0108
 5607W        W 7757  20.078   7.131  29.239  0.2085  0.0835 -0.1725
 5608W        W 7758  10.365   4.065   0.921 -0.3557 -0.0030 -0.1706
 5609W        W 7759   5.242   1.737   9.050  0.1342  0.2895 -0.1912
 5610W        W 7760   1.127   1.471  14.964 -0.2406  0.1062 -0.0408
 5611W        W 7761  16.125   0.023   9.717  0.1268  0.0877 -0.0695
 5612W        W 7762  11.296   5.056   6.287 -0.0626 -0.1694  0.1978
 5613W        W 7763   3.325   6.072  31.176  0.1741 -0.2706 -0.0547
 5614W        W 7764  15.374   1.856  24.906  0.0722  0.2221  0.1517
 5615W        W 7765  10.580   5.137  31.057 -0.1006 -0.1109 -0.0534
 5616W        W 7766   9.458   2.486   1.487 -0.2169 -0.1048 -0.0870
 5617W        W 7767  15.074   2.988   1.294 -0.1700 -0.0826 -0.1106
 5618W        W 7768   4.725   2.810  24.989  0.2857  0.0014 -0.0184
 5619W        W 7769   2.774   4.259   4.819  0.0829 -0.1985  0.0013
 5620W        W 7770  10.524   2.656   3.445 -0.1009 -0.1904  0.2527
 5621W        W 7771   3.811   0.107  17.285  0.1679 -0.0907 -0.2738
 5622W        W 7772   1.751   2.854  22.453  0.2856 -0.2537 -0.4062
 5623W        W 7773  10.600   1.470  32.287  0.4919 -0.0485  0.0249
 5624W        W 7774   8.836   0.816  29.986  0.2206  0.0682 -0.1625
 5625W        W 7775  24.808   5.851  20.744  0.3722  0.1679 -0.0053
 5626W        W 7776  12.213   5.360  26.902  0.0290  0.0712  0.2555
 5627W        W 7777  24.544   7.084   8.923 -0.0997  0.1080 -0.1452
 5628W        W 7778  23.995   1.223  27.902  0.1542 -0.0458 -0.1625
 5629W        W 7779   9.189   5.576   3.496 -0.0616  0.0581 -0.2378
 5630W        W 7780   6.902   6.725   5.447  0.4479  0.2558  0.0578
 5631W        W 7781  18.957   3.876  16.483 -0.2762 -0.1066 -0.3899
 5632W        W 7782   2.239   7.029  16.440 -0.3487 -0.1606 -0.1299
 5633W        W 7783   1.863   7.180  11.091 -0.2564 -0.0771  0.0625
 5634W        W 7784  23.567   1.626  11.326  0.0705  0.2297  0.0979
 5635W        W 7785  24.669   3.137   7.735  0.0456  0.0559 -0.1347
 5636W        W 7786   8.407   3.702  12.348  0.1627 -0.4211  0.1822
 5637W        W 7787   5.520   5.526   2.238  0.0502  0.0946 -0.1523
 5638W        W 7788  18.770   6.209  26.190  0.2667 -0.2731  0.0130
 5639W        W 7789  11.064   7.238   2.880  0.0019 -0.0635  0.0962
 5640W        W 7790   3.146   2.159  23.270  0.0049  0.1822 -0.4073
 5641W        W 7791  17.463   2.209  17.429 -0.1174 -0.4537 -0.2135
 5642W        W 7792  22.638   1.343   8.192  0.0084 -0.0373  0.3652
 5643W        W 7793   2.694   7.265  21.719  0.0222 -0.0027  0.2266
 5644W        W 7794   3.902   4.533  17.811  0.2192 -0.0815  0.2818
 5645W        W 7795  19.495   7.242  25.229 -0.2510 -0.1040  0.0922
 5646W        W 7796  21.433   1.998  11.702  0.0796 -0.4619  0.0437
 5647W        W 7797   0.103   4.286   0.150  0.1041  0.4819  0.1593
 5648W        W 7798   4.317   4.646   0.829  0.1221 -0.0752 -0.0613
 5649W        W 7799  11.501   7.554  31.546 -0.0903 -0.3396  0.1180
 5650W        W 7800   7.763   3.159  22.641 -0.0986 -0.0361 -0.1052
 5651W        W 7801   1.618   4.813  24.850 -0.0538 -0.0024 -0.1847
 5652W        W 7802  22.988   2.322  27.340  0.0008 -0.0127  0.1340
 5653W        W 7803  12.036   7.255  11.177  0.2090  0.1527  0.1969
 5654W        W 7804  12.064   0.180  20.356 -0.1874 -0.1665 -0.0048
 5655W        W 7805  16.853   1.520  32.703  0.1154 -0.2306 -0.2431
 5656W        W 7806  21.021   4.441   2.140 -0.3578  0.0513 -0.1321
 5657W        W 7807  21.888   1.235   9.249 -0.0325  0.1540  0.0477
 5658W        W 7808  15.920   2.889  27.662 -0.0994  0.0531  0.0505
 5659W        W 7809   5.551   2.120  15.151 -0.0405 -0.2229  0.1387
 5660W        W 7810  16.579   4.242  22.916  0.2009  0.0700  0.0825
 5661W        W 7811   3.977   5.976  15.556 -0.1098  0.0312  0.0133
 5662W        W 7812  20.669   7.137   6.881  0.0794  0.0455  0.1796
 5663W        W 7813  19.333   5.131  25.290 -0.1100 -0.0879 -0.0947
 5664W        W 7814  12.875   3.928  10.255  0.2663  0.2009  0.0410
 5665W        W 7815  13.883   3.800  19.255  0.0651  0.1576  0.2211
 5666W        W 7816  13.636   1.711  10.644 -0.0709 -0.0771 -0.2340
 5667W        W 7817  18.559   3.411   0.200 -0.0975 -0.1634  0.0679
 5668W        W 7818   9.093   4.265   6.184 -0.2130  0.2242 -0.1592
 5669W        W 7819  20.409   7.116   1.064 -0.0551 -0.2497 -0.0108
 5670W        W 7820   8.639   4.015  10.687 -0.0423 -0.0605 -0.2302
 5671W        W 7821   4.293   3.041  23.032  0.2184 -0.3079 -0.0671
 5672W        W 7822   2.689   6.475  18.583  0.2805  0.4170 -0.0916
 5673W        W 7823   8.804   7.659  32.518 -0.1508 -0.2625 -0.0920
 5674W        W 7824  14.176   2.234  18.988  0.1279  0.0187  0.0212
 5675W        W 7825  23.575   7.592  25.687 -0.2650 -0.0775 -0.0226
 5676W        W 7826  13.007   0.506  23.540  0.1776 -0.0271  0.3042
 5677W        W 7827  12.844   4.897  32.092 -0.1579 -0.1020  0.2240
 5678W        W 7828   2.805   0.284  15.941 -0.0878  0.0467  0.0491
 5679W        W 7829  21.421   6.599  32.473  0.0216  0.1890 -0.0344
 5680W        W 7830   1.098   4.234   5.072  0.2167  0.1817  0.1752
 5681W        W 7831  19.853   1.664   8.438  0.1118  0.1427 -0.2511
 5682W        W 7832  22.803   4.590   8.954 -0.0066  0.1000 -0.3046
 5683W        W 7833   3.637   2.947  32.855 -0.0182  0.2729  0.1079
 5684W        W 7834  11.737   5.915  19.446  0.2024 -0.0583 -0.0924
 5685W        W 7835   1.687   4.883   3.773  0.0098  0.3604  0.2099
 5686W        W 7836  16.526   5.794  18.607  0.0623  0.0824 -0.0891
 5687W        W 7837   7.651   5.570  12.554 -0.0072 -0.2024  0.1783
 5688W        W 7838   6.975   0.519  22.686 -0.0170  0.0519 -0.2144
 5689W        W 7839  24.835   1.775  21.364  0.0584 -0.0200  0.0597
 5690W        W 7840  21.402   6.368   3.810 -0.0119 -0.4367 -0.2515
 5691W        W 7841   8.912   7.018   9.672  0.1052 -0.1616  0.3912
 5692W        W 7842  20.195   6.416   1.495 -0.1927  0.1509 -0.2687
 5693W        W 7843   4.031   1.631  24.645  0.0505  0.1853 -0.1935
 5694W        W 7844   6.176   4.846  32.967 -0.3176  0.1485  0.3533
 5695W        W 7845   9.914   4.579   2.317 -0.1748 -0.0791 -0.1225
 5696W        W 7846  24.747   3.521   5.173 -0.1940  0.0040  0.2395
 5697W        W 7847  23.375   5.253  10.875  0.0466  0.0612 -0.0892
 5698W        W 7848  15.877   7.346   4.588 -0.0861 -0.1429  0.1506
 5699W        W 7849  15.763   1.714  26.089  0.2445  0.1595  0.0081
 5700W        W 7850  15.082   7.724  23.679 -0.1436  0.3543  0.0245
 5701W        W 7851   1.704   3.386  25.140 -0.0518 -0.0644 -0.1891
 5702W        W 7852   5.591   4.939  12.317 -0.1613  0.3337  0.1048
 5703W        W 7853  19.279   4.696  22.258 -0.1472 -0.2067  0.4205
 5704W        W 7854   8.344   2.959  26.479  0.1517  0.0342  0.0552
 5705W        W 7855  17.235   5.756  25.534  0.1230  0.1189 -0.1378
 5706W        W 7856  14.793   3.754  31.490 -0.2322 -0.0720 -0.1212
 5707W        W 7857  23.062   6.084  14.141  0.1282  0.0918  0.1555
 5708W        W 7858  23.668   3.764  28.979  0.0387  0.0019  0.1799
 5709W        W 7859   4.467   6.932  17.092  0.1623  0.3792 -0.0388
 5710W        W 7860  11.924   2.411  31.345 -0.1172 -0.1186  0.0772
 5711W        W 7861   3.136   0.867  10.849  0.2028 -0.3603 -0.1748
 5712W        W 7862  18.757   7.505   3.042 -0.2446  0.0153  0.1009
 5713W        W 7863  16.063   7.327  25.494 -0.0434 -0.2929  0.0932
 5714W        W 7864  13.506   4.884  18.243 -0.0322 -0.3382 -0.0136
 5715W        W 7865   3.931   5.664  23.345  0.1140  0.0459  0.1370
 5716W        W 7866  14.401   5.819   9.436  0.2403  0.1662 -0.2283
 5717W        W 7867  23.711   0.970   2.321  0.0375  0.2480 -0.0992
 5718W        W 7868  23.095   1.444  12.234  0.2471  0.1719 -0.0625
 5719W        W 7869   3.221   6.416  10.329 -0.1940 -0.0939 -0.2219
 5720W        W 7870   0.465   3.666  22.040 -0.0789  0.1344 -0.2124
 5721W        W 7871  20.656   0.683   6.440 -0.3510 -0.1632 -0.3595
 5722W        W 7872  21.652   7.437   4.250  0.0190 -0.2878 -0.0385
 5723W        W 7873  24.381   1.171  28.374 -0.1848 -0.2859  0.1729
 5724W        W 7874  14.635   0.223  24.365 -0.0783  0.0982 -0.1661
 5725W        W 7875   8.838   3.488   0.603 -0.0002  0.1527  0.1284
 5726W        W 7876  19.606   4.856  16.665 -0.4406 -0.0282 -0.0220
 5727W        W 7877  21.204   4.568  19.517  0.1345  0.2037  0.0163
 5728W        W 7878   0.239   2.736   0.405  0.0445  0.2874  0.1674
 5729W        W 7879   5.429   3.475  30.227  0.3151  0.0378  0.0561
 5730W        W 7880  20.480   7.369   3.080  0.2296  0.0783 -0.0446
 5731W        W 7881  12.317   4.405  23.670 -0.2343  0.1014  0.0006
 5732W        W 7882   7.577   3.334   2.793  0.0924  0.1243 -0.0478
 5733W        W 7883  12.604   2.407  30.232 -0.1415 -0.0551  0.0738
 5734W        W 7884   1.764   1.044   5.605  0.0934 -0.1647 -0.2257
 5735W        W 7885   1.212   6.928  28.873  0.1132  0.2686 -0.4444
 5736W        W 7886  10.803   6.776   7.342 -0.0349 -0.1203 -0.0991
 5737W        W 7887   8.112   7.247  10.345 -0.0904 -0.3138  0.0378
 5738W        W 7888  22.535   0.617  12.146  0.0346 -0.0511 -0.0290
 5739W        W 7889   6.929   6.024   0.162 -0.1902 -0.1541  0.2006
 5740W        W 7890  10.419   2.550   5.366 -0.0888  0.0024  0.0001
 5741W        W 7891  20.420   5.252  19.615 -0.3154 -0.0653  0.2078
 5742W        W 7892   4.280   3.390  28.811 -0.1965  0.0249  0.0978
 5743W        W 7893   9.349   2.649  27.469 -0.0217 -0.2314 -0.2394
 5744W        W 7894   9.279   1.055   0.455 -0.0475  0.1793 -0.3350
 5745W        W 7895   6.550   1.530  26.055  0.2589 -0.1406 -0.0916
 5746W        W 7896   9.088   2.387   9.000 -0.1614  0.1851  0.1230
 5747W        W 7897  20.115   0.350  21.768  0.0168  0.2437 -0.1154
 5748W        W 7898  13.070   2.606   1.554  0.1243 -0.0927 -0.0693
 5749W        W 7899   5.864   1.026  13.433  0.2898  0.2362 -0.1471
 5750W        W 7900  21.820   5.524  30.330  0.0602  0.0441 -0.4722
 5751W        W 7901   3.915   3.503  12.783 -0.3124  0.0206 -0.0668
 5752W        W 7902  15.275   3.661  32.429 -0.0174  0.1509 -0.2148
 5753W        W 7903  12.907   2.240  18.362 -0.1838  0.0016  0.1930
 5754W        W 7904   1.840   3.678  32.641 -0.0524 -0.2382  0.1218
 5755W        W 7905   1.139   3.516   9.817  0.0470 -0.0309  0.0622
 5756W        W 7906  20.590   2.502  32.035 -0.4043 -0.0595 -0.0240
 5757W        W 7907  19.298   3.495   1.167  0.3449  0.0602 -0.0900
 5758W        W 7908  17.562   4.850  32.224 -0.1362  0.0352 -0.2789
 5759W        W 7909   1.299   6.378   6.073 -0.3401 -0.1714 -0.1250
 5760W        W 7910  12.600   1.818  22.831  0.2389 -0.5077  0.0103
 5761W        W 7911   0.591   3.036   5.094  0.0742 -0.1232 -0.2088
 5762W        W 7912  15.392   0.199  15.660 -0.0295 -0.1706 -0.0700
 5763W        W 7913  20.075   7.411  20.876 -0.2438 -0.0029 -0.1154
 5764W        W 7914  10.496   2.180   3.886 -0.0733 -0.0221 -0.0432
 5765W        W 7915  17.625   0.973  16.453  0.0887  0.1860  0.0904
 5766W        W 7916   3.477   6.974   9.620 -0.1696 -0.1157 -0.2187
 5767W        W 7917   8.836   1.213  32.444  0.1773 -0.0330  0.0380
 5768W        W 7918  24.880   4.668   4.869 -0.1965  0.0747  0.3303
 5769W        W 7919   6.143   6.197   5.407  0.3829 -0.3230 -0.0006
 5770W        W 7920   6.633   6.522  28.878  0.0902  0.0782  0.1863
 5771W        W 7921  18.349   1.580   1.970 -0.0072  0.0565  0.0202
 5772W        W 7922  19.995   2.924  19.378 -0.1146  0.1595 -0.0754
 5773W        W 7923   5.889   2.066  31.912 -0.1848 -0.0354  0.1771
 5774W        W 7924   5.509   6.328   6.573 -0.2409 -0.0701 -0.3148
 5775W        W 7925  24.715   2.381  22.155  0.3496 -0.0383 -0.0485
 5776W        W 7926   1.230   5.337  28.271 -0.2176 -0.0064 -0.0902
 5777W        W 7927   9.050   2.929  12.968  0.2167 -0.1862 -0.0389
 5778W        W 7928  13.122   6.718  16.436  0.1027  0.2885  0.2209
 5779W        W 7929  22.945   4.318   0.031 -0.4735  0.2181  0.0526
 5780W        W 7930   6.133   5.091  26.097 -0.1322  0.3014 -0.1289
 5781W        W 7931   4.546   7.695  15.163 -0.0142  0.7104 -0.0464
 5782W        W 7932  14.097   5.787  16.964 -0.3698  0.0993  0.0188
 5783W        W 7933  11.775   5.193  22.689  0.2126 -0.1540  0.0668
 5784W        W 7934  22.789   7.377   7.787  0.0836  0.1337  0.1000
 5785W        W 7935  13.343   4.258   6.836 -0.0059  0.0375 -0.0125
 5786W        W 7936  15.050   7.531   4.212 -0.0770 -0.2828  0.1767
 5787W        W 7937   0.570   4.662  15.903  0.1480  0.2844  0.0353
 5788W        W 7938  10.424   6.758  30.287 -0.0499  0.1281 -0.1446
 5789W        W 7939   6.240   0.964   6.646 -0.0135  0.1448 -0.0361
 5790W        W 7940  11.629   5.655   0.186 -0.2722 -0.2415 -0.0581
 5791W        W 7941   4.470   3.818  27.867 -0.3429 -0.0524  0.2077
 5792W        W 7942  14.449   0.841   3.346 -0.0647  0.0146  0.1291
 5793W        W 7943  15.261   6.550  32.618 -0.0534  0.0684 -0.0983
 5794W        W 7944   2.205   4.364  10.911  0.0532  0.5328  0.0403
 5795W        W 7945  19.078   6.961  31.687 -0.0701  0.0495  0.0625
 5796W        W 7946  14.075   1.597   6.237  0.1243  0.0179  0.0144
 5797W        W 7947   1.680   6.525   8.476  0.3462 -0.0664 -0.0443
 5798W        W 7948   4.058   7.139   4.467  0.0553 -0.0846  0.1062
 5799W        W 7949   7.639   4.256  13.374 -0.0505 -0.3618 -0.0437
 5800W        W 7950  14.943   2.957  29.798  0.1602  0.0390 -0.0157
 5801W        W 7951  16.649   0.913  32.176  0.1077 -0.1226  0.2414
 5802W        W 7952  22.296   3.933  30.833  0.2075 -0.0570 -0.1437
 5803W        W 7953  22.296   2.355   6.432 -0.1776  0.0558 -0.0796
 5804W        W 7954  14.406   2.766  19.005  0.2806 -0.2750  0.0684
 5805W        W 7955  19.618   6.515  18.465 -0.2258 -0.6218 -0.4895
 5806W        W 7956  10.011   2.574  26.037 -0.2270  0.1495  0.0660
 5807W        W 7957  15.385   2.988   8.117  0.0065 -0.0575  0.0277
 5808W        W 7958  22.590   6.231  24.066 -0.1600 -0.1606 -0.2440
 5809W        W 7959  23.703   0.727  32.727 -0.0101  0.0754 -0.0584
 5810W        W 7960  22.745   0.402  19.825 -0.1930 -0.0889  0.1512
 5811W        W 7961  11.470   6.584   3.628 -0.3305 -0.0524 -0.0833
 5812W        W 7962   4.585   4.614  28.257 -0.2916  0.2776 -0.1189
 5813W        W 7963   0.909   7.347   9.378 -0.0112 -0.1111 -0.0259
 5814W        W 7964  14.872   5.928   3.395  0.0829 -0.2729  0.3665
 5815W        W 7965  14.558   0.631   8.822  0.4212  0.0123 -0.0074
 5816W        W 7966   0.270   3.159  10.865  0.2505 -0.1805  0.2832
 5817W        W 7967   0.627   3.926  10.202 -0.3618 -0.3157  0.0569
 5818W        W 7968   3.716   2.475  28.905  0.0260  0.0842  0.0139
 5819W        W 7969  18.777   3.104  10.227 -0.1971 -0.1180 -0.0443
 5820W        W 7970   3.936   1.807  31.288 -0.1018 -0.1396  0.2968
 5821W        W 7971  16.695   3.714  28.688  0.0058  0.0896 -0.1034
 5822W        W 7972  14.663   1.237  31.380  0.2905 -0.1362  0.1474
 5823W        W 7973   9.007   1.801  10.306 -0.0491  0.0024 -0.2048
 5824W        W 7974   1.801   6.992  27.712  0.2117  0.0931 -0.1086
 5825W        W 7975   9.282   1.907  13.973 -0.2527 -0.2228 -0.0914
 5826W        W 7976   5.675   1.126  29.645 -0.2599  0.0688  0.0338
 5827W        W 7977   2.220   4.057  16.982 -0.1604  0.1031 -0.0455
 5828W        W 7978  14.026   2.933   2.298  0.1620  0.3536  0.1429
 5829W        W 7979  18.651   6.257  24.032  0.1355  0.2745 -0.4652
 5830W        W 7980  20.190   4.549  22.738 -0.0578 -0.4324  0.0787
 5831W        W 7981  22.476   6.450  22.134 -0.1194 -0.1458  0.0671
 5832W        W 7982  16.609   0.843   2.355 -0.0125  0.0490  0.1589
 5833W        W 7983   6.935   6.567  23.482  0.1710  0.0002  0.0812
 5834W        W 7984  24.762   2.538   2.537  0.0867  0.0415  0.2242
 5835W        W 7985  12.978   6.845   3.815  0.3379 -0.0024  0.1869
 5836W        W 7986   7.532   1.969  26.369  0.0759  0.2468 -0.0377
 5837W        W 7987   3.742   3.160  14.442  0.0234 -0.0206 -0.0283
 5838W        W 7988  17.920   3.788  32.862  0.1888 -0.0303  0.2839
 5839W        W 7989   1.618   4.637   9.710  0.2521  0.1448 -0.1669
 5840W        W 7990   8.543   1.591   3.720  0.2316 -0.2578  0.1155
 5841W        W 7991  19.931   1.937   3.887  0.0378  0.2786 -0.2428
 5842W        W 7992  24.330   2.830   8.737  0.0478  0.1932  0.0500
 5843W        W 7993  16.833   1.153  22.115 -0.1624 -0.1874  0.2214
 5844W        W 7994  20.920   6.865   4.204  0.1203  0.0319 -0.1007
 5845W        W 7995  12.098   2.314   2.544 -0.0596 -0.1921  0.0604
 5846W        W 7996  20.708   2.257   0.332 -0.0511  0.0234  0.0214
 5847W        W 7997  22.983   5.930  20.871  0.0725 -0.0891 -0.1787
 5848W        W 7998   0.850   6.664   5.446 -0.3028  0.0510  0.0553
 5849W        W 7999  23.454   6.776  21.045 -0.1240  0.0438 -0.1453
 5850W        W 8000   7.219   4.169  27.112  0.2669 -0.0887 -0.1337
 5851W        W 8001  15.305   7.258  15.368  0.1908  0.1115 -0.1820
 5852W        W 8002   7.845   0.757  22.214  0.2239  0.0694  0.1753
 5853W        W 8003  13.446   6.784  25.754 -0.0624  0.1148  0.1576
 5854W        W 8004  16.005   7.612   4.160  0.0490 -0.2446 -0.1536
 5855W        W 8005  10.036   0.192  12.870 -0.0384 -0.3313 -0.0987
 5856W        W 8006  12.564   3.299   8.006  0.0653 -0.1802  0.0635
 5857W        W 8007   4.930   4.784  12.957 -0.1333  0.1661 -0.2361
 5858W        W 8008  17.842   2.492  28.956 -0.1353 -0.0442  0.1786
 5859W        W 8009  16.028   0.288   0.902  0.0218 -0.1866  0.2548
 5860W        W 8010   2.188   2.962  29.489  0.3908 -0.2566 -0.3248
 5861W        W 8011   0.085   5.660   3.404  0.1790 -0.0679  0.0084
 5862W        W 8012  13.162   0.912   2.178  0.0353  0.1085  0.1143
 5863W        W 8013  21.932   3.699  25.957  0.0831  0.2302 -0.1723
 5864W        W 8014  24.046   3.435   1.187  0.0359  0.2878 -0.2369
 5865W        W 8015  14.664   5.668  32.223 -0.0498 -0.2340  0.2356
 5866W        W 8016  12.812   4.400   7.766 -0.0002  0.0166 -0.1268
 5867W        W 8017  16.993   7.373   4.573 -0.1464 -0.1987  0.1121
 5868W        W 8018  10.363   4.880   6.221  0.1579 -0.1739  0.3481
 5869W        W 8019  10.878   0.229  19.089 -0.1018 -0.0656 -0.0911
 5870W        W 8020  24.536   5.106   2.881 -0.0863 -0.1284 -0.2423
 5871W        W 8021   3.866   2.552   6.372 -0.0587  0.3986 -0.3690
 5872W        W 8022   7.291   4.171   6.424  0.2036  0.1196 -0.0055
 5873W        W 8023  11.249   7.420   5.335  0.0355 -0.1187 -0.4484
 5874W        W 8024  19.047   2.922  24.133 -0.0650 -0.0265 -0.1527
 5875W        W 8025  10.845   3.022  19.606 -0.1715  0.1026  0.2119
 5876W        W 8026  21.306   4.974   6.737  0.0418 -0.1392  0.2327
 5877W        W 8027   1.573   2.301  28.654 -0.1167  0.0297  0.0714
 5878W        W 8028  14.341   4.681  16.435  0.0003  0.1716  0.1085
 5879W        W 8029   0.363   7.552  23.773  0.1132  0.1003 -0.0889
 5880W        W 8030  15.409   6.504  21.824  0.2453 -0.2614 -0.0560
 5881W        W 8031   5.485   6.821   9.039  0.2653 -0.1321 -0.0224
 5882W        W 8032  20.182   7.506   2.723  0.2221  0.2784 -0.4157
 5883W        W 8033  23.428   0.922   7.909 -0.1251  0.1864 -0.1714
 5884W        W 8034   1.621   7.607   4.177 -0.1411  0.3781 -0.3554
 5885W        W 8035  14.632   4.399  28.830 -0.3438 -0.0621 -0.2622
 5886W        W 8036  18.108   3.193   2.397 -0.0215 -0.1001 -0.2381
 5887W        W 8037   4.914   3.018  14.138 -0.0103  0.0190 -0.0785
 5888W        W 8038   2.985   7.668  26.033 -0.2832  0.0284  0.1453
 5889W        W 8039  15.947   3.840   0.069 -0.0980 -0.1983 -0.1657
 5890W        W 8040  21.622   1.989  22.950 -0.1670 -0.0614  0.3139
 5891W        W 8041   6.201   5.063  23.642 -0.2000  0.0198 -0.2773
 5892W        W 8042  23.661   7.554   4.785  0.0644  0.0490  0.2185
 5893W        W 8043   5.784   5.850  14.658  0.3006 -0.1056  0.1094
 5894W        W 8044  12.287   4.733  26.920  0.0899 -0.0577 -0.1364
 5895W        W 8045  13.146   4.947  21.335 -0.3415 -0.1807 -0.2980
 5896W        W 8046  23.526   4.430   3.080  0.0859  0.1623  0.1529
 5897W        W 8047  13.834   6.070  16.528 -0.4435 -0.1443 -0.1139
 5898W        W 8048   3.629   0.256  28.503  0.3223  0.0699 -0.0967
 5899W        W 8049  15.611   7.129  27.399  0.3347 -0.2617  0.0989
 5900W        W 8050  11.485   0.254  27.505  0.1302  0.1876  0.0517
 5901W        W 8051   6.032   4.949  30.069  0.1264  0.2248  0.1072
 5902W        W 8052  12.056   5.956  10.487 -0.2201 -0.3472 -0.2324
 5903W        W 8053  16.026   6.632   1.390 -0.0336  0.1411  0.3359
 5904W        W 8054  13.951   3.820  19.798  0.1322  0.0918  0.1687
 5905W        W 8055  13.399   6.682  26.746 -0.0147 -0.2555  0.3925
 5906W        W 8056   1.010   2.312  28.000 -0.1329  0.1112  0.0749
 5907W        W 8057  23.230   1.105   4.755 -0.0279 -0.0624 -0.1834
 5908W        W 8058  22.502   7.783  21.072 -0.0463  0.0981 -0.2197
 5909W        W 8059  18.344   3.415   2.823  0.1477 -0.2360 -0.4148
 5910W        W 8060  17.659   2.467  25.478 -0.6517  0.1488  0.5009
 5911W        W 8061  20.880   4.971   7.054 -0.0753  0.0862  0.1958
 5912W        W 8062  21.266   3.945  32.933 -0.2204  0.1621  0.3825
 5913W        W 8063  20.264   4.866   6.281  0.0525  0.0254 -0.1026
 5914W        W 8064  10.655   7.579  27.169  0.2347 -0.0859  0.0837
 5915W        W 8065  10.204   1.450   5.472  0.3700 -0.0523  0.0664
 5916W        W 8066  24.954   4.576  13.436  0.0843 -0.2315 -0.2013
 5917W        W 8067   2.139   6.706   6.104 -0.1640  0.0128 -0.1360
 5918W        W 8068  23.450   1.581  23.173  0.3076  0.3496 -0.0134
 5919W        W 8069   8.821   6.439  23.185  0.1579 -0.0732 -0.2752
 5920W        W 8070   6.539   4.122  15.083 -0.0306 -0.1409  0.1109
 5921W        W 8071   8.497   4.690  12.041 -0.0609 -0.0943 -0.1585
 5922W        W 8072  10.026   1.205   1.575  0.2518 -0.2079 -0.1402
 5923W        W 8073  12.857   2.331  29.732 -0.2375  0.0408 -0.0992
 5924W        W 8074  13.107   5.130  26.981 -0.0553  0.1212 -0.0179
 5925W        W 8075  21.697   0.049   4.580  0.0537  0.2072 -0.2550
 5926W        W 8076   0.532   0.717   7.503 -0.2572  0.1514 -0.1815
 5927W        W 8077   5.935   4.992  15.792 -0.0580  0.0929  0.2213
 5928W        W 8078  19.838   4.493   4.299  0.2407  0.0233  0.1099
 5929W        W 8079  10.439   4.152   7.667 -0.2228  0.1014  0.3571
 5930W        W 8080   1.496   1.661  32.642  0.1483  0.2277  0.0552
 5931W        W 8081   6.544   4.087   3.564 -0.0252  0.2136  0.0332
 5932W        W 8082  11.320   3.519  30.227 -0.0965  0.0331  0.0324
 5933W        W 8083   9.864   5.544  30.537  0.1368 -0.0615 -0.2573
 5934W        W 8084  24.668   1.651  24.195  0.0224 -0.1257  0.0460
 5935W        W 8085  13.239   5.493   6.649 -0.3773 -0.1570  0.0532
 5936W        W 8086  23.047   1.342   8.490 -0.2547  0.0463  0.0891
 5937W        W 8087  17.652   6.375   7.547  0.1211  0.0813 -0.0554
 5938W        W 8088   2.626   4.408  10.532  0.0317 -0.1742 -0.0733
 5939W        W 8089   3.443   3.889  13.361 -0.2071  0.2387 -0.1674
 5940W        W 8090  23.944   2.067   2.034 -0.0637 -0.1630 -0.0591
 5941W        W 8091   5.176   2.971  16.080  0.1692  0.1769 -0.1078
 5942W        W 8092   6.912   5.613  25.513  0.0015  0.2011  0.1064
 5943W        W 8093   1.853   1.887   5.806 -0.1914  0.3346  0.4281
 5944W        W 8094   3.508   3.443   2.939 -0.2684 -0.3195  0.1279
 5945W        W 8095  20.993   4.538   6.864  0.5134 -0.0117 -0.1512
 5946W        W 8096   9.876   2.135  10.153  0.4614  0.1131 -0.1290
 5947W        W 8097  22.982   1.930  26.504  0.0158  0.1435 -0.0956
 5948W        W 8098  15.007   7.778  19.645 -0.1516 -0.1147 -0.1251
 5949W        W 8099  15.376   7.507   3.767  0.2628 -0.1040  0.3593
 5950W        W 8100  15.405   1.182  21.958  0.1356 -0.0827 -0.0729
 5951W        W 8101   6.846   0.881  29.151  0.0676 -0.3625 -0.1856
 5952W        W 8102  18.268   4.682   7.569 -0.1760  0.1144 -0.2488
 5953W        W 8103  12.802   6.746  29.292  0.1024  0.1018 -0.0597
 5954W        W 8104   4.698   3.743  30.008  0.1700 -0.1771  0.1022
 5955W        W 8105   2.680   3.529  32.141 -0.1970 -0.0375  0.2213
 5956W        W 8106  23.399   2.529  10.446 -0.4141  0.1021  0.1920
 5957W        W 8107   7.332   3.767  14.500 -0.1753  0.1450 -0.1550
 5958W        W 8108  12.768   4.411  20.623 -0.2210  0.2086  0.2303
 5959W        W 8109  13.171   3.412  22.419 -0.1915 -0.2786  0.0455
 5960W        W 8110  20.436   0.853  29.690 -0.1403 -0.2058 -0.3242
 5961W        W 8111   8.396   7.095   9.675 -0.1025  0.1633 -0.0472
 5962W        W 8112   8.102   6.408  10.979 -0.0849 -0.2282 -0.1951
 5963W        W 8113   7.310   5.310   1.737 -0.2810  0.2108  0.1452
 5964W        W 8114  18.712   3.217  23.174 -0.1378 -0.1821  0.2212
 5965W        W 8115  14.034   4.612  24.681 -0.0194 -0.0832 -0.1801
 5966W        W 8116   0.179   5.132  23.509  0.3151 -0.1525  0.0040
 5967W        W 8117   3.617   2.796  14.105  0.0827  0.1890  0.0468
 5968W        W 8118   7.926   3.502  12.194  0.1745 -0.1669  0.0814
 5969W        W 8119  16.701   7.394   0.393 -0.1639 -0.1130 -0.0615
 5970W        W 8120  12.091   7.597   1.131  0.0390  0.0799 -0.0561
 5971W        W 8121   9.349   6.821  27.154 -0.0276  0.0588  0.3409
 5972W        W 8122   7.139   3.507  26.400  0.3020 -0.0625  0.1261
 5973W        W 8123  24.210   2.203  27.319 -0.2065 -0.1875 -0.2208
 5974W        W 8124   3.928   3.974  23.189 -0.0573 -0.0958 -0.0372
 5975W        W 8125   8.205   6.798   9.262 -0.0844 -0.1387 -0.3146
 5976W        W 8126  10.966   5.887   8.946  0.1124 -0.0387  0.1098
 5977W        W 8127  12.301   3.378  16.631  0.4280  0.1618 -0.0313
 5978W        W 8128   8.976   7.214  13.887 -0.2274  0.0545  0.1841
 5979W        W 8129  21.282   6.553  12.521  0.0417  0.0831 -0.0184
 5980W        W 8130  11.433   1.263   9.565 -0.0970 -0.1487 -0.0414
 5981W        W 8131  18.158   3.024  16.960  0.1087  0.1450 -0.0128
 5982W        W 8132  14.801   3.750   7.774 -0.1190 -0.1213  0.0560
 5983W        W 8133   2.629   2.005  14.314  0.0229 -0.0862 -0.0000
 5984W        W 8134  10.707   2.411  26.363 -0.0039  0.1832  0.1461
 5985W        W 8135  15.989   0.049  32.488 -0.2476 -0.1824 -0.0498
 5986W        W 8136   5.017   1.221  10.299  0.0635 -0.0169  0.0090
 5987W        W 8137  22.244   5.965  31.761 -0.1327  0.0508 -0.3542
 5988W        W 8138  23.770   3.850  29.457 -0.1462 -0.1518 -0.1154
 5989W        W 8139   4.765   7.449  30.681  0.3190  0.2654  0.0624
 5990W        W 8140   8.155   1.027  28.708  0.1352  0.0761  0.1245
 5991W        W 8141  16.719   7.615   8.281  0.1848 -0.0727  0.0041
 5992W        W 8142  17.832   0.861  15.662 -0.4171  0.1171 -0.0427
 5993W        W 8143  10.135   3.517  27.868 -0.0384  0.1513  0.1506
 5994W        W 8144   8.495   3.603   8.085 -0.0043  0.0216 -0.0976
 5995W        W 8145   0.279   2.936  12.112  0.3443  0.0389 -0.2870
 5996W        W 8146   2.226   2.271  13.436 -0.2071  0.2604  0.0424
 5997W        W 8147   7.053   1.150   6.205 -0.2453 -0.1180  0.0299
 5998W        W 8148   9.651   1.720  29.096  0.2784 -0.1413 -0.0856
 5999W        W 8149   7.055   1.909   7.559  0.2187  0.1104 -0.1218
 6000W        W 8150  16.838   5.042  31.507  0.0407  0.2618 -0.0143
 6001W        W 8151   7.563   6.426  12.780  0.4611  0.3329  0.1529
 6002W        W 8152   0.551   3.072  25.699  0.1201 -0.1912 -0.0779
 6003W        W 8153   4.618   6.775  13.996 -0.0155  0.0312 -0.1915
 6004W        W 8154   8.773   6.083  28.457 -0.0866 -0.0583  0.4196
 6005W        W 8155  12.523   0.130  22.380 -0.1935 -0.0267 -0.3081
 6006W        W 8156  13.980   3.013  28.105  0.0901 -0.0350  0.1380
 6007W        W 8157  19.734   2.991  17.956  0.0317  0.0765 -0.0375
 6008W        W 8158   2.877   3.590  29.959 -0.0795 -0.0762 -0.2508
 6009W        W 8159  21.648   2.392  27.633 -0.2291  0.2292 -0.1189
 6010W        W 8160   4.000   2.817  13.420 -0.1583 -0.0110 -0.1516
 6011W        W 8161   3.712   2.022  13.518 -0.0689  0.0979  0.0906
 6012W        W 8162  18.451   5.906  30.712 -0.1167 -0.1674 -0.1184
 6013W        W 8163  24.799   1.994  11.485  0.0944  0.0477 -0.0515
 6014W        W 8164   3.636   1.687  30.281 -0.0878  0.2753 -0.3058
 6015W        W 8165   6.497   6.848  15.515 -0.1154  0.2216 -0.2092
 6016W        W 8166   3.275   4.445  13.403  0.0058  0.1699  0.0443
 6017W        W 8167  17.205   2.446  19.362  0.1428  0.0453  0.1251
 6018W        W 8168  24.931   4.167  28.482 -0.1792 -0.0765  0.2632
 6019W        W 8169   7.904   2.048  29.105  0.1353  0.3277 -0.0464
 6020W        W 8170  10.433   2.369   9.319 -0.1998 -0.1044 -0.3951
 6021W        W 8171  12.254   5.196   5.270 -0.1166 -0.0858  0.2732
 6022W        W 8172  13.073   1.833  32.713  0.1304 -0.1381 -0.2296
 6023W        W 8173   7.818   2.393  13.441  0.1722  0.1495  0.0134
 6024W        W 8174  16.191   7.760  18.431 -0.2829  0.1340  0.2728
 6025W        W 8175  22.828   3.137  27.165 -0.0958 -0.0261  0.0967
 6026W        W 8176  20.176   1.235   6.726 -0.0710  0.2344  0.3161
 6027W        W 8177  24.041   3.188  23.041  0.2127  0.0256  0.0335
 6028W        W 8178   9.883   2.912  22.974  0.4040  0.0108 -0.0699
 6029W        W 8179  24.152   2.557   1.878 -0.1855 -0.0238  0.0991
 6030W        W 8180  10.609   5.684  28.169 -0.1623 -0.1359 -0.0678
 6031W        W 8181   0.772   0.929   8.054 -0.1526 -0.2742 -0.2365
 6032W        W 8182  11.587   7.304  17.807  0.0153 -0.3457 -0.3626
 6033W        W 8183  11.888   5.751  21.408  0.0234  0.4933 -0.3568
 6034W        W 8184   4.361   6.795  30.076 -0.1539  0.0654 -0.1192
 6035W        W 8185  21.033   6.880  21.631 -0.0009  0.1190 -0.0365
 6036W        W 8186  15.583   0.291  30.581 -0.0003  0.0695  0.0678
 6037W        W 8187   3.404   5.469  12.195 -0.0906  0.2463  0.2294
 6038W        W 8188  22.275   4.991   3.824 -0.4028  0.0324  0.4763
 6039W        W 8189  21.505   2.717   4.709 -0.0069  0.1236 -0.1045
 6040W        W 8190   0.473   6.634   1.098  0.2151 -0.0148 -0.1948
 6041W        W 8191  15.665   3.871  15.176 -0.0132 -0.1190 -0.3517
 6042W        W 8192  10.601   3.081  28.928  0.1824  0.4149 -0.1794
 6043W        W 8193   0.991   5.081  15.988 -0.0576 -0.0808  0.2658
 6044W        W 8194  12.050   4.299   0.115  0.2656 -0.2832 -0.1478
 6045W        W 8195   0.837   2.201  16.061  0.1231  0.0051 -0.2831
 6046W        W 8196  11.619   2.292  19.521  0.1743 -0.1974  0.1124
 6047W        W 8197   3.653   2.185   5.385  0.4412 -0.0785  0.1252
 6048W        W 8198  24.524   5.869  10.340 -0.1371  0.0778 -0.3302
 6049W        W 8199  21.176   5.013  27.970 -0.1334 -0.1809  0.3686
 6050W        W 8200  22.466   5.020  29.882  0.1824 -0.1047 -0.3223
 6051W        W 8201  13.527   2.515   6.971  0.0664  0.0479  0.1599
 6052W        W 8202   7.097   4.327  26.223 -0.0433 -0.0378 -0.0203
 6053W        W 8203   4.696   7.697  16.823 -0.1913  0.3351  0.1022
 6054W        W 8204   1.546   2.879   6.162 -0.1158 -0.2504  0.0862
 6055W        W 8205   4.181   7.148  27.946  0.2827 -0.2744  0.0514
 6056W        W 8206   2.892   5.412  11.915 -0.3451  0.4201  0.1281
 6057W        W 8207  20.916   5.022   8.342 -0.1112  0.1680  0.2643
 6058W        W 8208  18.879   4.712   4.260 -0.0464  0.1655  0.2485
 6059W        W 8209  23.935   5.372  28.313 -0.2702  0.3874  0.0646
 6060W        W 8210   3.033   4.952   2.834  0.0654  0.2814 -0.2117
 6061W        W 8211   7.155   6.863  30.636 -0.0405 -0.2304  0.1139
 6062W        W 8212   0.266   4.524  20.706  0.0202 -0.1687 -0.0496
 6063W        W 8213   4.847   1.309   5.203  0.0506 -0.0857  0.2674
 6064W        W 8214  24.651   2.313   4.964 -0.0462 -0.1832 -0.1375
 6065W        W 8215  16.865   2.948  15.939  0.0505  0.1417  0.1118
 6066W        W 8216  10.601   1.040  19.344  0.2065  0.0537 -0.1744
 6067W        W 8217  18.993   7.057  22.748  0.0449  0.1499 -0.6566
 6068W        W 8218  23.313   5.596   6.773  0.0336 -0.1082 -0.1057
 6069W        W 8219  19.154   4.941  19.419  0.1896 -0.2398  0.4191
 6070W        W 8220  11.348   4.338  27.322 -0.0964  0.0656  0.2382
 6071W        W 8221  14.732   0.140   9.519 -0.5853 -0.0689 -0.3912
 6072W        W 8222  13.632   1.914  25.112 -0.0318  0.1011 -0.1658
 6073W        W 8223  14.521   3.478  22.214  0.2163  0.1947  0.0660
 6074W        W 8224   4.803   6.959  13.505  0.0266 -0.0967  0.0301
 6075W        W 8225  21.675   6.104  19.088 -0.0202  0.1588  0.2079
 6076W        W 8226  17.659   3.737   0.248 -0.0193  0.1315  0.1610
 6077W        W 8227  15.851   3.011  19.952  0.1545  0.0493 -0.1344
 6078W        W 8228  16.581   5.340   0.771 -0.0403  0.0180 -0.1925
 6079W        W 8229   8.098   0.928  31.446 -0.1434  0.1919 -0.1528
 6080W        W 8230   9.462   2.655  12.226  0.0844  0.1945 -0.1284
 6081W        W 8231  18.275   3.307  15.442  0.0423 -0.2054 -0.0612
 6082W        W 8232  17.215   6.205   7.662  0.1932  0.3443 -0.0539
 6083W        W 8233   1.103   4.066   8.386 -0.1117 -0.1332  0.1456
 6084W        W 8234   4.928   2.534  25.895 -0.3676 -0.1634 -0.3857
 6085W        W 8235  13.274   6.307  17.294 -0.1420  0.1457 -0.6542
 6086W        W 8236   4.375   7.286   1.039 -0.1478  0.0262  0.0473
 6087W        W 8237   5.176   0.795  28.528 -0.2153  0.2980 -0.0760
 6088W        W 8238   7.594   1.010  23.745  0.1490  0.0679 -0.1230
 6089W        W 8239  16.880   5.406   7.160 -0.0491 -0.1757 -0.0566
 6090W        W 8240   9.486   1.681   6.489  0.0413 -0.0897 -0.0311
 6091W        W 8241   7.899   5.494  32.753  0.0083  0.3251 -0.0454
 6092W        W 8242  16.193   4.283   8.091  0.1598  0.0627  0.4044
 6093W        W 8243  16.521   5.022   5.709  0.2072 -0.0605  0.3110
 6094W        W 8244  17.241   3.862  28.002  0.1484  0.3027  0.1033
 6095W        W 8245   3.154   0.587   1.441  0.1094 -0.3597 -0.0051
 6096W        W 8246  24.935   5.237  30.650 -0.1171 -0.0911  0.0277
 6097W        W 8247   6.696   1.423  28.854 -0.1513 -0.1146  0.2112
 6098W        W 8248   0.633   4.895   8.067 -0.0105  0.0707  0.0540
 6099W        W 8249   6.989   4.172  28.803 -0.1992  0.1492 -0.1250
 6100W        W 8250  24.332   7.684  19.644  0.0866 -0.0848  0.1145
 6101W        W 8251   4.754   0.425  26.292  0.2273  0.2169 -0.0359
 6102W        W 8252   2.695   3.236  29.630 -0.1050 -0.2212  0.4364
 6103W        W 8253  10.009   6.515  21.607  0.0827 -0.0122 -0.0817
 6104W        W 8254  21.277   3.998  20.302 -0.1242 -0.0460 -0.0924
 6105W        W 8255   9.477   3.743  23.850  0.2130  0.2656 -0.2163
 6106W        W 8256   9.736   4.151  28.750 -0.0707 -0.2354 -0.0621
 6107W        W 8257  22.134   6.868   7.344 -0.2838 -0.2313  0.1335
 6108W        W 8258   8.112   3.475  24.137 -0.0933 -0.2802  0.2611
 6109W        W 8259   1.214   5.716   8.116  0.2536 -0.2320  0.2785
 6110W        W 8260  16.363   3.990  17.485  0.1006 -0.0159 -0.0762
 6111W        W 8261   4.681   7.650  14.691  0.2083 -0.1586 -0.1616
 6112W        W 8262   6.340   0.022   5.566 -0.1452 -0.2968  0.0484
 6113W        W 8263   7.150   0.968   4.818  0.0187 -0.0451 -0.0499
 6114W        W 8264  20.854   4.777   6.340  0.4519  0.0997  0.2675
 6115W        W 8265   4.874   0.445  17.436 -0.2005  0.0491  0.1397
 6116W        W 8266  23.713   4.022   1.505 -0.1262 -0.0957  0.2012
 6117W        W 8267  10.317   4.528  25.920  0.0661 -0.2893 -0.0973
 6118W        W 8268  22.118   6.092  23.951 -0.2012  0.1205 -0.0842
 6119W        W 8269  21.706   3.191  18.547  0.0409  0.1178  0.2765
 6120W        W 8270  15.457   3.309   1.277 -0.0905  0.2941 -0.1658
 6121W        W 8271  18.230   2.787  15.625  0.0758 -0.3827  0.4065
 6122W        W 8272  19.171   3.869  20.416 -0.2762 -0.1897 -0.0192
 6123W        W 8273  15.059   0.757   5.193  0.2454 -0.2718  0.2178
 6124W        W 8274  18.706   5.765  23.511  0.1834 -0.1953  0.0613
 6125W        W 8275  10.525   2.314  25.435 -0.3512 -0.1951 -0.0906
 6126W        W 8276   1.203   5.602  14.939  0.2326  0.0373 -0.0303
 6127W        W 8277   1.786   0.746  14.236 -0.2384  0.1140 -0.1212
 6128W        W 8278  13.013   1.705  26.923 -0.0506 -0.0173 -0.0359
 6129W        W 8279   2.622   3.325  32.873 -0.0453  0.1910  0.2958
 6130W        W 8280  12.446   6.922  29.601  0.2785  0.0446 -0.0451
 6131W        W 8281  22.070   6.657  27.321  0.1509  0.0383  0.0631
 6132W        W 8282  22.723   1.320  29.171  0.1873  0.1559 -0.0971
 6133W        W 8283  14.990   5.378  24.195 -0.2320  0.0387  0.0093
 6134W        W 8284   2.353   1.106   7.544 -0.2907 -0.2038 -0.0448
 6135W        W 8285  22.148   2.447   1.020 -0.1763  0.1632  0.1176
 6136W        W 8286   1.868   5.590  29.375  0.0431 -0.0442 -0.3336
 6137W        W 8287  11.221   6.452  31.577  0.0032  0.0004 -0.0828
 6138W        W 8288   3.689   3.136  13.168 -0.2812 -0.1238  0.0420
 6139W        W 8289   0.073   5.929   5.681 -0.0244 -0.1512 -0.0222
 6140W        W 8290  21.187   0.169   4.890 -0.0367  0.1901 -0.2183
 6141W        W 8291  23.762   2.938  14.441 -0.0923  0.0482 -0.0414
 6142W        W 8292   0.091   6.843   0.294 -0.2078 -0.1582  0.0039
 6143W        W 8293  17.984   0.485   4.435  0.0524 -0.1439  0.0324
 6144W        W 8294  19.201   4.211  32.735 -0.0376  0.4250  0.2941
 6145W        W 8295  19.047   2.521  27.731 -0.3632 -0.2348 -0.2755
 6146W        W 8296  22.152   2.619   2.279 -0.0504  0.0685 -0.0831
 6147W        W 8297  18.234   0.936   7.376 -0.0732  0.0769  0.1979
 6148W        W 8298  21.232   1.268  30.609 -0.3641 -0.2402  0.1024
 6149W        W 8299  17.026   3.867   7.037  0.2305  0.0269  0.1541
 6150W        W 8300   7.494   4.120  12.897  0.2454 -0.2365 -0.1133
 6151W        W 8301  12.549   2.633   0.587  0.3084 -0.5188  0.0327
 6152W        W 8302   1.942   2.010  32.084  0.0422 -0.0769  0.1239
 6153W        W 8303  14.965   3.983   1.580 -0.1940 -0.1717  0.4389
 6154W        W 8304   5.746   7.066  30.626  0.4356  0.2204 -0.1315
 6155W        W 8305   9.334   1.452   7.032 -0.1176 -0.1643  0.1548
 6156W        W 8306  21.644   5.400  25.446 -0.0585  0.2095  0.3323
 6157W        W 8307  13.253   6.685   2.118 -0.2153 -0.1668  0.0556
 6158W        W 8308   5.184   0.095  22.344  0.1371 -0.2635 -0.1423
 6159W        W 8309   6.353   7.303   3.726  0.4429 -0.1497  0.1463
 6160W        W 8310  15.397   1.010   8.494 -0.2639 -0.2292  0.0321
 6161W        W 8311   8.611   7.185   7.235  0.1368 -0.3243  0.1033
 6162W        W 8312   7.203   7.030   1.872  0.2141  0.2320 -0.0400
 6163W        W 8313  21.393   1.204   0.799 -0.1005 -0.2191 -0.0531
 6164W        W 8314   5.965   6.224  14.382 -0.1222  0.1308 -0.0838
 6165W        W 8315   0.396   3.675  30.459 -0.1200  0.1627 -0.0004
 6166W        W 8316  11.481   6.386  30.248 -0.1503 -0.1192  0.0251
 6167W        W 8317  18.089   0.339  26.298  0.0993  0.0845 -0.0377
 6168W        W 8318  15.570   2.110  26.960  0.0589  0.1853  0.0413
 6169W        W 8319  17.660   5.964   0.932  0.1612  0.1963  0.1524
 6170W        W 8320   1.239   2.008  30.031 -0.1697 -0.1140 -0.0213
 6171W        W 8321   1.358   5.105   2.422 -0.1019 -0.0978 -0.2221
 6172W        W 8322  21.931   2.567  22.265  0.0612  0.0302 -0.2084
 6173W        W 8323  16.290   2.391  29.820 -0.0546  0.1910 -0.1489
 6174W        W 8324  18.854   5.250  29.366 -0.0629 -0.1376 -0.1123
 6175W        W 8325  21.689   7.195  26.217 -0.2669 -0.2186 -0.0902
 6176W        W 8326   8.649   4.354   3.006 -0.2490  0.2580  0.1952
 6177W        W 8327  15.565   4.845  10.114  0.0483 -0.0466  0.0122
 6178W        W 8328  20.933   4.373  18.146  0.2307 -0.0402 -0.0851
 6179W        W 8329   3.601   5.904  30.780 -0.1288 -0.0164  0.1909
 6180W        W 8330   6.551   7.153   5.486 -0.4131  0.1719 -0.0507
 6181W        W 8331  13.570   1.630  19.063 -0.2583 -0.2441  0.2731
 6182W        W 8332  13.856   3.938  20.290  0.1437  0.2387 -0.1568
 6183W        W 8333   1.666   3.369   6.708 -0.0197 -0.1191 -0.1255
 6184W        W 8334  19.487   4.377  25.809 -0.3343 -0.0423 -0.1837
 6185W        W 8335   4.577   2.630  22.988 -0.0965 -0.0810  0.1909
 6186W        W 8336  15.604   2.339  15.491 -0.0361 -0.0358  0.2403
 6187W        W 8337  17.246   5.561  16.793  0.2519 -0.0138 -0.0904
 6188W        W 8338  21.897   0.915  27.019  0.2547 -0.2621 -0.1045
 6189W        W 8339   1.237   5.416   4.846 -0.0240  0.1065  0.0620
 6190W        W 8340  24.720   1.881  13.035 -0.2781  0.1828 -0.0525
 6191W        W 8341   2.624   4.296   1.628  0.2195  0.2197 -0.1398
 6192W        W 8342  18.605   0.540  29.688  0.1374 -0.2346  0.0030
 6193W        W 8343  15.553   2.606   3.695 -0.3581  0.0204  0.1530
 6194W        W 8344   8.145   6.724  24.919  0.0415  0.6435 -0.0048
 6195W        W 8345   6.056   0.799   3.812  0.2872 -0.3208 -0.0560
 6196W        W 8346  21.916   1.702  27.428 -0.1733  0.1811  0.1181
 6197W        W 8347  12.309   7.177   7.000 -0.2416 -0.3842  0.0726
 6198W        W 8348  16.255   6.716  17.943 -0.1071  0.1372  0.0270
 6199W        W 8349  23.180   6.306  20.249  0.1164 -0.2715  0.1382
 6200W        W 8350   1.948   2.067   0.927  0.0863 -0.2133 -0.1673
 6201W        W 8351   3.211   4.504  11.237 -0.0053 -0.1574  0.0463
 6202W        W 8352  21.717   7.251   8.032 -0.1548  0.0927 -0.0341
 6203W        W 8353  13.370   3.563  17.818 -0.1632 -0.1027 -0.0285
 6204W        W 8354   6.932   6.728  23.993  0.0755  0.1360 -0.0035
 6205W        W 8355  22.778   0.025   8.902  0.0315 -0.0847  0.1399
 6206W        W 8356  19.004   5.197  18.308  0.0746 -0.0364  0.0188
 6207W        W 8357  16.511   1.371  31.020  0.0069 -0.0531 -0.0589
 6208W        W 8358  15.203   5.232  30.845 -0.0071 -0.1971 -0.0286
 6209W        W 8359  12.427   1.447   2.542 -0.0689  0.0352  0.0220
 6210W        W 8360  21.729   1.818  28.946 -0.0299  0.0926  0.1010
 6211W        W 8361  21.719   1.399  31.197  0.5332  0.5440  0.0915
 6212W        W 8362  17.168   0.723  25.753 -0.1434  0.0983 -0.0728
 6213W        W 8363   2.578   1.916   0.533  0.0801  0.0181  0.0277
 6214W        W 8364   0.337   0.326  22.220 -0.3494 -0.0430  0.2635
 6215W        W 8365   0.521   6.239   8.117  0.0644 -0.1470 -0.0565
 6216W        W 8366  23.771   5.452  10.598  0.0723  0.2391  0.0203
 6217W        W 8367  20.039   4.043   1.390 -0.0842  0.1878 -0.1212
 6218W        W 8368  11.996   2.171  28.537  0.1845 -0.1283  0.0108
 6219W        W 8369   9.864   1.905  28.707 -0.2724  0.0405 -0.0839
 6220W        W 8370  21.950   0.515  20.492 -0.0392 -0.2362  0.2144
 6221W        W 8371  16.653   4.231  19.413  0.0756 -0.0811  0.0657
 6222W        W 8372  13.810   2.745   4.982  0.1363  0.2951  0.0207
 6223W        W 8373  15.766   2.038   1.769 -0.0159 -0.5064 -0.2405
 6224W        W 8374  24.726   7.386   7.778 -0.1609  0.0069  0.0490
 6225W        W 8375   6.052   3.208   6.528 -0.0807  0.0293 -0.1144
 6226W        W 8376   1.698   1.122   0.965 -0.1608 -0.0561 -0.2838
 6227W        W 8377  24.632   4.010   8.706  0.3021 -0.0875  0.2206
 6228W        W 8378   1.593   2.146  24.218 -0.0430  0.2713 -0.0699
 6229W        W 8379   4.977   3.828   7.086  0.1339  0.0678 -0.0041
 6230W        W 8380  17.690   6.813   6.616  0.0690  0.0473  0.1756
 6231W        W 8381   2.449   5.999   8.886 -0.0612 -0.0991  0.0435
 6232W        W 8382  22.896   6.898  26.398  0.0465 -0.2846 -0.1426
 6233W        W 8383   9.499   0.627  25.606 -0.1648 -0.1022  0.0359
 6234W        W 8384  22.655   1.597   1.629 -0.2331  0.2848  0.0299
 6235W        W 8385  13.777   4.470   8.962  0.0930 -0.0127 -0.3306
 6236W        W 8386  21.562   3.742   6.980  0.3105  0.3182 -0.0076
 6237W        W 8387  17.116   5.142  27.804 -0.3246  0.0466 -0.2559
 6238W        W 8388  13.037   1.362  21.050 -0.1382  0.0462  0.3406
 6239W        W 8389   8.222   1.853  14.229  0.0827 -0.1594 -0.1773
 6240W        W 8390   6.978   5.359  24.434  0.2166  0.2506  0.1037
 6241W        W 8391  16.696   6.977  18.212  0.0430  0.0960 -0.1115
 6242W        W 8392   2.609   1.466   5.914 -0.0209  0.2018  0.2968
 6243W        W 8393  22.599   2.783  12.197 -0.3349 -0.0901  0.0380
 6244W        W 8394  20.907   7.533   5.665  0.0750 -0.2140  0.0701
 6245W        W 8395  20.760   2.495  28.772  0.2106 -0.2308 -0.0969
 6246W        W 8396  13.896   5.285   3.240  0.1990 -0.2236  0.1639
 6247W        W 8397   3.997   2.315  15.974  0.3679 -0.1651 -0.0461
 6248W        W 8398   2.559   0.923  30.558  0.3572  0.3376  0.0049
 6249W        W 8399   0.787   1.250  13.959  0.1598 -0.0752  0.0829
 6250W        W 8400   0.961   1.140   3.147 -0.1122  0.1853  0.0959
 6251W        W 8401  20.866   0.075  23.021  0.0548  0.1563  0.2248
 6252W        W 8402  22.228   7.644   3.007  0.1798 -0.2329  0.1823
 6253W        W 8403  23.469   2.154  31.515  0.0278  0.0783 -0.1139
 6254W        W 8404   9.345   7.450   1.660  0.3245 -0.0365 -0.2758
 6255W        W 8405   1.457   7.437  25.558  0.0429 -0.3407  0.2425
 6256W        W 8406  13.583   2.419  30.771  0.0708 -0.4386 -0.1421
 6257W        W 8407   3.652   3.979   3.776 -0.0373 -0.2154 -0.1145
 6258W        W 8408  13.959   5.042  19.232 -0.0463  0.1389 -0.2107
 6259W        W 8409   3.041   6.767  17.620 -0.2884 -0.0173  0.0625
 6260W        W 8410  21.049   3.603  21.026 -0.2290  0.3659  0.1549
 6261W        W 8411  11.100   7.040   9.422 -0.3888  0.0669 -0.2426
 6262W        W 8412   1.456   4.483   1.902  0.0654 -0.1560 -0.0348
 6263W        W 8413  14.416   1.005  24.553  0.0560  0.1052 -0.2113
 6264W        W 8414   3.194   5.498  13.974 -0.0025 -0.1328  0.0749
 6265W        W 8415  10.364   0.197  24.990 -0.2087 -0.3586 -0.0025
 6266W        W 8416  19.393   2.905  21.908 -0.0815 -0.1992  0.1402
 6267W        W 8417   1.983   3.083   7.101  0.1785 -0.1200 -0.1207
 6268W        W 8418   2.933   3.817  27.002  0.2120 -0.1000 -0.2147
 6269W        W 8419   0.523   6.396  29.426  0.0423  0.1472 -0.2303
 6270W        W 8420   6.269   6.068   9.659 -0.1874  0.2792 -0.3538
 6271W        W 8421  15.798   3.754  14.637  0.2188 -0.0035  0.1569
 6272W        W 8422  13.178   7.764   6.564  0.0327 -0.5080 -0.0768
 6273W        W 8423   1.510   4.259  24.156 -0.4982  0.2522  0.2197
 6274W        W 8424  22.846   5.534   5.248 -0.0075  0.2080 -0.0673
 6275W        W 8425  10.945   1.923   3.658  0.1048  0.1066 -0.1505
 6276W        W 8426   3.189   1.391   5.927 -0.2096 -0.0950  0.3553
 6277W        W 8427   4.266   2.304   8.521 -0.3087 -0.2351 -0.0142
 6278W        W 8428   5.911   6.497   5.793 -0.3170 -0.3616 -0.1434
 6279W        W 8429  23.123   4.894  30.102  0.0097 -0.0985 -0.1116
 6280W        W 8430  21.502   4.077  27.129 -0.2955  0.0521 -0.1867
 6281W        W 8431   3.776   6.632  13.107 -0.0036  0.2917  0.1670
 6282W        W 8432  20.574   6.014  22.737  0.1161 -0.0589 -0.1703
 6283W        W 8433   7.682   7.230   1.135  0.2240 -0.0380  0.0079
 6284W        W 8434  15.204   5.701  26.512  0.0295 -0.1120  0.0120
 6285W        W 8435   3.687   7.590  24.156  0.1189 -0.4031  0.1494
 6286W        W 8436   4.140   5.593  26.506 -0.0257  0.3066 -0.2129
 6287W        W 8437  12.356   3.234  11.473 -0.0237  0.2988  0.2659
 6288W        W 8438  18.438   2.793  21.831 -0.0017  0.0012 -0.3300
 6289W        W 8439   4.604   5.989  27.280  0.0330  0.2453 -0.0772
 6290W        W 8440   8.636   0.876   5.093  0.1131 -0.0014 -0.2281
 6291W        W 8441  22.475   0.598  25.765  0.3488  0.3266  0.0024
 6292W        W 8442  14.063   4.169  25.527 -0.1058  0.2384 -0.2358
 6293W        W 8443   9.285   3.887  12.657  0.0012 -0.0031  0.0203
 6294W        W 8444   5.171   3.147  28.058 -0.1589  0.1395 -0.2496
 6295W        W 8445   1.191   4.802  22.398  0.2834  0.0069  0.0088
 6296W        W 8446   1.563   2.466  30.002  0.2113 -0.0169  0.1855
 6297W        W 8447   3.181   3.114  27.536  0.2133 -0.1119  0.1720
 6298W        W 8448   0.049   3.887  21.636 -0.0658  0.3040  0.0905
 6299W        W 8449  19.814   0.931  29.031  0.0357 -0.1467 -0.0762
 6300W        W 8450  20.118   7.028  23.992  0.0404  0.0106  0.3065
 6301W        W 8451  13.058   0.926  24.321  0.0252  0.1069 -0.3563
 6302W        W 8452   4.536   6.788  31.807  0.0258  0.2562  0.0078
 6303W        W 8453  14.706   1.998  14.886  0.1298  0.0762  0.1110
 6304W        W 8454  14.412   6.910  18.837 -0.0618  0.0350  0.0199
 6305W        W 8455  17.071   7.186   1.826  0.0106 -0.0413 -0.2066
 6306W        W 8456   2.555   4.480  12.639 -0.1387 -0.0349  0.0569
 6307W        W 8457  10.882   5.419  22.905 -0.2386  0.2289 -0.0261
 6308W        W 8458   7.342   7.398   7.297 -0.0438 -0.0447  0.0045
 6309W        W 8459   0.425   0.933   5.454  0.1571 -0.1067 -0.0529
 6310W        W 8460  17.156   1.140  30.502  0.0909 -0.3456  0.2690
 6311W        W 8461  21.986   7.091   0.344 -0.2416  0.1120  0.1296
 6312W        W 8462   2.010   7.765  14.273  0.1884  0.0346 -0.0775
 6313W        W 8463  24.004   4.328  13.594  0.2827 -0.1882  0.1512
 6314W        W 8464  12.267   4.881  17.268 -0.0770 -0.1279  0.2162
 6315W        W 8465  18.616   2.454   8.954 -0.1648 -0.1865  0.2614
 6316W        W 8466  10.143   0.631  32.896  0.0307 -0.1743  0.0208
 6317W        W 8467   3.021   6.141  22.209 -0.1295 -0.0396  0.1152
 6318W        W 8468   7.951   1.812   5.035  0.1299 -0.0366  0.1299
 6319W        W 8469   8.386   2.726  29.704  0.2801  0.1539  0.1499
 6320W        W 8470   3.132   7.786  32.500  0.0718  0.0782  0.1959
 6321W        W 8471   7.447   1.348  14.246  0.0511 -0.1970 -0.3566
 6322W        W 8472   0.098   2.750  11.626  0.3859  0.2289  0.0512
 6323W        W 8473  21.043   5.394  19.675  0.1159  0.0670  0.1447
 6324W        W 8474   0.857   3.793  24.534  0.2828  0.3802  0.3360
 6325W        W 8475   7.407   4.890  28.520  0.2025 -0.1166  0.2692
 6326W        W 8476  15.652   4.187   2.850  0.0496  0.0505  0.1149
 6327W        W 8477  14.247   4.527  19.151 -0.2116  0.0960 -0.1242
 6328W        W 8478  20.690   6.524  11.598  0.0220 -0.0048 -0.1046
 6329W        W 8479  18.684   6.824  18.387 -0.0885 -0.0384 -0.0085
 6330W        W 8480   9.357   0.874   4.320 -0.2373 -0.0429  0.0865
 6331W        W 8481   0.075   5.138  10.138 -0.3248  0.0897  0.1990
 6332W        W 8482  16.657   0.933  25.710  0.0969  0.1241 -0.1026
 6333W        W 8483   7.570   7.438  31.043 -0.3507  0.0811  0.1962
 6334W        W 8484   7.847   6.761   3.397 -0.3375  0.1988  0.0355
 6335W        W 8485   6.368   6.175   4.982  0.3475 -0.0639  0.0741
 6336W        W 8486   7.805   5.931  26.021  0.3382 -0.0847 -0.0460
 6337W        W 8487   4.581   4.353  11.692  0.3052  0.0675  0.0263
 6338W        W 8488  10.717   4.255   4.562 -0.2292 -0.0138 -0.1361
 6339W        W 8489  21.365   1.444   2.379 -0.1109  0.1388 -0.0787
 6340W        W 8490  16.209   7.219   8.896 -0.1761  0.1647  0.1228
 6341W        W 8491   0.407   6.347  24.186 -0.2600  0.0724 -0.2287
 6342W        W 8492   6.361   5.255  31.708 -0.1185 -0.0561  0.0324
 6343W        W 8493   3.976   0.999  28.278 -0.1172  0.2841  0.0227
 6344W        W 8494   5.392   1.881   8.555  0.0200 -0.0307  0.1141
 6345W        W 8495  15.203   0.562  26.559 -0.0010  0.2454 -0.1683
 6346W        W 8496  12.203   0.370   7.136 -0.1766  0.0958  0.0941
 6347W        W 8497  16.037   7.409  26.320 -0.2721 -0.2875 -0.0091
 6348W        W 8498   7.218   6.828  26.981  0.0055 -0.0533 -0.0894
 6349W        W 8499  17.330   5.470   1.474 -0.1449 -0.1146  0.2054
 6350W        W 8500  24.462   7.627  26.017 -0.2784 -0.1727  0.0987
 6351W        W 8501  17.119   5.898   4.375 -0.0123  0.1246  0.0453
 6352W        W 8502  11.715   7.140   8.600 -0.1686  0.3279 -0.1525
 6353W        W 8503   0.853   3.442  25.804  0.0954 -0.1444 -0.2345
 6354W        W 8504  20.540   3.355   1.969  0.1732  0.1445  0.0536
 6355W        W 8505  24.526   7.702   5.327  0.2958 -0.0807  0.2200
 6356W        W 8506  10.641   7.202  22.361 -0.0470  0.0520 -0.0657
 6357W        W 8507  23.672   5.305  25.148  0.1945  0.2180 -0.0268
 6358W        W 8508   0.754   1.741   7.556  0.0862  0.0858  0.2582
 6359W        W 8509  23.431   5.611   7.751  0.0233  0.0562 -0.1970
 6360W        W 8510  17.716   3.382  17.231  0.3490  0.0263 -0.0305
 6361W        W 8511  23.703   7.661  31.854 -0.2200 -0.0516  0.0252
 6362W        W 8512   7.910   3.558  31.142  0.4211 -0.2630 -0.1510
 6363W        W 8513  14.284   1.465  24.414  0.1564 -0.1435  0.0035
 6364W        W 8514  22.639   5.623  13.310  0.0820 -0.0103 -0.2859
 6365W        W 8515   9.667   3.087   9.611  0.2293  0.2161  0.4519
 6366W        W 8516  24.070   0.963  12.277  0.0260  0.1405 -0.2623
 6367W        W 8517  22.995   5.969  22.716  0.2460 -0.0519  0.0226
 6368W        W 8518  19.761   5.684  31.163  0.3263  0.0072  0.0358
 6369W        W 8519  15.632   4.879  24.120  0.0041  0.4245 -0.4116
 6370W        W 8520  11.878   2.555   3.327 -0.3101  0.0844 -0.1829
 6371W        W 8521   4.979   4.695  15.061  0.1146 -0.3180 -0.0566
 6372W        W 8522   9.756   4.621  22.191  0.1901 -0.0716  0.3372
 6373W        W 8523   2.088   3.411  26.916 -0.1756  0.1656  0.1857
 6374W        W 8524   1.153   5.368   0.019 -0.0542  0.1496  0.1835
 6375W        W 8525  13.670   0.293  32.036 -0.0219 -0.1214  0.0448
 6376W        W 8526  22.950   4.961  20.649 -0.1476 -0.1767 -0.1597
 6377W        W 8527  22.205   2.925   4.437 -0.1840  0.4105  0.0008
 6378W        W 8528   1.966   3.823  30.412  0.2613 -0.1915  0.0296
 6379W        W 8529   5.075   7.529  31.896  0.0251  0.0315 -0.2313
 6380W        W 8530  20.568   6.605   1.154  0.1391 -0.2572 -0.0877
 6381W        W 8531  22.247   1.821   5.234 -0.2147 -0.5081 -0.2705
 6382W        W 8532   5.520   2.359   3.047 -0.2449 -0.2455 -0.0142
 6383W        W 8533  22.408   7.138  13.110  0.0643 -0.1425  0.0051
 6384W        W 8534   3.462   5.342  22.389 -0.1366  0.0907 -0.0959
 6385W        W 8535  16.892   5.784   6.830 -0.1486  0.0297  0.0196
 6386W        W 8536   7.743   1.277  24.132  0.2901 -0.2878  0.3543
 6387W        W 8537  17.000   0.567  14.903 -0.3740 -0.3650  0.2297
 6388W        W 8538  18.883   3.384  21.040 -0.0852  0.0404  0.2138
 6389W        W 8539  21.489   5.512  24.599 -0.2197  0.2675 -0.0165
 6390W        W 8540  18.682   2.799  28.031 -0.1792  0.0521  0.0170
 6391W        W 8541   1.769   6.821  12.232 -0.2516  0.2638  0.0419
 6392W        W 8542  10.120   2.446  31.003  0.0460 -0.0726 -0.1536
 6393W        W 8543   0.038   0.218   2.389  0.2139 -0.0790 -0.2123
 6394W        W 8544  13.865   5.437   0.764 -0.0238 -0.0518 -0.0970
 6395W        W 8545   6.147   5.001  10.214  0.1614 -0.0036 -0.1499
 6396W        W 8546  10.657   2.324   2.114 -0.0108 -0.0858  0.1360
 6397W        W 8547   1.730   5.095   1.016 -0.2270 -0.1457 -0.2082
 6398W        W 8548  21.447   2.706  31.802  0.0743 -0.1622  0.1270
 6399W        W 8549   6.276   5.574   8.240 -0.4056  0.1443  0.3070
 6400W        W 8550   6.016   5.137   3.040  0.2743  0.2963 -0.0030
 6401W        W 8551  16.270   3.474   3.040  0.2526  0.0103 -0.0288
 6402W        W 8552  21.631   4.442   3.773  0.0187 -0.1034  0.4053
 6403W        W 8553   2.725   3.083  32.399  0.2535  0.0842  0.3743
 6404W        W 8554  22.416   5.609  23.982  0.0543  0.1783  0.3241
 6405W        W 8555   8.129   1.241  29.637 -0.3167  0.0720 -0.0608
 6406W        W 8556   4.741   2.277  13.297 -0.0277  0.0028 -0.1414
 6407W        W 8557  24.549   3.232   6.397 -0.3453  0.1517  0.1144
 6408W        W 8558  18.364   5.830  24.294 -0.2330 -0.3621  0.2580
 6409W        W 8559   4.627   6.527   9.139  0.0148 -0.2031 -0.0425
 6410W        W 8560   4.159   6.408   5.114  0.1167 -0.2144 -0.1968
 6411W        W 8561  20.588   0.587   8.554 -0.0591 -0.6152  0.1323
 6412W        W 8562   5.846   1.239  25.755 -0.0643  0.0850 -0.0474
 6413W        W 8563  18.303   2.395   4.318  0.0417  0.0573  0.1019
 6414W        W 8564   8.123   5.356   9.732 -0.1342  0.2259 -0.0356
 6415W        W 8565  11.172   5.796   3.903  0.1141  0.0098 -0.1184
 6416W        W 8566   0.265   4.606  28.586  0.0074  0.4186 -0.3114
 6417W        W 8567  18.096   2.067  20.243  0.0301  0.1387 -0.0241
 6418W        W 8568  12.311   2.991  25.100  0.2498 -0.3616 -0.0575
 6419W        W 8569  16.290   6.170   9.063 -0.3969  0.3236 -0.2133
 6420W        W 8570  13.816   3.362  32.600  0.0173  0.1049  0.1141
 6421W        W 8571  12.395   3.673  29.189 -0.1988 -0.0857 -0.0071
 6422W        W 8572   7.842   5.669  23.836  0.0552  0.0428  0.1181
 6423W        W 8573  14.579   3.289  28.838  0.1701 -0.0537 -0.0912
 6424W        W 8574   6.063   4.608   4.738 -0.2435 -0.0599 -0.2946
 6425W        W 8575  11.882   5.765  18.861 -0.0236 -0.1177 -0.1834
 6426W        W 8576  17.681   3.422   4.878  0.1209 -0.0115  0.1838
 6427W        W 8577  11.838   5.646  26.053  0.0352 -0.0343  0.1341
 6428W        W 8578  20.002   5.823   7.919 -0.0977  0.0263 -0.3420
 6429W        W 8579  16.567   1.368  31.817 -0.1704 -0.1258  0.0005
 6430W        W 8580   0.199   6.680  29.075  0.0673 -0.1455 -0.1243
 6431W        W 8581   5.091   1.075   9.641  0.1300 -0.1068 -0.1596
 6432W        W 8582   7.713   1.410  27.467  0.0327  0.1134 -0.0988
 6433W        W 8583   8.963   7.243   4.794 -0.0197  0.1718  0.0377
 6434W        W 8584   8.694   6.723   2.449  0.1214  0.2782  0.0191
 6435W        W 8585   9.243   2.488  11.749  0.1119 -0.1937 -0.0750
 6436W        W 8586   5.089   0.049  10.508  0.1142  0.1930 -0.1932
 6437W        W 8587   4.953   5.884  24.529 -0.0193  0.2334 -0.3172
 6438W        W 8588  15.472   3.757  25.764 -0.0386 -0.1006  0.3217
 6439W        W 8589  21.623   0.029  26.045 -0.0075 -0.0713 -0.1035
 6440W        W 8590  22.369   6.764  29.630 -0.4684  0.2055  0.2094
 6441W        W 8591  24.075   0.484  26.341 -0.0618 -0.0012 -0.3504
 6442W        W 8592  10.658   0.809  30.222  0.2061  0.2790  0.2064
 6443W        W 8593  10.210   5.395   9.112  0.0133 -0.3186  0.1301
 6444W        W 8594  11.789   6.969  27.405 -0.2728 -0.0130  0.2877
 6445W        W 8595  18.546   1.186  21.372 -0.0256 -0.4389 -0.0277
 6446W        W 8596  14.820   0.930  28.099  0.0688 -0.4656  0.1061
 6447W        W 8597   2.664   0.467  16.510 -0.3114 -0.2137  0.3199
 6448W        W 8598  24.501   1.111  13.297 -0.1280 -0.3951  0.2943
 6449W        W 8599   7.722   7.372   9.079  0.0400 -0.2030 -0.0921
 6450W        W 8600  23.091   3.277  32.584 -0.2696 -0.0614 -0.0832
 6451W        W 8601  21.087   7.472  19.740 -0.2579 -0.1138 -0.3795
 6452W        W 8602   1.966   7.374  31.138  0.0745  0.0043  0.0919
 6453W        W 8603   9.737   4.889   9.684  0.2875 -0.0380 -0.0530
 6454W        W 8604  18.717   6.089  29.117 -0.2331  0.0011 -0.2367
 6455W        W 8605   8.269   1.225   0.067 -0.0782 -0.0905 -0.1685
 6456W        W 8606  18.564   5.926  18.904  0.2207  0.0360  0.1056
 6457W        W 8607  19.333   6.246   7.521 -0.1961 -0.2518 -0.0256
 6458W        W 8608   3.291   7.795   7.647  0.0881 -0.0744 -0.2504
 6459W        W 8609  21.346   7.620  23.326  0.0702  0.4573 -0.0738
 6460W        W 8610  13.307   5.992   7.618  0.2374  0.0623  0.0939
 6461W        W 8611  12.097   5.424  32.419  0.0129 -0.3691 -0.1013
 6462W        W 8612  20.795   1.038   4.246 -0.4235  0.2171 -0.0351
 6463W        W 8613   9.882   2.358  12.112  0.2272  0.1028  0.1574
 6464W        W 8614  12.181   0.504  19.238 -0.5443  0.2620  0.0435
 6465W        W 8615   7.342   5.601  13.712  0.0866  0.1196 -0.0721
 6466W        W 8616   4.897   1.435  30.329  0.0434  0.0739 -0.4280
 6467W        W 8617  18.022   6.789  18.054 -0.5626  0.1622  0.2271
 6468W        W 8618   5.664   3.003   3.138  0.0946 -0.0333  0.1562
 6469W        W 8619  23.783   2.703   3.804  0.0905 -0.1133 -0.0985
 6470W        W 8620  11.783   6.770   5.794 -0.0361 -0.2314  0.0679
 6471W        W 8621   5.951   4.992  31.623  0.0973 -0.0457  0.0461
 6472W        W 8622   9.295   0.268   8.266 -0.0471  0.2660 -0.0595
 6473W        W 8623   1.631   7.692  10.015  0.0446 -0.2732 -0.2309
 6474W        W 8624   0.056   6.716  29.940  0.0610  0.1322  0.1969
 6475W        W 8625  22.647   4.543  13.267  0.0685 -0.0807  0.0859
 6476W        W 8626  10.258   5.104  22.284 -0.1601  0.1543 -0.0501
 6477W        W 8627   9.805   7.529  12.115 -0.0284  0.1108  0.1194
 6478W        W 8628  17.941   2.500   1.650 -0.0586  0.0276 -0.2496
 6479W        W 8629  18.574   4.415  21.857 -0.5763  0.1330  0.1504
 6480W        W 8630   0.377   2.134   6.345 -0.1234  0.0208 -0.1270
 6481W        W 8631  21.631   0.367  24.667 -0.0735  0.0679  0.2378
 6482W        W 8632   0.406   2.817  16.473  0.0245 -0.2510 -0.1598
 6483W        W 8633  22.222   1.945  26.066  0.0003  0.4356  0.1064
 6484W        W 8634   9.011   3.876   8.588  0.2424 -0.0688  0.3245
 6485W        W 8635  16.399   1.325  19.720 -0.0516  0.1537 -0.0081
 6486W        W 8636  17.966   6.692  26.631 -0.0193  0.2192 -0.0737
 6487W        W 8637  15.724   4.352   3.287 -0.3308  0.2079 -0.0933
 6488W        W 8638  23.768   5.004  25.604  0.1417 -0.0671 -0.0153
 6489W        W 8639   3.369   3.158  29.311 -0.0308 -0.1342  0.2868
 6490W        W 8640  22.560   0.258  22.557  0.5694 -0.1073 -0.0955
 6491W        W 8641   0.182   2.196   1.890 -0.0811 -0.1448  0.0310
 6492W        W 8642   0.313   1.758   6.044  0.4724  0.1004 -0.2065
 6493W        W 8643  19.462   7.376  30.874  0.2454 -0.1044 -0.4088
 6494W        W 8644   0.101   0.599  21.588 -0.0125  0.0977 -0.0014
 6495W        W 8645  12.435   1.000   3.347  0.1627 -0.1224  0.0131
 6496W        W 8646   8.415   1.085  26.883  0.0670  0.0089 -0.0515
 6497W        W 8647   7.133   6.107   0.606  0.3695  0.2341 -0.0873
 6498W        W 8648  17.345   3.492  21.157  0.0807 -0.0940  0.1693
 6499W        W 8649   4.255   3.779  26.855  0.0399 -0.0430  0.1595
 6500W        W 8650  12.726   6.830  21.716 -0.0076  0.1355  0.1357
 6501W        W 8651   9.053   2.130  22.170 -0.0437  0.2230  0.2510
 6502W        W 8652  18.892   0.271   2.345  0.0296  0.1476  0.4689
 6503W        W 8653   6.715   6.351  14.794  0.0050  0.2924  0.1511
 6504W        W 8654   3.848   7.498  26.425 -0.0620  0.1312 -0.2136
 6505W        W 8655  23.661   3.234   0.295  0.0871  0.0146 -0.0212
 6506W        W 8656  23.728   1.600  23.697  0.2773  0.0494 -0.0631
 6507W        W 8657  21.472   5.613   0.973  0.0252  0.1544 -0.0447
 6508W        W 8658  10.263   4.593   6.912 -0.1540  0.2041  0.2458
 6509W        W 8659  22.301   1.052   5.820 -0.0651  0.2276 -0.2269
 6510W        W 8660  24.005   6.979  23.225 -0.2520  0.1833 -0.0319
 6511W        W 8661   7.329   5.336   7.265  0.3377  0.1325 -0.4056
 6512W        W 8662  15.064   3.182   5.459  0.1287  0.0657 -0.0605
 6513W        W 8663  13.747   1.787  32.297  0.1131  0.0663 -0.0965
 6514W        W 8664  20.715   3.899  31.722 -0.0247 -0.4513  0.3981
 6515W        W 8665  24.653   5.160  26.300 -0.0443 -0.0415  0.3889
 6516W        W 8666   7.052   2.387   3.985  0.1060  0.1591  0.1128
 6517W        W 8667  14.728   7.064  25.950  0.3514 -0.2533  0.1483
 6518W        W 8668  23.027   1.479  21.201 -0.1072 -0.1413  0.1807
 6519W        W 8669   7.154   5.473  12.592  0.1553 -0.2206  0.0368
 6520W        W 8670   1.912   5.010  15.838 -0.1113  0.0207  0.1765
 6521W        W 8671  12.847   2.838  16.193  0.1012 -0.2810  0.0227
 6522W        W 8672  23.368   4.962  26.696  0.0761  0.0340 -0.0294
 6523W        W 8673   3.830   4.261   8.240 -0.2096  0.2040 -0.0346
 6524W        W 8674  17.982   4.237   8.649  0.0555  0.0685 -0.2182
 6525W        W 8675  11.647   3.133  27.876  0.0338  0.1822 -0.0792
 6526W        W 8676   2.203   3.139  13.986 -0.0521 -0.0380 -0.1197
 6527W        W 8677   8.553   3.997   6.952 -0.0738  0.1523 -0.1911
 6528W        W 8678   1.922   4.568  28.593  0.3453  0.0766 -0.2733
 6529W        W 8679  22.525   6.828  10.862  0.2236 -0.1277 -0.1110
 6530W        W 8680  17.256   4.261  28.339 -0.2037 -0.0668 -0.2300
 6531W        W 8681  24.272   6.812  32.752  0.0124  0.2207  0.0233
 6532W        W 8682  20.126   6.460  25.080 -0.0109  0.0385  0.1740
 6533W        W 8683  20.385   2.078  28.335  0.2655 -0.0857  0.0695
 6534W        W 8684  23.119   4.376   2.650  0.0216  0.0887  0.3377
 6535W        W 8685  23.778   7.199   0.579  0.2162  0.1109 -0.1255
 6536W        W 8686  21.478   2.469   6.501 -0.3414  0.3399  0.0435
 6537W        W 8687  17.459   0.241  21.955 -0.1455 -0.1916 -0.1618
 6538W        W 8688  19.780   6.094  30.804  0.1015  0.0516 -0.0329
 6539W        W 8689  20.704   6.286  26.151  0.2545 -0.1952 -0.1043
 6540W        W 8690  17.950   0.317  25.794 -0.1348 -0.0686 -0.1635
 6541W        W 8691  19.715   2.147   8.890  0.0635 -0.0521 -0.3660
 6542W        W 8692   6.954   5.009   6.451 -0.1945 -0.0736 -0.2503
 6543W        W 8693  20.078   4.662  31.101  0.3058 -0.0992  0.0669
 6544W        W 8694   8.600   7.037   3.791 -0.1846  0.2210 -0.1037
 6545W        W 8695  17.393   0.293  23.281  0.1990  0.0290  0.0789
 6546W        W 8696  19.984   4.723  28.172 -0.3671 -0.0515 -0.0644
 6547W        W 8697  15.030   5.441   8.253 -0.0551  0.1408  0.2336
 6548W        W 8698  16.840   0.948  26.278  0.0781  0.1277  0.1279
 6549W        W 8699  12.591   5.775   4.166 -0.3061 -0.1408 -0.0593
 6550W        W 8700  23.777   1.121  20.936 -0.0605  0.0071 -0.2566
 6551W        W 8701  18.112   5.485  19.332  0.1119  0.1154  0.1109
 6552W        W 8702  23.437   0.888  20.586  0.1839 -0.1002  0.1109
 6553W        W 8703  14.999   7.652  32.623  0.0476  0.1350 -0.0467
 6554W        W 8704   4.418   7.328   3.619  0.0779 -0.0125 -0.1059
 6555W        W 8705   2.697   1.692   3.113  0.0471 -0.0989 -0.3925
 6556W        W 8706  10.033   5.977  29.801 -0.0062  0.0462  0.1469
 6557W        W 8707  10.317   7.461  21.003  0.1231 -0.2603 -0.0054
 6558W        W 8708   2.543   4.955  18.185 -0.1444  0.1541  0.2963
 6559W        W 8709  21.040   0.547   1.360  0.1469 -0.2136  0.0989
 6560W        W 8710  12.980   3.368   7.218 -0.2691 -0.0909  0.0123
 6561W        W 8711  21.506   0.641  32.727 -0.2222 -0.2043 -0.4490
 6562W        W 8712   5.179   7.128  24.384 -0.0414 -0.0203 -0.1842
 6563W        W 8713  24.524   3.712  27.147  0.1700 -0.0782  0.0267
 6564W        W 8714  14.703   5.938   7.434 -0.0030  0.0627 -0.1177
 6565W        W 8715  10.460   5.397  19.867  0.1966 -0.2433 -0.0724
 6566W        W 8716  21.060   4.522  10.934 -0.0334 -0.0075 -0.0957
 6567W        W 8717   3.934   7.736  13.171  0.0316 -0.0738 -0.0669
 6568W        W 8718  22.983   5.197   0.280  0.1209 -0.0023 -0.0007
 6569W        W 8719  23.309   6.899  13.937 -0.0647 -0.0347 -0.3361
 6570W        W 8720  11.208   6.357  32.125  0.0123  0.3598 -0.0756
 6571W        W 8721   3.539   4.964   5.948 -0.0481 -0.0350  0.3242
 6572W        W 8722  18.315   0.094  25.446  0.3289  0.0533 -0.3306
 6573W        W 8723  13.761   2.704  15.895 -0.1701  0.0252 -0.0683
 6574W        W 8724  24.768   6.196  21.125  0.0585  0.3857  0.2121
 6575W        W 8725  14.293   4.685   2.321  0.3493  0.1812  0.1040
 6576W        W 8726  22.585   5.802  27.397  0.2256 -0.0132  0.1855
 6577W        W 8727  15.786   7.020  19.224  0.1046 -0.0073  0.1655
 6578W        W 8728   5.721   6.069  17.813 -0.1929  0.1789 -0.0885
 6579W        W 8729   3.935   7.185   7.338 -0.1971  0.1675 -0.0347
 6580W        W 8730  24.601   1.733  13.973  0.0560  0.0363  0.0449
 6581W        W 8731   2.095   5.152  31.041 -0.0464  0.0145 -0.0605
 6582W        W 8732  15.353   2.063   1.088 -0.2442 -0.2761 -0.0189
 6583W        W 8733  21.224   4.569  11.406  0.2785 -0.1259  0.1022
 6584W        W 8734  21.474   4.873   5.363  0.0785  0.0132 -0.0111
 6585W        W 8735   5.970   1.605  26.211  0.0942  0.2818  0.0154
 6586W        W 8736  14.635   1.462   4.670  0.2241 -0.0900  0.2279
 6587W        W 8737   2.194   5.213  30.536  0.1185  0.0636  0.2169
 6588W        W 8738  10.993   0.233  12.207 -0.1953  0.0329  0.1421
 6589W        W 8739  18.564   2.630   7.761  0.0635  0.1225 -0.2791
 6590W        W 8740   7.499   3.624  15.308  0.2230 -0.2430 -0.2695
 6591W        W 8741  14.342   1.424  18.638  0.0447  0.2093 -0.0066
 6592W        W 8742   9.213   4.467  22.099  0.0275  0.1448 -0.2028
 6593W        W 8743   4.164   6.187  26.362 -0.0415  0.0474 -0.1702
 6594W        W 8744   7.845   5.523  24.712 -0.1738 -0.0934  0.0250
 6595W        W 8745   5.982   1.952  32.395 -0.0782 -0.1353 -0.1059
 6596W        W 8746  13.489   0.619   2.530  0.2155  0.1193 -0.0323
 6597W        W 8747   4.306   5.585  27.401 -0.0722 -0.0315 -0.1110
 6598W        W 8748  17.008   2.016   8.948 -0.2021 -0.0561  0.3749
 6599W        W 8749  14.443   3.113   6.955  0.1251  0.0817  0.0505
 6600W        W 8750  20.451   5.362  22.687 -0.1696 -0.1561  0.5581
 6601W        W 8751  17.676   5.601  25.327 -0.2409  0.3998  0.1473
 6602W        W 8752  22.386   2.374  22.364  0.4021 -0.2052 -0.1249
 6603W        W 8753  22.472   6.590  26.460 -0.3434 -0.3414  0.3492
 6604W        W 8754  20.452   7.655  28.535 -0.0288  0.1410 -0.0215
 6605W        W 8755   9.660   2.008   3.492 -0.1294  0.2493  0.1957
 6606W        W 8756  11.997   4.654  25.065 -0.1457  0.1301  0.2405
 6607W        W 8757   3.726   7.727  11.892  0.1236  0.0554  0.2286
 6608W        W 8758   0.359   2.711  22.897 -0.0764 -0.1163  0.3490
 6609W        W 8759   2.150   7.662  17.115  0.2051  0.0738 -0.3898
 6610W        W 8760   7.548   4.447   1.456  0.0959  0.3748 -0.0748
 6611W        W 8761  22.204   2.330   1.772 -0.0103 -0.1053 -0.0796
 6612W        W 8762  24.130   0.890   6.096  0.1408 -0.2035  0.1089
 6613W        W 8763  13.922   0.960  26.039 -0.0209  0.3367 -0.1028
 6614W        W 8764  18.942   3.632  18.417  0.1805 -0.0423 -0.0381
 6615W        W 8765   4.991   5.553   8.661 -0.0678 -0.0963 -0.0376
 6616W        W 8766  19.594   2.084   5.700  0.0775 -0.0205 -0.2870
 6617W        W 8767  20.530   7.597  20.775  0.0664  0.3138 -0.1811
 6618W        W 8768  12.859   4.921  25.173  0.1216  0.1657  0.0396
 6619W        W 8769   2.897   0.875  32.826  0.1759 -0.1729  0.0366
 6620W        W 8770   1.110   1.076  32.841  0.0949 -0.0799  0.4818
 6621W        W 8771  11.091   7.587   0.137 -0.2658 -0.0694  0.2388
 6622W        W 8772   4.795   4.696  30.262  0.1342  0.0648 -0.0717
 6623W        W 8773   8.190   1.827  25.814  0.0514 -0.2969  0.0234
 6624W        W 8774   9.005   4.249  13.335  0.1014  0.0613  0.1054
 6625W        W 8775  15.492   2.688   9.937 -0.0339 -0.1738 -0.0219
 6626W        W 8776  19.137   4.018   1.288  0.1597  0.3222 -0.0495
 6627W        W 8777  24.460   2.307  32.718 -0.1472  0.1116  0.3160
 6628W        W 8778   1.241   6.420  22.539 -0.0509  0.3152 -0.0575
 6629W        W 8779   4.334   6.701  13.429  0.1833 -0.2237  0.2830
 6630W        W 8780  18.228   2.428  16.076  0.1044 -0.1820  0.2683
 6631W        W 8781  21.772   4.655  28.933  0.1902 -0.3208  0.1189
 6632W        W 8782  19.027   4.963  32.355  0.0689  0.0417 -0.1008
 6633W        W 8783  20.960   4.742   7.542  0.2599 -0.2225  0.3034
 6634W        W 8784   8.894   0.502  28.756 -0.2791 -0.0505 -0.0460
 6635W        W 8785  20.945   7.449  12.041  0.2146  0.2089  0.4627
 6636W        W 8786   1.802   1.715   8.399  0.2087  0.2755  0.0562
 6637W        W 8787  13.122   1.148  26.903 -0.1580  0.0511  0.0898
 6638W        W 8788   9.473   6.621  13.103  0.2128  0.1353  0.2368
 6639W        W 8789  15.127   3.088   6.246 -0.1242  0.2846 -0.2540
 6640W        W 8790   1.627   4.755  10.297 -0.0038  0.0698  0.1659
 6641W        W 8791   7.309   4.355  14.401  0.2450  0.0829 -0.1488
 6642W        W 8792   5.832   4.617   9.347 -0.2989 -0.0460 -0.0540
 6643W        W 8793   3.799   7.095  23.986  0.1463 -0.1409  0.1432
 6644W        W 8794  10.735   1.618  23.525  0.0225 -0.1615 -0.0796
 6645W        W 8795  11.091   5.551   6.392 -0.1413 -0.0823 -0.1672
 6646W        W 8796  12.522   6.106   1.738 -0.0471  0.0742  0.0260
 6647W        W 8797   5.222   6.840   3.104 -0.3504  0.0730 -0.2738
 6648W        W 8798   4.372   1.759   6.957 -0.0585 -0.0442  0.3258
 6649W        W 8799   6.086   3.296  31.266 -0.0470 -0.0659 -0.2299
 6650W        W 8800   9.570   4.121   8.978  0.1662  0.2235 -0.1402
 6651W        W 8801  23.806   1.372   9.623  0.3187  0.0285  0.5100
 6652W        W 8802  18.989   1.439   8.558  0.0924 -0.0698  0.0651
 6653W        W 8803   6.308   2.979  23.988 -0.1939  0.0966 -0.4364
 6654W        W 8804   1.813   2.575  26.388 -0.1489 -0.1309 -0.0688
 6655W        W 8805   1.827   3.697   4.228 -0.1771  0.1762  0.0980
 6656W        W 8806   6.215   4.605  10.844  0.3386 -0.0188 -0.0858
 6657W        W 8807   2.064   5.409  23.960  0.5039 -0.0945  0.2068
 6658W        W 8808  11.715   7.144   3.716 -0.0377 -0.0354 -0.1432
 6659W        W 8809  16.006   6.601   4.899  0.1540  0.1569 -0.0347
 6660W        W 8810  22.355   6.800  21.734  0.0025  0.0057  0.2637
 6661W        W 8811   9.085   1.251  23.308  0.1349 -0.1043 -0.0670
 6662W        W 8812  19.313   6.698  28.858 -0.1363  0.0851  0.0378
 6663W        W 8813   6.559   0.757  30.832 -0.3493 -0.2950  0.1993
 6664W        W 8814   6.967   3.187  29.635  0.0273  0.0027 -0.0134
 6665W        W 8815  10.192   4.108  28.994 -0.2725  0.0475  0.1311
 6666W        W 8816  18.711   1.268  21.843  0.0402 -0.0419  0.1664
 6667W        W 8817  17.285   3.873   6.243  0.0455  0.0047 -0.2453
 6668W        W 8818   7.278   2.054   2.699  0.3019 -0.1291  0.0329
 6669W        W 8819  14.728   5.662  20.019  0.3837 -0.0542 -0.0713
 6670W        W 8820   7.931   4.953  13.894 -0.1463 -0.1244  0.1024
 6671W        W 8821   3.247   0.049   4.428  0.0198  0.1875 -0.3612
 6672W        W 8822   6.778   1.418   4.536 -0.0424  0.0746  0.0246
 6673W        W 8823   5.840   5.475   2.663 -0.0893 -0.2282 -0.3045
 6674W        W 8824   7.604   7.229  22.841  0.0925  0.0245 -0.0978
 6675W        W 8825   6.559   4.796  22.375 -0.1853 -0.2382 -0.0067
 6676W        W 8826  20.775   7.430  28.966  0.2599 -0.0245 -0.0855
 6677W        W 8827  10.386   7.058   5.472  0.0458  0.1493 -0.0818
 6678W        W 8828   3.151   0.335   3.869  0.1013 -0.0783  0.1488
 6679W        W 8829  22.258   0.059  24.516 -0.0859 -0.2194  0.1119
 6680W        W 8830  14.447   6.533  25.867 -0.1482 -0.3043 -0.4363
 6681W        W 8831   1.379   2.027   0.028  0.0931  0.0947 -0.0258
 6682W        W 8832   9.726   3.954  31.117 -0.3876  0.1263  0.0883
 6683W        W 8833  19.151   4.745  28.126 -0.0697  0.2541 -0.3660
 6684W        W 8834  24.165   3.462  27.889 -0.0315 -0.3095 -0.0357
 6685W        W 8835   7.987   1.056   5.693 -0.1056 -0.1426  0.1005
 6686W        W 8836  19.515   7.090   7.884 -0.1063  0.1155  0.0028
 6687W        W 8837  18.639   5.948  21.074  0.1196 -0.0360 -0.4868
 6688W        W 8838  22.328   1.692  21.858  0.2621  0.2565 -0.0808
 6689W        W 8839  15.629   5.205   9.378  0.3144 -0.0381 -0.1594
 6690W        W 8840  12.795   0.018  20.989 -0.1444 -0.0616  0.3049
 6691W        W 8841  11.274   6.290   0.794 -0.2487  0.0597 -0.1613
 6692W        W 8842   8.163   5.942   3.866  0.1378  0.4262  0.2926
 6693W        W 8843   3.611   3.548   8.414  0.0987 -0.3441 -0.0567
 6694W        W 8844   3.588   6.585  26.875  0.2551 -0.0541 -0.1501
 6695W        W 8845  21.017   7.554  12.568 -0.2976 -0.0225  0.2967
 6696W        W 8846  12.859   7.048   2.816  0.1852  0.4365 -0.0814
 6697W        W 8847  19.378   7.171   1.667 -0.0349 -0.3274  0.2840
 6698W        W 8848   9.910   3.711   3.465 -0.1676  0.1185 -0.0883
 6699W        W 8849   1.022   5.710   1.753  0.1061 -0.0107  0.0037
 6700W        W 8850  18.829   4.980   6.434 -0.3389  0.0536  0.0307
 6701W        W 8851  20.173   0.753   0.765 -0.2516 -0.1104  0.2385
 6702W        W 8852  15.527   2.642   6.601  0.0144 -0.0923  0.1071
 6703W        W 8853  21.889   6.313  10.373 -0.1569  0.0821  0.4309
 6704W        W 8854  11.227   7.404   8.463 -0.2221  0.5312  0.0178
 6705W        W 8855   3.202   6.627   7.043  0.3905  0.1439  0.0586
 6706W        W 8856   9.895   2.295  22.159 -0.0274  0.1190 -0.0270
 6707W        W 8857  10.878   4.682   6.362  0.0653  0.0571 -0.0420
 6708W        W 8858  20.992   4.354   2.681  0.0688 -0.0232 -0.2006
 6709W        W 8859   3.722   2.572   1.432 -0.2001 -0.0906  0.0396
 6710W        W 8860  12.762   7.038   3.371  0.3875  0.0532 -0.0030
 6711W        W 8861   1.910   2.751   4.635  0.3737  0.0103  0.1193
 6712W        W 8862   2.405   5.942  23.186 -0.1033 -0.4101 -0.1035
 6713W        W 8863   3.084   3.439   0.003 -0.4396  0.0968 -0.0162
 6714W        W 8864  17.293   5.711  31.168 -0.2432 -0.1373 -0.0163
 6715W        W 8865   5.670   5.401   4.589  0.2827  0.0915  0.2216
 6716W        W 8866  11.066   2.348  32.380  0.3319 -0.0664  0.3389
 6717W        W 8867  20.016   2.641   7.947  0.1412  0.0180 -0.1103
 6718W        W 8868  15.176   5.462  19.794 -0.0528  0.2151 -0.3220
 6719W        W 8869   1.144   7.066  24.117  0.1282  0.0494  0.1925
 6720W        W 8870   3.369   2.303  26.837 -0.0833 -0.1564  0.0810
 6721W        W 8871  12.276   0.646  12.292  0.2561 -0.2074 -0.3430
 6722W        W 8872   3.657   5.543  10.256 -0.0664  0.1420  0.3160
 6723W        W 8873   8.133   3.900  31.470  0.1960  0.1970  0.0566
 6724W        W 8874  18.834   2.190  10.278 -0.2826  0.0204 -0.0543
 6725W        W 8875   4.294   0.086   7.049 -0.0518  0.1446 -0.1283
 6726W        W 8876  16.218   1.370  17.747  0.0946  0.1778 -0.0740
 6727W        W 8877  22.326   3.435  13.704 -0.5607  0.0533 -0.4459
 6728W        W 8878   9.318   1.015  32.493 -0.0561  0.0829  0.1057
 6729W        W 8879   1.864   3.155  12.125  0.0020 -0.0407 -0.0983
 6730W        W 8880  18.727   4.191   3.363 -0.0991  0.0878  0.0300
 6731W        W 8881  22.464   1.842  11.734  0.0379  0.1013  0.0955
 6732W        W 8882   2.593   4.530  12.018  0.1100  0.3644 -0.2677
 6733W        W 8883  15.788   0.773  22.827  0.2400 -0.1059 -0.1554
 6734W        W 8884   4.492   3.685  25.009  0.1434 -0.1178  0.0874
 6735W        W 8885  10.723   3.025   3.763  0.0920 -0.2689  0.1983
 6736W        W 8886  10.502   4.344  12.357 -0.0353 -0.0946  0.2939
 6737W        W 8887  19.171   0.491  26.119 -0.0107 -0.1108  0.1721
 6738W        W 8888   1.103   5.938  12.090  0.1887  0.3363 -0.1602
 6739W        W 8889  19.898   0.641  17.528  0.0782  0.3754  0.0849
 6740W        W 8890   4.330   1.945  15.903 -0.1944 -0.0214 -0.3151
 6741W        W 8891  13.717   2.723  25.578  0.1149 -0.0605 -0.2603
 6742W        W 8892  12.251   2.907  20.571 -0.0307  0.0371 -0.3867
 6743W        W 8893  19.718   5.449  24.781 -0.0200  0.1596  0.0698
 6744W        W 8894   6.128   4.303   2.230  0.1744  0.0726  0.0343
 6745W        W 8895   6.791   4.193   6.726 -0.1734  0.1135  0.1049
 6746W        W 8896   2.268   1.597  28.919  0.3538  0.0429 -0.0637
 6747W        W 8897  21.913   1.619   5.600 -0.2950 -0.0570  0.0460
 6748W        W 8898   7.144   5.570   0.369  0.1491 -0.2096 -0.1729
 6749W        W 8899   5.453   2.567  12.341 -0.1157  0.1049 -0.0210
 6750W        W 8900  17.641   0.626  28.761 -0.2039 -0.0551 -0.0583
 6751W        W 8901  13.267   0.837  17.867 -0.0203 -0.0718 -0.1974
 6752W        W 8902   1.025   6.181   5.309 -0.1288  0.2197  0.3037
 6753W        W 8903  24.705   0.175   5.789  0.1019 -0.4279 -0.1031
 6754W        W 8904   0.977   7.154   7.217  0.0785  0.0896  0.1406
 6755W        W 8905  11.395   3.442  25.684 -0.1739  0.0661 -0.0847
 6756W        W 8906   0.542   3.022  29.205 -0.3642 -0.2889 -0.2999
 6757W        W 8907  21.866   5.104  28.244  0.2622 -0.1354 -0.0703
 6758W        W 8908  23.027   7.445   1.032 -0.0381  0.0707  0.0384
 6759W        W 8909   2.791   4.953  17.221 -0.1548 -0.0724 -0.4275
 6760W        W 8910  11.495   6.523   7.883  0.0590 -0.2813  0.0854
 6761W        W 8911  23.650   4.235   8.828  0.0811  0.3429 -0.3690
 6762W        W 8912  19.619   0.863   4.582  0.2037 -0.1388  0.3835
 6763W        W 8913  17.878   0.910  22.741 -0.5078 -0.1630 -0.1455
 6764W        W 8914  17.359   4.584   0.709 -0.1213  0.0429  0.1320
 6765W        W 8915  18.275   4.595  19.332  0.0340  0.2312  0.0154
 6766W        W 8916  23.007   1.139  13.057 -0.1403 -0.2444  0.0898
 6767W        W 8917  16.787   5.702   0.356 -0.0436 -0.0800 -0.0742
 6768W        W 8918  13.686   4.558  26.424  0.2916 -0.0822 -0.2080
 6769W        W 8919   0.978   1.314  25.614  0.4632 -0.1094 -0.2615
 6770W        W 8920  14.594   7.658  23.904  0.0707  0.3748 -0.1181
 6771W        W 8921   6.394   0.950  13.260 -0.0438 -0.0871 -0.1189
 6772W        W 8922  22.866   6.050  10.098 -0.0472 -0.0743 -0.1034
 6773W        W 8923  21.923   7.689  28.469 -0.0220  0.2361 -0.0482
 6774W        W 8924   8.087   2.094  16.043 -0.1003 -0.0923 -0.1811
 6775W        W 8925  10.872   4.661  23.768 -0.0132 -0.1521  0.1335
 6776W        W 8926  18.225   2.351   2.663 -0.0614 -0.0958  0.2264
 6777W        W 8927  21.599   6.913  11.220  0.1056  0.1261 -0.1371
 6778W        W 8928  12.554   3.276  17.445 -0.2507  0.1024  0.2953
 6779W        W 8929   2.998   4.487   1.245  0.1870  0.0220  0.1327
 6780W        W 8930  17.400   6.949   0.157  0.2366 -0.1958  0.2945
 6781W        W 8931  24.762   1.720   6.613  0.0052 -0.0134  0.1333
 6782W        W 8932  19.341   4.779  27.404 -0.2788 -0.0241  0.1124
 6783W        W 8933  20.528   2.388  26.621  0.2903 -0.1515  0.0014
 6784W        W 8934  14.385   4.190  30.770 -0.0787  0.2284  0.3315
 6785W        W 8935   0.103   5.886   1.729  0.1374  0.0669  0.1564
 6786W        W 8936   6.604   6.935  14.647 -0.3221  0.1877 -0.1877
 6787W        W 8937  21.498   1.646   9.113 -0.1767 -0.0094  0.2677
 6788W        W 8938  10.542   4.998  12.203 -0.4530  0.0400  0.2161
 6789W        W 8939   3.257   3.239  13.906 -0.0351  0.4729  0.0524
 6790W        W 8940  14.530   4.884  29.573  0.0786 -0.3190 -0.0886
 6791W        W 8941  10.298   6.666  12.266  0.0669  0.1813  0.0344
 6792W        W 8942  12.684   1.858  27.239  0.2072  0.1351 -0.1351
 6793W        W 8943   1.195   5.027  24.756 -0.0714  0.0693  0.0437
 6794W        W 8944  16.360   3.044  32.600  0.0974  0.1240  0.1719
 6795W        W 8945  11.835   3.336   0.008 -0.0354 -0.0073 -0.2026
 6796W        W 8946  14.447   2.522   1.727 -0.0162  0.0027  0.1918
 6797W        W 8947   9.908   7.679  10.142  0.0982 -0.2260  0.3374
 6798W        W 8948  17.838   2.836  20.170  0.1699  0.3409  0.3727
 6799W        W 8949   3.262   6.090  22.829 -0.3209  0.0032 -0.0598
 6800W        W 8950  21.107   6.045  25.911 -0.0642 -0.3248 -0.1187
 6801W        W 8951   9.558   0.106   0.567  0.0229 -0.0947  0.0942
 6802W        W 8952  16.676   5.687  16.701  0.3981 -0.0701 -0.0662
 6803W        W 8953  12.016   7.567  32.853  0.0208  0.0177 -0.0198
 6804W        W 8954   0.018   0.753   2.377  0.0777 -0.0109  0.4036
 6805W        W 8955  14.553   2.319  16.106 -0.0729 -0.0801 -0.2232
 6806W        W 8956  14.729   3.013   8.202  0.0104 -0.0357  0.0521
 6807W        W 8957   3.254   5.041  23.649 -0.3538  0.0872 -0.0735
 6808W        W 8958  22.226   7.768  26.799 -0.1011  0.2117 -0.1873
 6809W        W 8959  13.424   3.613  21.297 -0.0252 -0.2648  0.1946
 6810W        W 8960   1.188   1.253   1.742 -0.0923  0.2798 -0.2264
 6811W        W 8961  21.696   3.732   5.145 -0.0989 -0.2865 -0.0369
 6812W        W 8962  21.798   5.976   1.211  0.2729 -0.1405 -0.1854
 6813W        W 8963   7.432   2.083  28.435  0.1043  0.1027  0.1255
 6814W        W 8964  12.454   5.938  19.480 -0.1351  0.2863 -0.0608
 6815W        W 8965   3.378   1.838   6.012  0.5269  0.1202 -0.1946
 6816W        W 8966  23.114   0.351   8.490  0.2001  0.2680  0.1822
 6817W        W 8967   7.848   5.012   2.419 -0.0851  0.0879 -0.0565
 6818W        W 8968   0.427   0.343  16.611 -0.3427  0.2261  0.4433
 6819W        W 8969   4.806   1.416  17.582  0.2387  0.1829  0.0791
 6820W        W 8970   6.454   1.843  29.209  0.0231 -0.1687  0.1041
 6821W        W 8971   6.787   6.009  32.303  0.0535 -0.1596 -0.0559
 6822W        W 8972   1.985   4.703  30.746  0.0528  0.0340 -0.2772
 6823W        W 8973  23.786   4.436  28.602  0.1400  0.1873 -0.3329
 6824W        W 8974  24.961   6.786  30.556  0.0793  0.2600 -0.0425
 6825W        W 8975  19.940   6.271   6.570 -0.1616 -0.1409 -0.2397
 6826W        W 8976  14.856   2.167  24.288  0.0951 -0.0439  0.3234
 6827W        W 8977  12.562   4.290  27.092  0.0178 -0.1092  0.0522
 6828W        W 8978  20.027   0.265  22.483 -0.1808 -0.1711 -0.2636
 6829W        W 8979   1.844   2.374  30.917 -0.3545 -0.3244  0.1043
 6830W        W 8980  15.223   5.108  21.034 -0.2423 -0.2589 -0.0072
 6831W        W 8981  11.810   2.348  22.874  0.1135  0.3995 -0.0065
 6832W        W 8982  22.596   0.601  22.152 -0.0199  0.1769 -0.2416
 6833W        W 8983   1.284   3.697  26.588  0.3455  0.4683 -0.0225
 6834W        W 8984   6.116   2.779   9.459  0.0801 -0.2606  0.0873
 6835W        W 8985   6.517   6.077  11.096  0.0288  0.1174  0.0973
 6836W        W 8986   6.473   3.003  16.716 -0.2172  0.2196 -0.0270
 6837W        W 8987  18.739   1.878  32.121  0.2303 -0.1322  0.1450
 6838W        W 8988  20.722   3.178  31.633 -0.2523 -0.1948  0.0796
 6839W        W 8989  15.573   0.397   0.656 -0.2281  0.3051  0.1402
 6840W        W 8990  17.473   3.873  32.534 -0.0129 -0.1011  0.1178
 6841W        W 8991   6.481   4.731  26.819 -0.1937 -0.0812  0.0164
 6842W        W 8992  24.199   6.824  28.296  0.0399  0.2956  0.0925
 6843W        W 8993  18.763   3.426  29.482 -0.1776 -0.0028 -0.0863
 6844W        W 8994  16.176   0.419  15.262  0.3922 -0.1314 -0.3346
 6845W        W 8995  19.431   0.677  29.066  0.1208  0.1993 -0.0171
 6846W        W 8996  24.382   0.288  30.937  0.1385 -0.0380  0.0607
 6847W        W 8997   6.491   4.185  24.638 -0.0320 -0.2849 -0.0169
 6848W        W 8998  13.695   2.783  27.791 -0.0245 -0.0725 -0.1577
 6849W        W 8999  11.711   2.283  23.816 -0.0209 -0.3135 -0.1521
 6850W        W 9000  21.158   1.090   0.301 -0.0001 -0.0372 -0.2139
 6851W        W 9001  12.248   7.640   9.040  0.1610  0.0002  0.3509
 6852W        W 9002   1.055   1.381  32.410  0.0230 -0.1059 -0.1572
 6853W        W 9003   1.095   4.694  23.529 -0.1632  0.1657  0.1263
 6854W        W 9004  20.753   1.321   7.832 -0.1726 -0.2332  0.0139
 6855W        W 9005   5.415   4.307  27.797 -0.0040  0.0693  0.1310
 6856W        W 9006  21.348   5.779  22.143  0.0042  0.1398 -0.1862
 6857W        W 9007  12.086   6.129   1.938  0.3040 -0.2796 -0.0244
 6858W        W 9008  22.796   7.029  28.852  0.1807  0.3185 -0.2033
 6859W        W 9009   1.396   1.711  24.227 -0.1853 -0.1281 -0.1016
 6860W        W 9010   6.205   2.217   7.434 -0.3696 -0.0651  0.0996
 6861W        W 9011   3.776   4.121  17.384  0.1780  0.1810  0.1034
 6862W        W 9012   9.411   4.824  27.250 -0.1274  0.0244  0.2703
 6863W        W 9013  19.373   6.719  24.362 -0.0637  0.1270 -0.1294
 6864W        W 9014   8.378   7.494   8.661 -0.0046  0.0468 -0.1068
 6865W        W 9015  19.122   0.957  26.445 -0.1971 -0.0610  0.1362
 6866W        W 9016  13.024   2.582  30.510 -0.1387 -0.2168  0.1668
 6867W        W 9017  18.632   6.565  27.781 -0.1501  0.1545 -0.0616
 6868W        W 9018  17.185   5.948   1.769  0.1638  0.1552 -0.2542
 6869W        W 9019  17.880   5.153   6.041  0.2396 -0.1580  0.0205
 6870W        W 9020  10.377   4.895  23.100  0.0313  0.2295 -0.0708
 6871W        W 9021  16.251   2.656  19.973 -0.1078  0.1258 -0.3377
 6872W        W 9022  22.061   7.512  10.376 -0.0921 -0.0442 -0.4637
 6873W        W 9023  14.962   4.358  10.791 -0.3794 -0.0640  0.1543
 6874W        W 9024  18.727   3.555   5.771 -0.1957 -0.1547  0.0657
 6875W        W 9025  18.508   6.015   1.367 -0.1279 -0.1161 -0.1190
 6876W        W 9026  20.527   4.760  18.836 -0.2435  0.1785  0.1791
 6877W        W 9027  24.254   3.817  11.259  0.1859  0.1475  0.1224
 6878W        W 9028  23.719   4.562  23.122  0.1952  0.2298  0.1681
 6879W        W 9029  11.848   4.977   4.948 -0.2140 -0.0497  0.1939
 6880W        W 9030  24.378   2.242  24.610  0.0256  0.0666  0.1406
 6881W        W 9031  14.634   2.893  17.414 -0.1177 -0.0465 -0.1014
 6882W        W 9032  18.482   3.199   9.691 -0.0398 -0.3609  0.0973
 6883W        W 9033   2.720   6.705  12.469 -0.2272 -0.1228  0.1728
 6884W        W 9034   4.040   4.894  29.349 -0.0758 -0.1883 -0.0986
 6885W        W 9035  14.708   5.531  23.053 -0.0890 -0.2339 -0.0019
 6886W        W 9036  21.542   0.926  31.035  0.2030  0.1804  0.0297
 6887W        W 9037  16.196   4.063  24.151 -0.0589  0.0990 -0.0540
 6888W        W 9038  24.398   5.076   0.173  0.0448 -0.0664  0.1485
 6889W        W 9039  11.663   7.408  29.915 -0.2854 -0.0643 -0.2103
 6890W        W 9040   7.368   7.440   6.395  0.0338 -0.0544  0.1982
 6891W        W 9041  19.047   1.197  25.920 -0.2304 -0.0726  0.3019
 6892W        W 9042   9.292   4.372  28.714  0.0803  0.1782  0.1032
 6893W        W 9043   0.199   1.211   5.018 -0.0022  0.2393  0.3205
 6894W        W 9044  13.204   1.889  16.230 -0.0385  0.3404 -0.0104
 6895W        W 9045   4.300   6.510   3.238  0.1205 -0.1902 -0.2463
 6896W        W 9046   5.383   0.480  23.757  0.0278  0.2114  0.1008
 6897W        W 9047   6.076   2.212   4.495 -0.0047 -0.0558 -0.0930
 6898W        W 9048   2.790   7.165   5.939  0.0229 -0.1906 -0.0141
 6899W        W 9049  21.233   1.296  23.132  0.0964 -0.0946 -0.4819
 6900W        W 9050  24.473   5.535  24.054  0.0321 -0.1756  0.2417
 6901W        W 9051  15.731   6.533  19.418  0.0302 -0.3827  0.2017
 6902W        W 9052   3.483   7.420  28.894 -0.0261 -0.3340 -0.0606
 6903W        W 9053   7.380   3.638  13.189 -0.1930 -0.1009 -0.3614
 6904W        W 9054   2.561   6.043  25.463  0.2277 -0.1308 -0.0481
 6905W        W 9055  21.835   2.252   1.455 -0.0014  0.3898 -0.0513
 6906W        W 9056  14.877   6.542  30.584 -0.2229 -0.1645 -0.1485
 6907W        W 9057  23.358   7.464   6.232  0.0296  0.1169  0.0382
 6908W        W 9058   6.938   2.762  15.391  0.1328  0.1097 -0.0270
 6909W        W 9059  23.823   7.446  10.440 -0.2581  0.0479  0.1274
 6910W        W 9060   4.941   7.774   8.944 -0.0185  0.0420  0.1779
 6911W        W 9061   2.157   6.420  25.453  0.0712  0.0134  0.4134
 6912W        W 9062  23.782   7.285  20.298 -0.2224 -0.1274  0.0628
 6913W        W 9063   3.746   4.512  31.691 -0.2245 -0.0543 -0.0379
 6914W        W 9064  12.269   6.613  29.245  0.3533 -0.0184  0.1480
 6915W        W 9065  17.426   2.096  16.254  0.2183 -0.0502 -0.0627
 6916W        W 9066  18.610   7.174  26.452 -0.1870  0.0544  0.1885
 6917W        W 9067   8.762   7.636  10.585 -0.2468  0.1847 -0.0425
 6918W        W 9068  19.818   0.974   7.622 -0.0527 -0.1677  0.1080
 6919W        W 9069   8.104   4.417  26.830 -0.1772  0.0824  0.0752
 6920W        W 9070  22.063   5.324  25.175  0.0092  0.1233 -0.0644
 6921W        W 9071   4.520   6.964  16.097  0.0072 -0.2253  0.1101
 6922W        W 9072   1.435   0.031  26.918 -0.1471 -0.1894  0.1328
 6923W        W 9073   0.015   4.166   2.479 -0.0476 -0.1381 -0.0016
 6924W        W 9074  20.248   1.659  19.150  0.1175 -0.4179 -0.3840
 6925W        W 9075  19.165   3.791  17.463  0.1056 -0.0144 -0.1764
 6926W        W 9076   5.830   6.230  32.717  0.1107 -0.1649 -0.0629
 6927W        W 9077  20.654   7.740  29.365 -0.0036 -0.2376  0.0276
 6928W        W 9078   5.136   4.242  17.972  0.1645  0.2068  0.2684
 6929W        W 9079  12.189   4.081   4.338  0.0847 -0.0356  0.0051
 6930W        W 9080  14.476   6.237  22.815  0.1840  0.1545 -0.0136
 6931W        W 9081   1.017   3.643   8.948 -0.1499 -0.1728  0.1187
 6932W        W 9082  21.293   5.808  33.028 -0.1586  0.1412 -0.1760
 6933W        W 9083   4.885   3.762   4.665  0.0197 -0.1979 -0.1430
 6934W        W 9084  17.755   6.490   4.482  0.2465 -0.0752 -0.2189
 6935W        W 9085  20.850   6.434   4.502 -0.1489 -0.2734  0.3021
 6936W        W 9086   6.640   7.573   5.148  0.1965 -0.0447  0.1690
 6937W        W 9087   4.809   4.702  17.256 -0.0477  0.1537 -0.0690
 6938W        W 9088  14.615   0.930   3.872  0.2666  0.0696  0.0056
 6939W        W 9089   3.549   0.362  16.362  0.1124 -0.4277 -0.1590
 6940W        W 9090  14.886   7.625  26.533  0.0810 -0.0555 -0.2649
 6941W        W 9091   2.762   7.600  27.612 -0.1268  0.2865  0.2955
 6942W        W 9092   3.681   5.175  30.307  0.2048 -0.3171 -0.2549
 6943W        W 9093  19.085   6.585  18.489 -0.0617  0.0141  0.0948
 6944W        W 9094  10.288   5.078  12.611  0.0490  0.3372  0.0377
 6945W        W 9095  22.522   7.397  24.430  0.0869 -0.2657  0.1319
 6946W        W 9096   5.105   1.706  27.163 -0.0319  0.0165  0.2482
 6947W        W 9097   6.096   3.355  27.679  0.1363 -0.2584 -0.0202
 6948W        W 9098  13.016   7.767  17.546  0.1117  0.2253 -0.0012
 6949W        W 9099   3.031   2.574  28.875  0.2456  0.0477 -0.0308
 6950W        W 9100   6.383   6.105   6.998  0.0621 -0.0981  0.1566
 6951W        W 9101   4.845   6.406  31.699  0.1043  0.1786 -0.0959
 6952W        W 9102  21.373   3.752  28.618  0.2138 -0.0168  0.0873
 6953W        W 9103  20.944   5.041  32.996  0.3590  0.0207 -0.0069
 6954W        W 9104  15.122   2.718  23.572  0.0624 -0.2424  0.1927
 6955W        W 9105   1.620   5.998  32.637  0.0403 -0.1059 -0.2756
 6956W        W 9106   9.834   0.551  11.083  0.1462 -0.0569 -0.1634
 6957W        W 9107  20.101   5.715  27.006  0.1084  0.2297  0.2000
 6958W        W 9108   2.730   0.732  17.636  0.1733  0.3971 -0.0303
 6959W        W 9109  12.871   6.226   7.640  0.0465  0.2507 -0.0511
 6960W        W 9110   7.887   4.237  27.941  0.0833  0.1895 -0.3256
 6961W        W 9111   4.719   6.122  29.486  0.0218  0.2058 -0.1573
 6962W        W 9112  20.143   0.669  23.274  0.0588  0.0842  0.1360
 6963W        W 9113  22.261   7.396   5.802  0.0850  0.0395 -0.0063
 6964W        W 9114   2.471   6.170  27.959  0.0008 -0.1069  0.0984
 6965W        W 9115  18.757   2.869   1.941  0.1091 -0.1005  0.0191
 6966W        W 9116  22.388   6.475  21.083 -0.3726  0.1122 -0.3190
 6967W        W 9117   1.637   7.069   7.895 -0.3580  0.5445 -0.0291
 6968W        W 9118  22.573   6.246  29.031 -0.0218  0.1670  0.0215
 6969W        W 9119  19.407   0.269   7.215  0.1452  0.2581 -0.1376
 6970W        W 9120  15.710   7.180  23.282  0.0664  0.0834  0.0115
 6971W        W 9121  21.937   2.789  31.151  0.1025  0.0994 -0.2464
 6972W        W 9122  23.276   6.732  27.643  0.0942  0.2068 -0.2791
 6973W        W 9123  19.019   2.096  31.239  0.1355 -0.0517 -0.1498
 6974W        W 9124  20.237   3.278  20.651  0.1792 -0.0156  0.1472
 6975W        W 9125  15.202   2.642   5.277 -0.2104 -0.1167 -0.2488
 6976W        W 9126  19.603   3.189  22.309  0.2326 -0.2335 -0.0108
 6977W        W 9127  20.634   1.942   0.758  0.1547  0.0499  0.2333
 6978W        W 9128  24.723   4.638   5.971  0.0959  0.0261  0.1008
 6979W        W 9129  20.158   5.385   9.758 -0.1095 -0.0692  0.0712
 6980W        W 9130   0.556   0.881  23.362 -0.2315 -0.0445  0.2525
 6981W        W 9131   7.794   1.324  30.776  0.0777 -0.3714 -0.0726
 6982W        W 9132  16.657   1.276  14.296 -0.0029  0.2059  0.1908
 6983W        W 9133  16.462   0.151  29.410 -0.2769 -0.1391  0.1450
 6984W        W 9134   3.148   2.347   2.814  0.2132  0.3029  0.1874
 6985W        W 9135  13.747   7.117   0.235  0.1403  0.2342 -0.0982
 6986W        W 9136   6.544   3.613  14.975  0.0486 -0.2124 -0.3482
 6987W        W 9137   6.097   4.115   4.838 -0.1221 -0.1054 -0.2046
 6988W        W 9138  14.991   3.962  21.378 -0.0986  0.2816 -0.0278
 6989W        W 9139  15.490   5.265   8.019  0.1848 -0.3480  0.0114
 6990W        W 9140  13.744   1.909  22.505  0.2808  0.2937 -0.0065
 6991W        W 9141  15.777   0.486  32.522  0.2337  0.0747  0.3695
 6992W        W 9142  16.398   1.922   2.377 -0.1071  0.2086  0.0007
 6993W        W 9143   2.409   7.350  23.640  0.2295 -0.1891 -0.1547
 6994W        W 9144   2.883   5.236   4.886  0.1075 -0.3777  0.0452
 6995W        W 9145   4.384   3.633  23.419 -0.0188 -0.1325 -0.1193
 6996W        W 9146  20.346   3.986  22.089  0.1372 -0.1318  0.0624
 6997W        W 9147  21.227   5.591  23.123  0.1361  0.0141  0.0991
 6998W        W 9148   3.695   7.282   9.986  0.2822  0.1236 -0.1643
 6999W        W 9149  16.749   5.873  30.362 -0.3874 -0.1305 -0.1866
 7000W        W 9150   2.184   4.223  26.514 -0.1539  0.1354 -0.0341
 7001W        W 9151   8.702   7.447  29.011 -0.2389 -0.1007  0.0664
 7002W        W 9152   9.047   4.037  29.258 -0.1076 -0.1451 -0.0722
 7003W        W 9153   6.758   1.677  14.769 -0.0231  0.1069 -0.1026
 7004W        W 9154  12.915   7.678  19.925 -0.1142  0.0018  0.1473
 7005W        W 9155   2.890   4.332   9.804  0.0829  0.0512 -0.0154
 7006W        W 9156   2.211   7.032  13.741 -0.0474 -0.2121  0.0350
 7007W        W 9157  24.538   2.574  30.202 -0.1311  0.3940  0.1346
 7008W        W 9158   2.565   5.856  28.793  0.1019  0.0343  0.0948
 7009W        W 9159  18.931   0.350  21.299 -0.1492 -0.1505 -0.0247
 7010W        W 9160   5.944   1.064  28.961  0.1269  0.2261 -0.1373
 7011W        W 9161  20.381   2.856  19.714  0.0659  0.1952  0.1247
 7012W        W 9162   4.446   0.857  13.830 -0.1149  0.1780 -0.0494
 7013W        W 9163  23.051   0.138   3.199 -0.1218  0.2252  0.2899
 7014W        W 9164   6.994   1.448  25.547  0.1923 -0.0310 -0.2246
 7015W        W 9165  12.831   6.011  31.387  0.0117 -0.1583 -0.2738
 7016W        W 9166   2.155   7.569  13.762  0.4069  0.0102  0.0487
 7017W        W 9167   5.487   4.208   3.265 -0.2241  0.2851  0.1154
 7018W        W 9168  14.669   3.909   2.033  0.0142  0.1305  0.1789
 7019W        W 9169  17.862   5.221  31.838 -0.1499  0.3966  0.1152
 7020W        W 9170  20.565   1.290  19.359  0.1182 -0.2144  0.1519
 7021W        W 9171  24.294   1.672  21.910  0.2913  0.1541 -0.2434
 7022W        W 9172  21.193   1.341   7.569 -0.1934  0.1874  0.3030
 7023W        W 9173  15.471   0.064   4.089  0.2348 -0.1642  0.1704
 7024W        W 9174   3.261   1.035   7.453  0.0903 -0.2435 -0.3065
 7025W        W 9175  19.852   0.950  20.984  0.1730 -0.3667 -0.1321
 7026W        W 9176  14.448   2.639   0.374 -0.2185 -0.0896  0.0677
 7027W        W 9177   5.154   0.398   9.130  0.0271  0.1789  0.3361
 7028W        W 9178   1.338   2.438  12.215 -0.0525  0.1228  0.0466
 7029W        W 9179   4.205   3.459  15.210 -0.1846  0.2719 -0.0684
 7030W        W 9180   3.424   4.731  14.302 -0.1334  0.3291 -0.1813
 7031W        W 9181  22.642   6.434   5.476  0.1493 -0.0720 -0.1925
 7032W        W 9182   6.678   6.666  26.278 -0.0516  0.0876  0.2352
 7033W        W 9183  13.606   7.489  29.141  0.1876  0.3635 -0.0528
 7034W        W 9184   5.774   5.358  22.508 -0.0068  0.0909 -0.0012
 7035W        W 9185  20.180   5.172  27.248 -0.1211  0.2163  0.1499
 7036W        W 9186  11.760   4.837  26.880  0.0161  0.0570 -0.2131
 7037W        W 9187   7.021   4.159   5.944 -0.1696  0.1182  0.2422
 7038W        W 9188  20.024   3.143  17.625 -0.1132  0.1368 -0.1230
 7039W        W 9189  18.890   1.721  26.276 -0.2450 -0.0942 -0.1879
 7040W        W 9190  17.338   4.455   5.579 -0.2947  0.2350  0.1334
 7041W        W 9191   7.783   5.463  27.204  0.1075  0.1763 -0.2888
 7042W        W 9192  15.904   5.804  27.058  0.2970  0.3485 -0.1021
 7043W        W 9193   8.871   2.854  12.058 -0.1578 -0.2663 -0.2827
 7044W        W 9194   8.324   1.910  26.734 -0.2176  0.0859 -0.0576
 7045W        W 9195   0.423   3.552   8.088 -0.0952  0.1814  0.0526
 7046W        W 9196   5.556   6.437  11.681 -0.1158  0.1090  0.1132
 7047W        W 9197   6.379   6.169  18.848 -0.2580 -0.3627  0.0960
 7048W        W 9198  20.440   2.348   0.925  0.0686 -0.1297 -0.2698
 7049W        W 9199  18.567   6.785   1.547 -0.2387  0.1053  0.0854
 7050W        W 9200   3.299   7.024   2.658 -0.0836 -0.3519 -0.1232
 7051W        W 9201  22.685   3.365  12.983  0.0697 -0.1408  0.4675
 7052W        W 9202  10.219   3.395  12.403  0.0704 -0.4005 -0.0877
 7053W        W 9203  16.139   1.178  22.782  0.3967 -0.1808  0.1163
 7054W        W 9204   6.631   6.192  10.326 -0.0070 -0.0058  0.1423
 7055W        W 9205  15.633   3.066  23.751 -0.3472 -0.0983  0.1123
 7056W        W 9206   9.226   7.663   8.983 -0.2590  0.0502 -0.0156
 7057W        W 9207  24.161   7.634   4.097  0.0213  0.0070 -0.0404
 7058W        W 9208   8.944   4.050   5.013  0.1730 -0.0973  0.0765
 7059W        W 9209  22.009   2.101   7.804 -0.2669  0.3007  0.0905
 7060W        W 9210  11.531   0.210  20.305  0.0397  0.2574  0.0764
 7061W        W 9211  18.388   3.941  16.497 -0.1146  0.0403 -0.2314
 7062W        W 9212  13.622   1.845   2.995 -0.0208  0.0515 -0.2771
 7063W        W 9213  13.081   1.409  32.475 -0.0647  0.0695 -0.0307
 7064W        W 9214   8.136   6.780  28.346 -0.2131 -0.0908  0.1785
 7065W        W 9215  12.481   0.379   4.393  0.1107 -0.2719  0.0453
 7066W        W 9216   4.713   6.980  28.651 -0.2821  0.4226  0.4581
 7067W        W 9217  20.797   7.255  33.007  0.0692 -0.3378  0.3866
 7068W        W 9218  15.181   4.486  32.797  0.0137  0.2015 -0.0234
 7069W        W 9219  14.189   4.524  31.033 -0.0725  0.0888 -0.1265
 7070W        W 9220  13.392   1.931  27.154 -0.0742  0.0223  0.2269
 7071W        W 9221  24.199   3.815  30.649 -0.1009 -0.0681 -0.0590
 7072W        W 9222  11.274   5.284   0.219  0.0301 -0.0035 -0.2147
 7073W        W 9223  19.709   5.002  32.573  0.0336 -0.1350 -0.0728
 7074W        W 9224   2.069   4.819  22.201 -0.3704  0.1380  0.0648
 7075W        W 9225  21.665   6.777  23.403 -0.2169  0.1424 -0.2239
 7076W        W 9226   3.838   6.457  31.882  0.0141 -0.1460 -0.2280
 7077W        W 9227   4.457   1.367   0.193  0.2240 -0.3052  0.2523
 7078W        W 9228   0.033   5.925   9.050  0.2213  0.0803 -0.2884
 7079W        W 9229   0.563   2.648   2.101 -0.0242 -0.0865 -0.0159
 7080W        W 9230   6.484   4.188  23.138  0.0887  0.1897 -0.0525
 7081W        W 9231  14.273   5.049  16.853 -0.2571 -0.1048 -0.1790
 7082W        W 9232  18.036   2.832  26.119  0.0572 -0.0702  0.1415
 7083W        W 9233   4.970   7.615  25.403 -0.0872 -0.1672  0.0310
 7084W        W 9234  10.362   5.567  30.770  0.1337 -0.1359 -0.0342
 7085W        W 9235  15.735   1.956   3.647  0.2476 -0.0669 -0.0438
 7086W        W 9236   5.813   0.280  24.746  0.0308 -0.3560  0.0245
 7087W        W 9237  12.499   2.872  31.931 -0.2471  0.2066  0.0839
 7088W        W 9238  23.822   4.317  22.684 -0.2160  0.1771 -0.2267
 7089W        W 9239  17.582   5.464  31.508 -0.0178 -0.3025 -0.3465
 7090W        W 9240  14.595   0.293  19.665 -0.0385  0.0499  0.2251
 7091W        W 9241  11.089   0.040  20.684  0.0635 -0.2797  0.0913
 7092W        W 9242  14.388   4.780  17.309 -0.2033 -0.1622  0.2982
 7093W        W 9243  21.958   3.338  31.585 -0.0191  0.1045  0.3668
 7094W        W 9244  13.164   4.598  22.554 -0.0369  0.1819  0.0733
 7095W        W 9245  24.577   1.935   0.156  0.0594  0.1183  0.2615
 7096W        W 9246  24.382   5.141   6.564 -0.4580 -0.2256 -0.0648
 7097W        W 9247  23.985   0.122  31.419  0.1578 -0.1476  0.2622
 7098W        W 9248   1.392   7.052   2.883  0.0856 -0.4417 -0.3235
 7099W        W 9249  16.364   4.096  25.225 -0.0122  0.0933  0.0807
 7100W        W 9250  20.402   4.729   1.454 -0.2293 -0.2267  0.2199
 7101W        W 9251   9.045   6.808   5.900  0.4293 -0.2721 -0.1592
 7102W        W 9252  19.461   7.621  28.383 -0.1648 -0.0914  0.1810
 7103W        W 9253  11.260   0.818   6.897 -0.1359 -0.0616  0.1955
 7104W        W 9254   4.403   6.569  27.994  0.0787  0.4007 -0.1210
 7105W        W 9255   7.855   6.240  26.401  0.2874 -0.0867 -0.2110
 7106W        W 9256   4.059   1.337  23.755 -0.1080  0.1605  0.1272
 7107W        W 9257   6.089   0.157  30.490 -0.0124  0.1200  0.2166
 7108W        W 9258   7.928   4.050   0.056 -0.2251  0.2107  0.1499
 7109W        W 9259   2.650   5.310  31.762  0.0623  0.2729 -0.1636
 7110W        W 9260   0.099   2.788  31.563  0.0911 -0.3233  0.0387
 7111W        W 9261   1.717   5.955   0.684  0.3328  0.0710  0.1586
 7112W        W 9262  20.760   4.103  26.621 -0.0338 -0.0953  0.2797
 7113W        W 9263   5.581   3.603  22.793 -0.0760 -0.3091  0.1491
 7114W        W 9264   0.995   3.810  27.058 -0.1561  0.0837 -0.1354
 7115W        W 9265   6.725   2.794  10.041 -0.0992  0.1170 -0.1416
 7116W        W 9266  12.301   3.461  29.672  0.0232  0.0892 -0.1874
 7117W        W 9267  11.533   2.180   1.043  0.1636 -0.2947 -0.2970
 7118W        W 9268  23.179   6.679  12.942 -0.3827  0.0288 -0.2095
 7119W        W 9269  17.163   7.393   6.551 -0.1408 -0.0561  0.2734
 7120W        W 9270  10.031   4.617   7.887 -0.0095 -0.1405  0.1295
 7121W        W 9271   1.341   3.750   4.122 -0.1114  0.0908 -0.0509
 7122W        W 9272   9.607   4.911  30.781  0.4087 -0.0316 -0.2273
 7123W        W 9273   2.640   2.360   2.257  0.0244 -0.0888 -0.0054
 7124W        W 9274  21.804   3.393  32.427 -0.0090 -0.1407 -0.3523
 7125W        W 9275  14.336   7.792   3.819  0.2389 -0.0435  0.0485
 7126W        W 9276   0.664   1.847   8.407  0.1079 -0.0014 -0.1363
 7127W        W 9277  18.723   7.720   0.635 -0.0013  0.0553  0.0419
 7128W        W 9278  23.363   0.668  27.376  0.0553 -0.0066 -0.0814
 7129W        W 9279  20.751   2.792  11.405  0.1437  0.0378 -0.0856
 7130W        W 9280  24.560   4.718  25.602 -0.0185 -0.0902 -0.1178
 7131W        W 9281  12.139   7.164  19.921 -0.0390 -0.1499  0.0322
 7132W        W 9282  10.424   1.362   2.448 -0.4247 -0.0419 -0.0048
 7133W        W 9283  23.961   0.192  22.668 -0.2506 -0.0987 -0.0177
 7134W        W 9284   7.357   6.252  32.378 -0.1025 -0.0966 -0.0294
 7135W        W 9285  19.932   4.805  27.651  0.2799  0.2142  0.0203
 7136W        W 9286  17.241   1.838   7.707  0.0386  0.3646 -0.1646
 7137W        W 9287  17.730   4.408   6.910 -0.0205  0.2036  0.1918
 7138W        W 9288   5.597   1.545  11.244  0.0069  0.0795  0.1684
 7139W        W 9289  24.702   7.073   9.427 -0.2541 -0.0944  0.0888
 7140W        W 9290   2.307   0.661  32.335  0.2303  0.1980  0.0535
 7141W        W 9291  17.794   4.338   1.487 -0.2563 -0.2006 -0.1201
 7142W        W 9292  22.340   2.930  26.971  0.0563 -0.0598  0.0111
 7143W        W 9293   8.082   1.741   3.036  0.2220  0.4572  0.1905
 7144W        W 9294   0.861   5.260   1.618 -0.0809 -0.0778  0.1991
 7145W        W 9295  17.850   6.938  15.928 -0.0534  0.1969  0.1132
 7146W        W 9296   7.458   1.680   5.171 -0.1538  0.1409 -0.1895
 7147W        W 9297   1.684   4.491   2.396  0.2832  0.1238  0.0110
 7148W        W 9298   0.272   0.404   2.805 -0.1180  0.0575 -0.0391
 7149W        W 9299   7.345   6.228   0.001 -0.0701  0.4221 -0.2689
 7150W        W 9300   4.061   1.373  13.273  0.2295  0.1029 -0.0622
 7151W        W 9301   3.950   6.532  16.566  0.1389 -0.0133 -0.0138
 7152W        W 9302  24.605   1.472  11.564  0.2267 -0.3550 -0.1656
 7153W        W 9303  12.737   1.512   7.950 -0.1082  0.0372  0.0101
 7154W        W 9304  15.776   1.932   5.475  0.3797 -0.2879  0.2337
 7155W        W 9305   1.955   6.674  12.654 -0.2063 -0.1542 -0.1496
 7156W        W 9306   8.689   5.627  28.111  0.1102 -0.2896 -0.1515
 7157W        W 9307   6.979   1.090  31.995  0.0019  0.2908  0.1048
 7158W        W 9308  15.678   4.394  32.061 -0.0656 -0.0092  0.0354
 7159W        W 9309  16.401   3.490   2.135  0.3002 -0.1143 -0.0009
 7160W        W 9310  13.602   0.916  16.690  0.0444 -0.0913 -0.0684
 7161W        W 9311  23.554   1.589   4.536  0.2039  0.3508 -0.0066
 7162W        W 9312  15.006   2.197  15.796  0.1745 -0.0607  0.1654
 7163W        W 9313   6.820   5.166  30.904  0.1414  0.2552  0.2079
 7164W        W 9314  22.758   1.630  10.772 -0.3340  0.3119 -0.1056
 7165W        W 9315  14.366   7.309  21.405 -0.0532  0.0074 -0.0961
 7166W        W 9316  18.616   1.492  19.712  0.3379 -0.0986 -0.1374
 7167W        W 9317   1.463   4.757   1.479  0.0596  0.0048  0.1782
 7168W        W 9318  10.097   6.210   2.233  0.1697  0.2331 -0.1240
 7169W        W 9319  15.237   6.152   1.018  0.0254 -0.0732 -0.1509
 7170W        W 9320  12.676   6.798   7.625 -0.0885  0.0279  0.0572
 7171W        W 9321  11.857   6.610   0.160  0.0304 -0.0043 -0.1946
 7172W        W 9322  11.955   2.131   5.276 -0.0335  0.2070 -0.2941
 7173W        W 9323  13.563   0.862  24.200 -0.1449  0.1871 -0.0216
 7174W        W 9324  17.368   1.612  26.114  0.0512 -0.0439 -0.2212
 7175W        W 9325  12.775   1.433  22.511  0.2234  0.3251  0.1109
 7176W        W 9326   8.050   0.450  12.655  0.0168 -0.0406  0.0139
 7177W        W 9327  21.216   3.997  29.869  0.0751 -0.2195 -0.0661
 7178W        W 9328   8.171   1.401  14.479  0.0693 -0.2897  0.4202
 7179W        W 9329  17.902   4.570   3.568 -0.1089 -0.0599  0.1946
 7180W        W 9330  22.063   1.227  19.169  0.1253 -0.0840 -0.1646
 7181W        W 9331   1.860   3.382   7.600  0.0804  0.0678 -0.3079
 7182W        W 9332  15.413   4.580  20.974  0.0870  0.1707  0.1356
 7183W        W 9333  20.561   1.474  18.791 -0.4893  0.2879 -0.1592
 7184W        W 9334   9.082   3.918   9.109  0.2476 -0.0355  0.2743
 7185W        W 9335   4.624   2.522  10.217 -0.3783  0.2109 -0.2939
 7186W        W 9336  23.634   7.800  23.012  0.0626 -0.0733  0.0213
 7187W        W 9337   3.276   7.204   4.919  0.1571  0.0487  0.0672
 7188W        W 9338  19.881   5.066   7.787  0.2263  0.3564  0.1207
 7189W        W 9339  20.830   3.548   0.523 -0.5057 -0.3252 -0.0908
 7190W        W 9340  14.912   1.096  24.333  0.4702 -0.2406  0.1628
 7191W        W 9341  22.634   2.381  30.518  0.2453  0.2015 -0.0088
 7192W        W 9342   7.811   1.566   4.098  0.1847  0.2011 -0.1536
 7193W        W 9343  13.472   7.225   2.594 -0.3362 -0.1996  0.0910
 7194W        W 9344  10.842   1.872  22.699  0.0791  0.1470  0.3202
 7195W        W 9345  18.936   2.898  25.431  0.1725 -0.0563 -0.0946
 7196W        W 9346   0.517   0.041   5.340 -0.3210  0.1370 -0.0724
 7197W        W 9347  12.075   6.341  26.851  0.1359  0.1168  0.0151
 7198W        W 9348  16.859   3.836  22.811  0.0874  0.0338  0.1459
 7199W        W 9349  24.493   2.189   8.864  0.0571  0.1408 -0.0218
 7200W        W 9350   5.809   4.658  10.506  0.0796  0.1553 -0.0734
 7201W        W 9351   9.346   3.440   3.442  0.0438  0.0150 -0.2696
 7202W        W 9352   5.009   3.000   3.934 -0.1047  0.2234  0.1046
 7203W        W 9353   0.433   2.870  10.191  0.3301  0.1260 -0.0648
 7204W        W 9354   7.078   6.789   7.793 -0.1604  0.0889 -0.1920
 7205W        W 9355   4.953   7.525  17.780 -0.0117  0.0370  0.1630
 7206W        W 9356  24.960   0.622  26.886  0.1187  0.0290  0.1780
 7207W        W 9357   8.167   2.428   4.223  0.1039  0.2838 -0.0862
 7208W        W 9358   2.264   3.316  30.992  0.3443  0.0682  0.0698
 7209W        W 9359  18.391   0.036  31.757 -0.2116 -0.1062  0.1136
 7210W        W 9360   8.093   2.671   4.688 -0.0597  0.2165  0.1263
 7211W        W 9361   3.862   4.541  30.337 -0.0527  0.1044  0.1291
 7212W        W 9362   7.465   4.782  12.010 -0.0712  0.1384 -0.0653
 7213W        W 9363   8.901   4.106   2.198 -0.1397  0.0218 -0.0305
 7214W        W 9364   0.528   2.258  29.797 -0.2033  0.0428  0.3890
 7215W        W 9365   8.888   6.520   1.281 -0.1363 -0.3050  0.0256
 7216W        W 9366  20.252   4.881  11.271 -0.2487  0.2485  0.0272
 7217W        W 9367  18.862   7.178   6.454 -0.2202 -0.0175 -0.2224
 7218W        W 9368  18.704   6.321  30.080  0.1144 -0.0238 -0.2335
 7219W        W 9369  18.563   0.943  23.383 -0.0967 -0.2049 -0.1558
 7220W        W 9370   6.723   4.143   0.837  0.1287 -0.3971  0.1539
 7221W        W 9371  22.396   5.795   2.599  0.0608  0.2422  0.2176
 7222W        W 9372  23.597   5.205   0.505 -0.0636  0.0063  0.0419
 7223W        W 9373   3.529   2.562  22.846  0.2957  0.1329 -0.2332
 7224W        W 9374  23.479   6.902  29.609  0.1047 -0.2763 -0.1005
 7225W        W 9375   7.412   3.341   2.301 -0.0017 -0.0280  0.3759
 7226W        W 9376   2.719   3.794  27.938  0.1826 -0.1315  0.0954
 7227W        W 9377   4.578   5.096  29.968  0.2186 -0.1350  0.1168
 7228W        W 9378  13.953   1.100  32.721  0.2307 -0.1362 -0.0103
 7229W        W 9379  17.390   0.827  28.304 -0.0410  0.3380  0.2755
 7230W        W 9380  15.701   5.117  28.285 -0.0205 -0.0011 -0.2672
 7231W        W 9381   3.982   0.949  23.449  0.0252  0.0248  0.1618
 7232W        W 9382  19.172   5.200  22.136  0.0725  0.0156  0.1728
 7233W        W 9383  17.308   6.201  32.443 -0.3318 -0.2482 -0.0549
 7234W        W 9384  20.063   0.210  24.060 -0.2669  0.0585 -0.6750
 7235W        W 9385  19.711   2.275  22.583 -0.2317  0.1857 -0.0168
 7236W        W 9386  22.993   6.319   3.590  0.0214  0.1444  0.0101
 7237W        W 9387  19.764   3.436   7.878  0.1156  0.1537  0.2439
 7238W        W 9388  12.844   6.145   9.540 -0.0283 -0.0635 -0.2509
 7239W        W 9389   5.404   1.052   2.385  0.0767 -0.3034  0.5081
 7240W        W 9390  16.336   0.918  26.183 -0.0282  0.0307  0.0742
 7241W        W 9391  11.973   6.879  26.705 -0.0921 -0.3347 -0.1226
 7242W        W 9392  19.494   2.986  23.811 -0.0147 -0.0352 -0.2012
 7243W        W 9393  18.973   1.121  32.819 -0.2144 -0.2017 -0.0708
 7244W        W 9394  17.575   1.384  15.451  0.3380 -0.2979 -0.1905
 7245W        W 9395  18.427   4.006  26.030  0.0528  0.2647  0.0772
 7246W        W 9396  23.968   7.242   7.248 -0.1297  0.0644 -0.1807
 7247W        W 9397   8.100   7.120  23.794 -0.2306 -0.2767  0.1342
 7248W        W 9398   5.781   4.638  24.318 -0.1540  0.0264  0.2138
 7249W        W 9399   1.761   7.348  13.542 -0.0280  0.0629 -0.2877
 7250W        W 9400  10.390   1.488  10.238 -0.2467  0.1923 -0.0755
 7251W        W 9401  24.447   3.179  24.858 -0.0613  0.2392  0.0492
 7252W        W 9402   6.214   0.118   9.526  0.2026 -0.1435 -0.1754
 7253W        W 9403   4.917   7.456   3.724  0.0652 -0.0519 -0.0303
 7254W        W 9404  19.817   4.702  30.518 -0.0368  0.2294 -0.1272
 7255W        W 9405   9.686   2.245  32.438  0.0695  0.4268  0.3826
 7256W        W 9406  16.384   7.034   1.139  0.0054  0.0697  0.0124
 7257W        W 9407  13.564   4.829  24.539 -0.0049  0.0090  0.1967
 7258W        W 9408  17.639   2.940   6.820  0.0371  0.0787 -0.0753
 7259W        W 9409   4.819   6.341  16.534 -0.1941 -0.1916 -0.1494
 7260W        W 9410  16.675   0.584   5.993 -0.3557 -0.4294 -0.1979
 7261W        W 9411  18.159   3.580  21.452 -0.0976  0.3487  0.1787
 7262W        W 9412  19.900   0.824  19.156 -0.0127  0.2591  0.2019
 7263W        W 9413  20.763   7.526   9.587  0.1574  0.1074 -0.0683
 7264W        W 9414   5.148   2.821   7.269 -0.0460 -0.1657  0.0214
 7265W        W 9415   5.348   2.525  17.207  0.0315 -0.1240  0.0564
 7266W        W 9416  11.847   0.830  24.693  0.0926 -0.0546 -0.1265
 7267W        W 9417   1.805   3.165  23.335 -0.1747  0.2858  0.1166
 7268W        W 9418   7.842   6.883  12.701  0.0659  0.0114  0.0871
 7269W        W 9419   6.246   2.270  24.920  0.1933 -0.0796 -0.1228
 7270W        W 9420  16.797   7.077   0.909 -0.4041  0.0396 -0.1576
 7271W        W 9421   0.505   6.842  12.868  0.0760 -0.1361 -0.1109
 7272W        W 9422   1.561   4.666  26.663  0.0102 -0.1360  0.0805
 7273W        W 9423  14.455   5.770  29.150  0.2864  0.3353  0.0516
 7274W        W 9424  10.823   2.031   1.494  0.2073 -0.0598 -0.2058
 7275W        W 9425  16.412   6.701  22.567  0.0941 -0.0330  0.0728
 7276W        W 9426  10.052   7.769   6.648  0.3372 -0.1859 -0.0623
 7277W        W 9427   7.517   6.428   6.426 -0.1068 -0.1785 -0.4301
 7278W        W 9428  15.759   2.178  16.431 -0.0834 -0.1268  0.1182
 7279W        W 9429  16.294   0.023  28.982 -0.0865  0.1041 -0.2353
 7280W        W 9430  13.482   5.622  19.811  0.1185 -0.4383  0.1087
 7281W        W 9431  11.771   6.600   4.064  0.2333 -0.5228  0.1590
 7282W        W 9432   6.864   2.314   9.896  0.3121  0.3836  0.0056
 7283W        W 9433  11.526   1.262  26.141 -0.1598  0.0303 -0.1404
 7284W        W 9434   0.667   1.351  31.912 -0.0333 -0.0518  0.1786
 7285W        W 9435   0.934   6.471  22.182 -0.1124  0.0378 -0.0255
 7286W        W 9436  12.605   2.245  26.402 -0.0517  0.2942 -0.3120
 7287W        W 9437   1.169   4.561  11.312 -0.2088 -0.1908 -0.1013
 7288W        W 9438   9.271   5.493  32.954 -0.0435 -0.0464 -0.1251
 7289W        W 9439  16.580   2.033  10.089  0.2656 -0.0757 -0.0759
 7290W        W 9440  12.517   0.798  30.007  0.0280  0.1599 -0.0198
 7291W        W 9441   6.965   1.476   5.221  0.4637  0.1297 -0.2282
 7292W        W 9442   7.154   5.405   2.679 -0.0403  0.0904 -0.3546
 7293W        W 9443  14.451   0.004  27.577  0.1792 -0.0886 -0.1621
 7294W        W 9444  16.073   1.528  20.144  0.2410 -0.3196  0.1121
 7295W        W 9445  24.381   3.296  24.333  0.1542 -0.1634 -0.1094
 7296W        W 9446  21.548   2.135  31.779 -0.0658  0.2047  0.1557
 7297W        W 9447  23.039   0.846   8.247 -0.1314 -0.1682 -0.1035
 7298W        W 9448  11.908   6.900   6.960 -0.2325 -0.0046  0.3008
 7299W        W 9449   9.057   3.811   5.918  0.0190 -0.1107 -0.0819
 7300W        W 9450   0.662   5.657  12.854 -0.3120  0.3313 -0.0644
 7301W        W 9451   8.945   2.133   9.404 -0.2786 -0.1884  0.1944
 7302W        W 9452  11.895   7.431  26.416  0.1359 -0.4434  0.0096
 7303W        W 9453   2.591   3.726  12.479  0.1320  0.3306 -0.0464
 7304W        W 9454  15.772   7.420  16.187  0.2549 -0.1089 -0.0128
 7305W        W 9455   0.547   7.039  22.331 -0.0471  0.0310  0.0798
 7306W        W 9456  20.090   3.624   1.942  0.0451  0.2059  0.0922
 7307W        W 9457  14.250   0.312  25.487  0.0836 -0.1999  0.0745
 7308W        W 9458  24.650   1.287  29.230  0.0578  0.0838 -0.2617
 7309W        W 9459   8.354   1.683   0.957 -0.1123  0.3150 -0.1140
 7310W        W 9460  10.129   6.270  25.047  0.1968 -0.2183 -0.2592
 7311W        W 9461  23.023   6.153   9.637 -0.0639  0.3498 -0.0646
 7312W        W 9462  24.401   0.875   0.427  0.1384 -0.1135  0.1264
 7313W        W 9463  24.616   1.923   9.749 -0.0198 -0.0842 -0.2004
 7314W        W 9464  14.921   2.408   1.781 -0.1010 -0.1234  0.0109
 7315W        W 9465  11.295   1.885  30.053  0.0751 -0.1270 -0.0396
 7316W        W 9466  11.964   7.521  24.678 -0.2680  0.0334 -0.1001
 7317W        W 9467   7.798   1.778  26.717  0.2051 -0.0945  0.1770
 7318W        W 9468   3.200   3.434  23.556 -0.3477  0.0122 -0.1417
 7319W        W 9469  20.506   3.073   5.611 -0.0979 -0.2642 -0.0415
 7320W        W 9470   0.121   1.766   9.093 -0.1979  0.0542 -0.0796
 7321W        W 9471   2.661   1.395  22.750  0.2788  0.2730  0.2023
 7322W        W 9472   2.514   1.399  14.275 -0.0337 -0.0565  0.0697
 7323W        W 9473   0.262   6.521  33.002  0.3614 -0.1972 -0.2930
 7324W        W 9474  21.683   0.343   3.677  0.1067 -0.0543 -0.0736
 7325W        W 9475   4.362   1.569  18.423 -0.0118 -0.0448 -0.1048
 7326W        W 9476   0.284   7.647  29.088 -0.1100  0.0874 -0.1913
 7327W        W 9477  17.721   6.818  31.779  0.0846 -0.0721 -0.3039
 7328W        W 9478  17.293   1.066  29.583  0.0553  0.0320  0.0056
 7329W        W 9479   0.667   7.209  32.829 -0.0465  0.1523  0.1234
 7330W        W 9480   4.525   6.534  32.871 -0.0539 -0.2825  0.0771
 7331W        W 9481  22.316   4.132   6.655  0.3768 -0.0489  0.1438
 7332W        W 9482  19.671   6.095  20.625 -0.0377 -0.0970 -0.1376
 7333W        W 9483   0.774   4.263   9.727 -0.1000 -0.0280  0.0316
 7334W        W 9484  11.075   6.521   5.515  0.2849 -0.2073 -0.0070
 7335W        W 9485  12.692   5.125   2.515  0.0120  0.2472 -0.1867
 7336W        W 9486  13.178   6.711  22.427  0.0400  0.1698 -0.2026
 7337W        W 9487  21.734   7.361   9.670 -0.0148  0.1558 -0.0087
 7338W        W 9488  15.955   5.466   5.165  0.0278  0.2627 -0.1737
 7339W        W 9489  18.579   5.203  31.432  0.1669 -0.0537 -0.0840
 7340W        W 9490   3.815   0.519  14.249  0.2745 -0.0605  0.0197
 7341W        W 9491  14.455   4.987  26.067  0.0983  0.0040  0.2885
 7342W        W 9492   8.992   6.812  11.840 -0.2560 -0.0097 -0.1946
 7343W        W 9493   6.788   0.770   1.307  0.1247 -0.0292  0.1375
 7344W        W 9494   6.399   1.538  23.010  0.1277 -0.2813  0.2817
 7345W        W 9495   5.864   1.567   8.497 -0.1390 -0.0770  0.4983
 7346W        W 9496  13.783   1.052   7.054  0.2290  0.5322  0.1746
 7347W        W 9497  20.529   3.595  22.412 -0.0695 -0.0742 -0.1147
 7348W        W 9498   2.489   6.161   2.168 -0.0044  0.0797  0.0808
 7349W        W 9499   1.318   1.370   5.813  0.1657  0.0334 -0.1830
 7350W        W 9500  15.016   5.134  29.486  0.1349  0.0626 -0.0575
 7351W        W 9501  17.350   6.581   8.397  0.1383 -0.0933 -0.2709
 7352W        W 9502   6.381   2.176  26.593  0.0419 -0.2384  0.2694
 7353W        W 9503  18.943   0.994  23.700  0.1273  0.0370 -0.1202
 7354W        W 9504  10.754   4.580  11.060  0.0745  0.1557 -0.0588
 7355W        W 9505  20.479   0.336  31.821  0.0709 -0.0664 -0.0990
 7356W        W 9506   8.657   3.573  11.189  0.1139  0.0653 -0.1563
 7357W        W 9507  17.633   1.655   1.168 -0.0711 -0.0709 -0.1196
 7358W        W 9508  23.116   6.957  29.290 -0.0993 -0.0272 -0.1658
 7359W        W 9509  21.522   0.251  18.661 -0.0770  0.3365  0.2131
 7360W        W 9510   9.007   0.497  11.801  0.0529  0.1125 -0.1451
 7361W        W 9511  18.164   4.414   4.128 -0.0697  0.0251 -0.1236
 7362W        W 9512   4.197   5.316  12.388  0.0221 -0.1609 -0.0763
 7363W        W 9513  17.748   7.303  24.314 -0.1373 -0.3765  0.1559
 7364W        W 9514   1.898   2.600   5.522  0.0647  0.0956  0.0134
 7365W        W 9515  18.209   3.795   7.676  0.1414 -0.0908 -0.1463
 7366W        W 9516   1.119   3.963  23.058 -0.0534 -0.0585  0.0741
 7367W        W 9517   8.116   6.283  15.131 -0.1020  0.2544  0.0100
 7368W        W 9518  13.892   3.478  15.067  0.1906 -0.0302 -0.0702
 7369W        W 9519   4.266   6.307   4.033 -0.2600 -0.1082  0.2711
 7370W        W 9520  10.046   6.140  23.716 -0.0409 -0.1158 -0.1565
 7371W        W 9521  10.313   3.692  26.512 -0.1517  0.1588 -0.0535
 7372W        W 9522   4.346   7.322  32.499  0.1396 -0.2390 -0.1221
 7373W        W 9523  24.590   1.409   1.304 -0.2546  0.1386 -0.0680
 7374W        W 9524  19.256   7.163   7.383 -0.0137  0.1519  0.1448
 7375W        W 9525   2.395   3.673   7.039 -0.2239 -0.1061 -0.2180
 7376W        W 9526  23.820   4.500   7.507 -0.0002  0.3490 -0.0878
 7377W        W 9527   5.667   3.744  24.780  0.0497 -0.1002 -0.3695
 7378W        W 9528   1.541   0.746  25.305 -0.0060  0.3307 -0.0856
 7379W        W 9529  17.438   3.610  19.353  0.0643 -0.1005  0.0875
 7380W        W 9530  22.432   5.592  25.466 -0.0535 -0.2306 -0.0113
 7381W        W 9531  11.871   6.201  28.456  0.2849 -0.1341  0.2625
 7382W        W 9532  20.491   5.111  16.584  0.1959  0.3017 -0.2119
 7383W        W 9533  11.006   7.096   0.997 -0.1420  0.3264  0.1589
 7384W        W 9534  16.058   6.810  30.782  0.0901  0.2233  0.0886
 7385W        W 9535   5.947   4.027  25.434 -0.2139  0.1102  0.1479
 7386W        W 9536  21.698   5.029   8.729 -0.2483 -0.0368 -0.0109
 7387W        W 9537  20.304   1.971   9.736  0.2141 -0.0442  0.1030
 7388W        W 9538   6.388   6.149   1.335 -0.0580  0.1506  0.3907
 7389W        W 9539  10.258   6.641  13.406  0.3865  0.3091 -0.0019
 7390W        W 9540  17.622   6.895  25.210  0.0765 -0.3605  0.0692
 7391W        W 9541   6.106   3.655  11.598  0.2270 -0.1345  0.1855
 7392W        W 9542   5.105   2.895  30.579 -0.1507 -0.0178 -0.2607
 7393W        W 9543  23.982   3.578   0.107  0.0925  0.1530 -0.0056
 7394W        W 9544  20.894   5.930   9.453 -0.0377 -0.0398 -0.0756
 7395W        W 9545  17.158   0.542  29.542  0.1226 -0.0653  0.1562
 7396W        W 9546   2.364   1.523  31.329 -0.0780 -0.0652 -0.0024
 7397W        W 9547  19.504   2.751  20.784  0.1271  0.2013  0.1203
 7398W        W 9548  22.067   7.777  20.387  0.1522  0.0789 -0.1490
 7399W        W 9549  19.814   2.355   3.619 -0.0967  0.1036  0.0060
 7400W        W 9550  20.632   6.094   2.665 -0.3620  0.0558 -0.1072
 7401W        W 9551   5.843   1.513   4.054  0.1049  0.1923  0.1337
 7402W        W 9552  14.813   4.813  21.706  0.0228 -0.0436 -0.1283
 7403W        W 9553  23.453   6.706  25.219 -0.0892 -0.2413 -0.1790
 7404W        W 9554   1.410   7.702  29.356 -0.0724  0.0253  0.0410
 7405W        W 9555   1.470   1.125  16.195 -0.1541 -0.2994 -0.2185
 7406W        W 9556  17.994   5.243   4.089  0.0046 -0.4330  0.2012
 7407W        W 9557  14.110   6.615   5.548 -0.0538  0.2035 -0.2706
 7408W        W 9558  24.473   1.197  23.167  0.1111  0.1798  0.0279
 7409W        W 9559   4.457   6.757   5.420  0.1897  0.1898 -0.0964
 7410W        W 9560  16.496   4.857  19.998 -0.0787 -0.0643  0.2404
 7411W        W 9561  11.116   4.178   7.194  0.0724  0.0482  0.1358
 7412W        W 9562   8.880   2.181  31.599  0.0718  0.2094 -0.0065
 7413W        W 9563  18.239   1.335  22.631 -0.0778  0.1699 -0.1255
 7414W        W 9564   1.101   3.632  25.055 -0.0565 -0.2572  0.2034
 7415W        W 9565   1.184   5.709  23.283 -0.1179 -0.3361 -0.0699
 7416W        W 9566  10.485   3.588  31.464 -0.0128 -0.0249  0.0930
 7417W        W 9567  20.108   4.041   6.629 -0.1515  0.3259 -0.1912
 7418W        W 9568   6.156   1.859   7.793  0.2229 -0.3062 -0.0532
 7419W        W 9569   2.954   7.387   1.154  0.1838 -0.0903 -0.5136
 7420W        W 9570  18.660   2.419  16.673 -0.0611 -0.1639  0.1881
 7421W        W 9571  22.734   3.388   5.779  0.0239  0.1321 -0.0084
 7422W        W 9572  12.387   7.354   5.560 -0.0967 -0.3760  0.2816
 7423W        W 9573   8.730   6.400  24.560 -0.5261  0.0850 -0.1095
 7424W        W 9574   1.787   7.746   0.566 -0.1688  0.0223  0.0210
 7425W        W 9575   6.190   0.713   4.664  0.0675 -0.2150 -0.1009
 7426W        W 9576   0.152   2.053  29.219  0.0474 -0.1836  0.1686
 7427W        W 9577  18.431   7.207   4.984  0.0457 -0.0878 -0.0037
 7428W        W 9578   8.755   5.157  24.510  0.1326  0.1353  0.1072
 7429W        W 9579  17.713   5.037  26.951  0.2728 -0.0264  0.2164
 7430W        W 9580  13.479   2.072  22.911  0.3826 -0.1597  0.0213
 7431W        W 9581  16.396   1.692  18.456  0.0877 -0.0876  0.0312
 7432W        W 9582  14.613   4.408  25.204  0.0308  0.0887  0.0068
 7433W        W 9583  21.450   3.370   8.620 -0.1043 -0.3013  0.2995
 7434W        W 9584   1.085   3.608   6.409  0.0527  0.2464  0.1268
 7435W        W 9585  10.882   7.596  11.492 -0.4539 -0.1277 -0.2769
 7436W        W 9586   4.184   4.329   9.587 -0.0962  0.2548  0.0102
 7437W        W 9587   9.113   4.146  32.512  0.2565 -0.1043 -0.0981
 7438W        W 9588  15.405   1.208  17.811  0.1897  0.0395 -0.0759
 7439W        W 9589  23.727   5.436  24.136  0.0213  0.0591  0.3037
 7440W        W 9590  21.003   3.553   8.653  0.0212  0.1058 -0.0419
 7441W        W 9591  24.544   2.325  25.542 -0.3482 -0.0268  0.1529
 7442W        W 9592   6.321   7.586  26.005  0.0607  0.0626 -0.0605
 7443W        W 9593  20.461   0.000  23.333 -0.1500 -0.2457  0.2598
 7444W        W 9594  14.655   6.591  22.506  0.0826  0.3221  0.1727
 7445W        W 9595  14.322   5.762  20.961 -0.2223  0.0747 -0.1873
 7446W        W 9596  13.039   6.199  25.872 -0.1192 -0.1791 -0.1825
 7447W        W 9597  20.201   5.335  31.052  0.0740  0.2260 -0.0697
 7448W        W 9598  13.232   7.109  29.253  0.4126  0.2633 -0.0370
 7449W        W 9599  22.788   7.259  24.841 -0.1913 -0.1115  0.1513
 7450W        W 9600  10.105   3.333  10.083 -0.0691  0.1076 -0.1351
 7451W        W 9601  23.497   0.599   9.990  0.1778 -0.2963 -0.0067
 7452W        W 9602  11.801   3.952  10.091 -0.1521  0.0765  0.1294
 7453W        W 9603  19.783   7.195   5.489  0.0502 -0.2039 -0.1058
 7454W        W 9604   2.128   7.067   4.682  0.0493  0.1619  0.0545
 7455W        W 9605   3.980   0.134  14.490 -0.3130  0.2155  0.0811
 7456W        W 9606   5.320   4.464  24.483  0.0354  0.2370 -0.0473
 7457W        W 9607   0.729   4.609  24.151  0.0248  0.0893  0.1222
 7458W        W 9608  12.475   4.427  24.701 -0.0476  0.0743  0.1629
 7459W        W 9609  17.478   7.033  27.914  0.1965 -0.1048 -0.3317
 7460W        W 9610   2.811   0.090   0.294  0.1066  0.1954 -0.0487
 7461W        W 9611   2.153   6.102  14.932 -0.0788  0.3438  0.0266
 7462W        W 9612   5.439   1.047  31.401 -0.3797  0.0982 -0.0859
 7463W        W 9613  15.754   6.643  32.259 -0.1594  0.0041 -0.2201
 7464W        W 9614   2.748   0.905   4.294 -0.1140 -0.0447 -0.0401
 7465W        W 9615   8.839   0.669  15.349 -0.2902 -0.0388 -0.0620
 7466W        W 9616  13.164   5.884  17.991  0.0350 -0.0956  0.3530
 7467W        W 9617  19.147   3.808   0.665 -0.1507 -0.1014 -0.2630
 7468W        W 9618  16.892   2.363  29.902  0.0697  0.1337  0.0958
 7469W        W 9619   8.403   1.850   6.119  0.1049 -0.0316 -0.0656
 7470W        W 9620  21.023   5.158   3.810 -0.0056 -0.2587 -0.2964
 7471W        W 9621  23.327   6.836  22.352 -0.1279  0.0533  0.0083
 7472W        W 9622   2.422   2.024  29.064 -0.0342  0.3188 -0.2178
 7473W        W 9623   3.704   6.192   4.856  0.1245  0.1294 -0.0626
 7474W        W 9624  17.410   6.048  16.004 -0.0957 -0.1482  0.0927
 7475W        W 9625   2.707   1.223   1.206 -0.3065  0.1147 -0.0062
 7476W        W 9626   1.737   6.746  32.551 -0.1419  0.0565 -0.0145
 7477W        W 9627   3.661   0.599  17.840 -0.0999 -0.2282  0.1774
 7478W        W 9628   8.739   0.884   1.821 -0.1649  0.0316 -0.0027
 7479W        W 9629  11.280   7.331  24.846 -0.0425 -0.1912 -0.2099
 7480W        W 9630  12.184   2.501  24.729 -0.1461  0.0113  0.1522
 7481W        W 9631  24.143   7.316   8.140  0.0421 -0.4959  0.2282
 7482W        W 9632  12.828   4.465  11.033 -0.0359  0.1204 -0.1041
 7483W        W 9633  24.130   7.400   5.470 -0.0474 -0.0392  0.1870
 7484W        W 9634   1.756   3.534  28.769  0.0954 -0.2335  0.1817
 7485W        W 9635  12.462   0.884   8.547  0.0070  0.0315  0.0944
 7486W        W 9636  22.619   7.556  30.886 -0.1374  0.1162  0.2140
 7487W        W 9637  23.056   2.645  30.784 -0.2408  0.3597 -0.0111
 7488W        W 9638   0.510   2.877  26.950  0.3191  0.1134  0.1632
 7489W        W 9639   7.247   0.892   2.183  0.0365  0.1871 -0.2460
 7490W        W 9640  17.271   4.005   2.195  0.0446  0.0191 -0.1828
 7491W        W 9641  10.216   4.228  10.200 -0.1537 -0.2201  0.0451
 7492W        W 9642   6.805   4.426   3.821 -0.1834 -0.1609 -0.1010
 7493W        W 9643  22.394   7.049  25.600  0.0504  0.1682 -0.1438
 7494W        W 9644  21.645   3.379  19.243  0.0588 -0.0745  0.1847
 7495W        W 9645   3.291   5.461   6.466  0.0414 -0.0904  0.0806
 7496W        W 9646  14.044   3.826   0.053 -0.2605  0.1684  0.4899
 7497W        W 9647  10.686   3.520  23.361 -0.2268 -0.0172 -0.0378
 7498W        W 9648  16.949   6.220  17.513 -0.0053 -0.0599  0.0412
 7499W        W 9649   8.287   1.848  29.771 -0.1143  0.2922  0.3349
 7500W        W 9650   2.663   1.142  10.961 -0.0555  0.4104 -0.0945
 7501W        W 9651  11.152   5.823  10.528  0.0381  0.0334  0.0208
 7502W        W 9652   8.476   0.404  30.696  0.0747  0.0167 -0.0612
 7503W        W 9653   6.502   2.786   3.308  0.1921  0.2078 -0.0553
 7504W        W 9654   9.645   0.062   5.457  0.1647 -0.0513  0.1811
 7505W        W 9655  11.020   3.388  11.571 -0.0996  0.0090 -0.2087
 7506W        W 9656   1.851   6.281   3.546  0.1592 -0.3408 -0.1857
 7507W        W 9657   2.291   7.171   9.633 -0.5653  0.1075  0.3198
 7508W        W 9658   5.040   2.898  24.002 -0.1756 -0.0459 -0.3628
 7509W        W 9659  11.023   3.669  20.785 -0.1447  0.1814 -0.1950
 7510W        W 9660  10.166   0.996  28.561 -0.0077  0.2138  0.2547
 7511W        W 9661  15.226   0.703  18.378 -0.0229  0.1349 -0.0931
 7512W        W 9662  24.058   6.570  13.267 -0.2067  0.3951  0.3273
 7513W        W 9663  15.149   0.996   4.480 -0.0309 -0.2580  0.1075
 7514W        W 9664  21.729   6.144  24.762 -0.2560  0.0216  0.1280
 7515W        W 9665   4.035   1.899   9.101 -0.1711  0.1146 -0.0842
 7516W        W 9666   2.087   7.440   4.322  0.0770  0.1725  0.0551
 7517W        W 9667   6.531   6.804  30.252 -0.2390 -0.0886 -0.0013
 7518W        W 9668  10.139   4.644  32.258  0.1995  0.2142 -0.0186
 7519W        W 9669   2.466   5.292  29.632  0.3691  0.2353  0.0328
 7520W        W 9670  13.086   5.466  31.336  0.0861  0.0750 -0.0516
 7521W        W 9671  11.881   1.943  19.885  0.0789 -0.0838 -0.0534
 7522W        W 9672   0.891   6.927   0.971 -0.1714  0.1283  0.0757
 7523W        W 9673   0.682   1.350  28.297 -0.5382 -0.1377  0.4345
 7524W        W 9674  12.422   6.344   7.722  0.0249  0.3026 -0.1541
 7525W        W 9675  20.630   5.578  20.409 -0.5462 -0.0220 -0.1248
 7526W        W 9676   6.684   1.650  17.114  0.0140  0.0854 -0.1972
 7527W        W 9677   1.226   0.617  27.573  0.2264 -0.2426  0.0479
 7528W        W 9678  23.984   1.279   8.284 -0.0598  0.0074 -0.0738
 7529W        W 9679  14.016   2.919  31.349  0.0816  0.0640  0.2666
 7530W        W 9680  20.355   6.036   8.167  0.2587 -0.4635 -0.0342
 7531W        W 9681  21.460   0.905  27.227 -0.4382 -0.4078 -0.1386
 7532W        W 9682  22.308   6.442   8.344 -0.0194 -0.2273  0.0883
 7533W        W 9683  22.861   2.743  21.166  0.1770 -0.2349  0.0169
 7534W        W 9684  19.793   2.663   4.964  0.1908  0.1070  0.1276
 7535W        W 9685   0.164   4.857  12.902 -0.2897  0.0290  0.1084
 7536W        W 9686  16.321   3.636  17.126  0.0609 -0.2557  0.0243
 7537W        W 9687  22.132   7.662   4.483 -0.1232  0.1052  0.4004
 7538W        W 9688  21.373   3.938  27.605 -0.1182 -0.0832  0.2027
 7539W        W 9689   7.162   2.785   5.799  0.0623 -0.1117  0.1099
 7540W        W 9690  13.110   6.827  17.682  0.1616  0.2603  0.2211
 7541W        W 9691   7.831   7.314  31.711  0.1856  0.1098 -0.1873
 7542W        W 9692  18.555   4.369  29.248 -0.1747 -0.0012 -0.2664
 7543W        W 9693   5.459   3.625   2.440 -0.0836 -0.4944  0.1623
 7544W        W 9694  19.469   4.908  18.215  0.0835 -0.0959  0.1473
 7545W        W 9695  10.502   0.175   7.631  0.1736  0.1169 -0.2647
 7546W        W 9696   8.737   3.498  24.334  0.1040 -0.0639 -0.1366
 7547W        W 9697   4.208   7.225  30.267  0.0168  0.2158  0.1728
 7548W        W 9698   0.627   1.713  23.382  0.0445  0.0265  0.3896
 7549W        W 9699   5.279   3.415   2.865  0.0060 -0.0237  0.1273
 7550W        W 9700   1.258   7.754   1.774 -0.2051  0.1796 -0.0627
 7551W        W 9701  22.867   3.935   0.372 -0.2599  0.0425 -0.0152
 7552W        W 9702  15.611   5.587  32.757 -0.0549  0.1472 -0.3588
 7553W        W 9703  18.364   0.160  27.697 -0.1884  0.1116 -0.1444
 7554W        W 9704  20.245   7.697  26.310  0.1021  0.0094  0.2289
 7555W        W 9705  23.277   6.453   9.336  0.0771 -0.0041 -0.3299
 7556W        W 9706   4.764   3.262  16.407 -0.0856  0.2409 -0.1691
 7557W        W 9707   2.337   3.760  24.531  0.0535 -0.2729 -0.0325
 7558W        W 9708  21.209   7.341  21.700  0.2652 -0.2400 -0.0993
 7559W        W 9709  20.428   7.723  21.853  0.1293  0.1332 -0.0057
 7560W        W 9710   1.541   1.073  17.035 -0.0582 -0.3405 -0.0326
 7561W        W 9711  11.161   5.576  20.488 -0.0642  0.2401 -0.0989
 7562W        W 9712   2.900   0.816  31.058 -0.1696 -0.1807 -0.1955
 7563W        W 9713  23.873   2.167   2.586  0.1090 -0.0766 -0.0459
 7564W        W 9714  24.092   2.032   7.072 -0.1263  0.0528  0.1831
 7565W        W 9715   3.162   6.153  28.105 -0.1407  0.1701  0.1146
 7566W        W 9716   8.977   1.094   5.474  0.2888  0.0238 -0.2726
 7567W        W 9717  12.983   0.238  22.204  0.0106 -0.0155  0.2298
 7568W        W 9718  16.636   7.483  17.934  0.0504 -0.1439  0.1019
 7569W        W 9719   2.406   2.116  16.860  0.2364  0.0503 -0.4068
 7570W        W 9720  21.536   7.289  29.597  0.1928  0.1112 -0.1581
 7571W        W 9721   5.490   2.081  32.419  0.3293  0.1646  0.1688
 7572W        W 9722   6.812   4.672  28.696  0.1375  0.1919  0.3068
 7573W        W 9723   2.934   0.965   4.731 -0.2177 -0.1191 -0.0856
 7574W        W 9724  22.389   3.138  32.539 -0.0884  0.2012 -0.1904
 7575W        W 9725  23.232   2.361  27.768 -0.1073  0.1090 -0.1036
 7576W        W 9726   6.008   7.323  11.714 -0.0786 -0.1150 -0.1038
 7577W        W 9727   7.907   2.555   0.689 -0.3102 -0.1720  0.4114
 7578W        W 9728  11.105   3.022  27.167 -0.0064 -0.1580 -0.1309
 7579W        W 9729  12.227   5.710  10.982 -0.2273 -0.0458  0.2212
 7580W        W 9730  14.093   5.637   6.063 -0.3799 -0.1842 -0.1628
 7581W        W 9731   3.363   6.945  24.832  0.1132  0.0781  0.0608
 7582W        W 9732  23.510   1.899  24.030 -0.1522 -0.1270  0.0309
 7583W        W 9733   6.863   1.613  12.024 -0.0130 -0.0009  0.2649
 7584W        W 9734  24.060   3.923  22.530  0.1846  0.0815 -0.0812
 7585W        W 9735  21.991   2.925  29.240  0.2684  0.0953 -0.0321
 7586W        W 9736  24.858   2.125  12.343 -0.0227 -0.2586 -0.4887
 7587W        W 9737   5.526   3.701  28.697  0.0234  0.2073  0.0888
 7588W        W 9738  15.220   4.008   2.956 -0.0079  0.0322  0.0280
 7589W        W 9739  10.017   0.162  27.948  0.0112 -0.1748 -0.3676
 7590W        W 9740  24.652   5.855  22.403  0.1909 -0.0862  0.2367
 7591W        W 9741  23.956   1.161   5.132 -0.2384 -0.2618  0.1377
 7592W        W 9742  23.502   2.014  21.677 -0.5669  0.0978 -0.1177
 7593W        W 9743   1.898   1.275  27.340  0.0535 -0.0668 -0.3496
 7594W        W 9744   1.368   7.172  22.873 -0.1535 -0.1094 -0.0469
 7595W        W 9745  13.154   6.470  21.551  0.0151 -0.0094  0.1882
 7596W        W 9746  14.020   5.530   8.159  0.0451  0.1735 -0.0215
 7597W        W 9747  21.251   5.127  26.152 -0.0912  0.1093 -0.1646
 7598W        W 9748   6.894   6.908   8.740 -0.1098  0.1056  0.0609
 7599W        W 9749   9.517   7.631  21.122  0.0031  0.0641 -0.0430
 7600W        W 9750   4.641   2.250   4.670 -0.5468  0.0662  0.1411
 7601W        W 9751  11.646   7.680   3.287 -0.1231  0.0274  0.0074
 7602W        W 9752   4.978   7.576  27.156 -0.2519  0.0897  0.1093
 7603W        W 9753  19.467   3.864  25.530 -0.1062 -0.1829  0.1484
 7604W        W 9754  22.332   4.446  22.676  0.0704  0.0460 -0.0436
 7605W        W 9755  18.784   4.222   0.941  0.1161 -0.0788  0.2629
 7606W        W 9756   2.059   7.575   1.318  0.0352 -0.1677 -0.1001
 7607W        W 9757  12.865   2.484  32.083 -0.2092  0.1274  0.3393
 7608W        W 9758  14.229   1.249  10.560 -0.3211 -0.2924  0.2139
 7609W        W 9759  12.422   5.865  32.638 -0.3309  0.1690  0.1305
 7610W        W 9760  21.043   3.417   4.027  0.1227 -0.0214  0.0971
 7611W        W 9761  19.189   4.740   7.762 -0.0265 -0.2316 -0.0102
 7612W        W 9762  23.982   2.040   5.664 -0.3293 -0.0002  0.1144
 7613W        W 9763  10.659   5.094  24.015 -0.0355 -0.2129  0.2175
 7614W        W 9764  18.731   3.347  28.189  0.0223 -0.3122  0.2396
 7615W        W 9765  15.409   0.156  23.946 -0.1076  0.1439  0.4750
 7616W        W 9766  21.564   5.059   3.055 -0.2005  0.0098 -0.3460
 7617W        W 9767   5.519   0.650  14.118 -0.0926 -0.0129 -0.0787
 7618W        W 9768  11.440   2.875  27.487  0.1717 -0.0973 -0.0616
 7619W        W 9769  14.416   4.689  30.524  0.1235 -0.3665 -0.0260
 7620W        W 9770  12.476   1.611  24.567 -0.3357 -0.1690 -0.1212
 7621W        W 9771   1.821   2.370  22.459  0.1912 -0.0476 -0.2893
 7622W        W 9772  17.510   6.260  11.008  0.0202  0.3102 -0.2144
 7623W        W 9773  21.722   1.076  20.569  0.5631  0.0852  0.0526
 7624W        W 9774  19.067   5.874   5.697  0.0037  0.1601  0.1249
 7625W        W 9775   4.020   7.234  12.574  0.0108  0.0808 -0.2705
 7626W        W 9776  24.817   2.338   4.429 -0.0301  0.3090 -0.0467
 7627W        W 9777   4.608   7.730   9.843  0.0740 -0.0755  0.3038
 7628W        W 9778   3.353   6.974  32.595 -0.1434  0.1346 -0.1752
 7629W        W 9779   5.996   7.739  27.597 -0.1164  0.3629  0.0141
 7630W        W 9780  23.630   4.138  10.043  0.3047  0.0915  0.1316
 7631W        W 9781  19.931   5.555  26.437  0.2353 -0.1993  0.0060
 7632W        W 9782  15.254   6.984   1.522  0.1733  0.0067 -0.1328
 7633W        W 9783   8.617   5.285   4.116  0.2302 -0.0411 -0.1908
 7634W        W 9784  20.732   7.015  11.686  0.2831  0.1304 -0.1650
 7635W        W 9785  19.109   1.408  22.912  0.2836  0.0321 -0.2035
 7636W        W 9786  22.882   5.277  24.562 -0.1753  0.2357  0.2671
 7637W        W 9787  19.530   5.606   2.872  0.0432  0.0597  0.1413
 7638W        W 9788  24.001   5.877  27.363 -0.2412 -0.0959  0.4757
 7639W        W 9789   2.969   4.016  14.710 -0.0510 -0.1357 -0.1850
 7640W        W 9790  17.253   0.611   4.363  0.0698 -0.0637 -0.0608
 7641W        W 9791   5.810   5.952  27.302 -0.0690 -0.1477  0.2616
 7642W        W 9792  13.075   5.017   8.858  0.1539 -0.0355 -0.1532
 7643W        W 9793  15.194   3.153  15.229 -0.2269 -0.0955  0.1555
 7644W        W 9794  15.233   7.433  25.022 -0.2778 -0.0230  0.3468
 7645W        W 9795  23.595   4.834  12.661  0.0808  0.0138  0.0605
 7646W        W 9796  17.245   0.591  22.218 -0.0109 -0.0094  0.0525
 7647W        W 9797  24.039   0.450   3.879 -0.0316  0.2099  0.0821
 7648W        W 9798  21.432   6.850  20.162 -0.0967 -0.2225 -0.2051
 7649W        W 9799  13.998   6.534   3.829  0.0441  0.0186 -0.1516
 7650W        W 9800  20.081   2.313  10.960  0.0008  0.0909  0.2563
 7651W        W 9801   5.927   2.907   5.737 -0.2326 -0.2827  0.1748
 7652W        W 9802  19.998   0.228   7.013 -0.2367 -0.0763  0.0841
 7653W        W 9803  11.113   2.529  28.159 -0.2078 -0.1407  0.1980
 7654W        W 9804  21.351   1.785   3.374 -0.0555  0.1749  0.2240
 7655W        W 9805  20.988   2.423   8.874  0.0907 -0.0644 -0.1113
 7656W        W 9806  11.239   3.543  25.169  0.2484  0.1793 -0.0313
 7657W        W 9807  24.167   7.375  19.954  0.0389 -0.2528 -0.3603
 7658W        W 9808  21.107   3.798   2.360 -0.1862 -0.1005 -0.0792
 7659W        W 9809   7.181   1.751  26.647 -0.2010  0.4229 -0.1046
 7660W        W 9810  17.255   7.363  22.724 -0.2287  0.1380 -0.1371
 7661W        W 9811  13.088   2.594   7.691 -0.4209 -0.1513  0.2507
 7662W        W 9812  22.442   2.902   6.356  0.2299  0.1307 -0.0188
 7663W        W 9813  12.703   1.711  31.480 -0.0343  0.0799 -0.1769
 7664W        W 9814   7.382   7.067   9.103  0.0947 -0.2671  0.2921
 7665W        W 9815  16.261   0.475  22.136 -0.0460 -0.0954 -0.0030
 7666W        W 9816   3.838   5.178  23.228  0.1564  0.0393 -0.2649
 7667W        W 9817  16.179   7.680   2.143  0.2855 -0.1009 -0.1319
 7668W        W 9818   1.515   6.221  31.247 -0.1217  0.1652 -0.0580
 7669W        W 9819  15.513   4.111  16.232  0.3007  0.2686  0.1923
 7670W        W 9820  16.258   4.057  24.660  0.1414  0.3243  0.1768
 7671W        W 9821  16.129   4.113  28.313  0.0150 -0.1352 -0.0296
 7672W        W 9822  22.801   5.606  19.939 -0.0018 -0.0960 -0.1269
 7673W        W 9823   4.317   6.317  31.818 -0.4044 -0.0202  0.0689
 7674W        W 9824   5.642   3.211   8.341  0.1526  0.0039  0.1101
 7675W        W 9825   2.860   4.921  17.750  0.3903 -0.2391  0.0632
 7676W        W 9826  15.130   3.190  14.709 -0.0431 -0.1454  0.2281
 7677W        W 9827   4.216   1.411  32.688  0.0672  0.1999 -0.0545
 7678W        W 9828   8.149   0.180  21.943  0.0370  0.0744  0.1161
 7679W        W 9829   2.329   3.984  11.719  0.0770 -0.0728 -0.0059
 7680W        W 9830   1.355   6.150  21.673 -0.2958 -0.0303  0.0443
 7681W        W 9831   9.616   2.522   6.915  0.2820 -0.1268 -0.1224
 7682W        W 9832   5.207   2.139   6.321 -0.2466 -0.0553 -0.1516
 7683W        W 9833  20.087   2.000  30.466 -0.0466 -0.1913  0.0100
 7684W        W 9834   7.980   3.560  14.273  0.3125  0.0956  0.0493
 7685W        W 9835  20.079   0.970   5.133 -0.0666 -0.0888  0.2148
 7686W        W 9836  23.008   0.750   9.807  0.2596  0.0404  0.2367
 7687W        W 9837  21.060   0.067   7.489 -0.0396 -0.1825 -0.1428
 7688W        W 9838  22.173   6.479  32.055  0.0742 -0.4255  0.0902
 7689W        W 9839  13.406   2.822  17.526 -0.0559  0.1582  0.0478
 7690W        W 9840  15.674   2.633  30.661 -0.0501 -0.1213  0.1697
 7691W        W 9841  22.378   1.465   7.216 -0.0336  0.0480 -0.1820
 7692W        W 9842  18.305   1.794   9.702 -0.2734 -0.1277  0.2078
 7693W        W 9843   4.926   7.034   2.120  0.2336 -0.1416 -0.1679
 7694W        W 9844   3.972   3.409  27.290  0.0792  0.2821  0.1572
 7695W        W 9845  16.438   0.638   9.962  0.0674  0.0648 -0.0180
 7696W        W 9846  22.971   0.924   5.900  0.2687  0.1229 -0.0659
 7697W        W 9847   1.345   0.091  27.446  0.1638  0.0543 -0.0675
 7698W        W 9848   8.366   6.602  22.980 -0.0397 -0.0251  0.1196
 7699W        W 9849  18.848   4.094  10.331  0.1443 -0.0252 -0.3991
 7700W        W 9850  16.465   6.997   0.593  0.3524 -0.1151 -0.0128
 7701W        W 9851  12.892   3.138  21.023  0.1245 -0.0385 -0.0567
 7702W        W 9852   7.611   3.412   6.164 -0.4611  0.1042  0.0661
 7703W        W 9853  23.540   3.289  26.737  0.1682 -0.0230 -0.0003
 7704W        W 9854  15.051   6.025  27.832 -0.1253  0.0369  0.4219
 7705W        W 9855  19.421   6.738   1.257 -0.1797  0.1703 -0.2627
 7706W        W 9856  19.375   2.103  23.292 -0.1633  0.0617  0.4643
 7707W        W 9857  15.916   4.851  28.749  0.0003  0.1613 -0.2371
 7708W        W 9858  11.325   4.098  32.318 -0.0623  0.0730  0.0302
 7709W        W 9859   2.519   1.109  31.038 -0.2300 -0.2875  0.0325
 7710W        W 9860   6.699   7.479   4.032 -0.0954 -0.2098  0.0700
 7711W        W 9861  12.097   3.581  17.295  0.2876 -0.0487 -0.4020
 7712W        W 9862   4.721   5.747   3.464 -0.0474  0.1703 -0.1381
 7713W        W 9863   5.518   0.757  15.927 -0.0621  0.0738 -0.0026
 7714W        W 9864  13.141   2.443  24.545  0.3620 -0.2455 -0.2659
 7715W        W 9865   7.056   0.585   2.529 -0.0063  0.2160 -0.0159
 7716W        W 9866   6.577   6.070  26.333  0.2566 -0.4180  0.2320
 7717W        W 9867   7.548   7.332  24.995 -0.0338 -0.0736 -0.2307
 7718W        W 9868  14.886   1.649  19.401  0.1485  0.3414 -0.2081
 7719W        W 9869  19.034   2.487  10.903 -0.4628 -0.1113  0.1638
 7720W        W 9870   3.062   4.258  33.002 -0.0477 -0.0346 -0.0852
 7721W        W 9871   4.802   7.485  26.309 -0.0083 -0.2060  0.1932
 7722W        W 9872   5.478   3.077  28.558  0.2019  0.1221  0.1759
 7723W        W 9873  24.106   5.450   2.117  0.1099 -0.0309  0.0582
 7724W        W 9874   9.611   4.759  28.674 -0.3466 -0.0906 -0.0776
 7725W        W 9875   7.961   5.031  10.078  0.0282 -0.0575 -0.0055
 7726W        W 9876  21.092   3.942   4.505  0.0754 -0.2716  0.1246
 7727W        W 9877  17.041   4.881  30.797 -0.1129  0.0030 -0.1595
 7728W        W 9878   5.925   3.158   3.964  0.1001  0.0785  0.1494
 7729W        W 9879   6.784   0.180  32.176 -0.1875 -0.0895  0.0432
 7730W        W 9880   9.584   5.618  31.637  0.2889 -0.1949  0.3065
 7731W        W 9881  21.049   5.680   5.526 -0.0270 -0.1269  0.3241
 7732W        W 9882  12.325   1.426  21.021  0.0663 -0.0118  0.0122
 7733W        W 9883   6.728   2.866  27.076  0.0082 -0.0599 -0.0473
 7734W        W 9884  13.111   4.639   1.270 -0.1118  0.0410 -0.0691
 7735W        W 9885  16.833   1.254  25.326 -0.0590  0.3164 -0.0758
 7736W        W 9886  13.773   3.777   4.174 -0.0232  0.1239  0.1731
 7737W        W 9887   7.097   4.558  11.527  0.3285 -0.1964  0.0917
 7738W        W 9888  14.316   6.092  22.367 -0.1622 -0.2491 -0.0120
 7739W        W 9889  24.874   7.567  23.506  0.0738  0.0862  0.0745
 7740W        W 9890  15.069   3.185  18.569  0.4256  0.0684  0.0670
 7741W        W 9891   8.227   5.725   5.921  0.1147 -0.0702 -0.0805
 7742W        W 9892  20.093   1.419  10.085 -0.1290 -0.1239 -0.1469
 7743W        W 9893  13.464   2.384   2.804 -0.0854 -0.1257 -0.1950
 7744W        W 9894   2.820   7.420  30.454  0.0027  0.1343 -0.1105
 7745W        W 9895  11.586   7.319  22.700  0.0554 -0.1172  0.1134
 7746W        W 9896  22.344   6.750  12.522 -0.1089 -0.2270 -0.1071
 7747W        W 9897  15.982   1.185  30.202 -0.0790 -0.0036  0.3111
 7748W        W 9898  15.206   4.500  14.491 -0.0880 -0.0729  0.1535
 7749W        W 9899  13.303   5.247  28.519  0.0989 -0.3313 -0.1879
 7750W        W 9900  16.015   0.088   3.677  0.1747  0.4062  0.0291
 7751W        W 9901   8.230   5.808  14.801  0.2321 -0.0222  0.0885
 7752W        W 9902   4.904   2.711  23.528  0.0330  0.0471 -0.0910
 7753W        W 9903   4.484   7.576  15.691  0.1016  0.0843  0.0856
 7754W        W 9904   0.413   5.489  14.864 -0.0063  0.0290 -0.2265
 7755W        W 9905  12.122   1.863  10.016 -0.0042 -0.1297  0.2805
 7756W        W 9906   8.867   2.200   9.933  0.0650  0.1366 -0.1378
 7757W        W 9907  20.865   2.535  32.473  0.1388 -0.2680  0.1902
 7758W        W 9908  22.063   1.445  11.561  0.0969  0.1047 -0.1405
 7759W        W 9909  13.102   5.174  30.060  0.0464 -0.3276  0.2428
 7760W        W 9910   2.595   7.288  16.935 -0.1362 -0.1092  0.1080
 7761W        W 9911  19.181   1.980  26.624  0.1815  0.0004 -0.1254
 7762W        W 9912   7.285   6.217   6.863  0.2106 -0.0609  0.0745
 7763W        W 9913   7.038   6.825   3.455 -0.0565 -0.2363  0.0611
 7764W        W 9914   2.699   2.438   4.272 -0.1986 -0.0327  0.1582
 7765W        W 9915  11.553   4.389  20.428 -0.0954  0.3089 -0.3685
 7766W        W 9916   3.195   0.818   6.169 -0.0534 -0.1626  0.3057
 7767W        W 9917   4.661   2.731  25.497  0.1119 -0.0088 -0.1847
 7768W        W 9918  10.165   4.095  21.125 -0.2792  0.0483 -0.0714
 7769W        W 9919  13.394   4.762  31.417  0.2067 -0.0998 -0.1683
 7770W        W 9920   2.627   6.503   8.171 -0.0086 -0.0988 -0.0571
 7771W        W 9921  20.294   6.198  26.856 -0.1594 -0.2843  0.0496
 7772W        W 9922   5.523   4.545   4.480 -0.3678  0.3653  0.0803
 7773W        W 9923   0.316   6.504  22.330 -0.0878  0.1464  0.0419
 7774W        W 9924  18.121   0.722  30.497 -0.2297  0.1171 -0.1693
 7775W        W 9925  22.322   6.966  21.221  0.0972 -0.0730 -0.0668
 7776W        W 9926   2.629   5.125  11.553 -0.0672 -0.0829 -0.1456
 7777W        W 9927  24.568   3.158   4.419  0.1552  0.1150 -0.2099
 7778W        W 9928   9.837   3.881  24.847  0.3880  0.2031  0.0966
 7779W        W 9929   6.835   2.060  30.065 -0.2392  0.0619  0.1732
 7780W        W 9930   5.793   0.080  32.951  0.0494 -0.5163 -0.1842
 7781W        W 9931   6.055   7.113  31.023  0.3530 -0.0818 -0.0295
 7782W        W 9932  16.625   2.014  23.710  0.0537  0.3579  0.3010
 7783W        W 9933  24.526   0.764  12.248  0.3828 -0.0614  0.0616
 7784W        W 9934  24.377   1.248  29.823 -0.0969  0.1310  0.0221
 7785W        W 9935   6.102   2.577  29.720  0.0709  0.1906 -0.3063
 7786W        W 9936  21.098   3.971   6.912  0.0233  0.0714  0.0308
 7787W        W 9937  12.913   1.459   5.474  0.1233 -0.1762  0.2846
 7788W        W 9938  21.990   6.419  31.538 -0.1140 -0.2122  0.0553
 7789W        W 9939  22.500   1.044  28.066  0.2141  0.1658 -0.0702
 7790W        W 9940  22.044   0.782  31.929 -0.0480 -0.1338 -0.0800
 7791W        W 9941  14.867   5.673  22.259  0.0327  0.3086 -0.2012
 7792W        W 9942  16.639   7.645  17.042  0.2844 -0.0633  0.2951
 7793W        W 9943   2.130   6.074  11.302  0.0708 -0.0182 -0.1246
 7794W        W 9944  20.772   3.894  18.934  0.0974  0.3032 -0.1895
 7795W        W 9945  16.370   1.324  28.339  0.2372  0.5843  0.0325
 7796W        W 9946  23.752   6.566  21.652 -0.0318  0.0374 -0.0685
 7797W        W 9947   6.126   6.813  24.557 -0.0354 -0.1162  0.1050
 7798W        W 9948   3.615   2.497  31.514  0.2280 -0.0169  0.1047
 7799W        W 9949   1.904   2.966  10.099  0.0327 -0.1199 -0.1230
 7800W        W 9950   2.260   2.718  13.123  0.3126 -0.2030 -0.1441
 7801W        W 9951  13.126   6.021  30.397 -0.3200  0.0095 -0.0374
 7802W        W 9952  24.616   6.353  22.127  0.0437 -0.0545  0.1610
 7803W        W 9953  10.732   1.608   1.237 -0.2602  0.0460 -0.0972
 7804W        W 9954   4.438   6.635  25.006 -0.0039  0.0792 -0.2003
 7805W        W 9955  19.941   4.198   0.834 -0.0597 -0.1096 -0.4363
 7806W        W 9956   2.610   1.642  10.565  0.0322  0.0433  0.1026
 7807W        W 9957  21.839   4.996  26.841 -0.2460 -0.0995 -0.0520
 7808W        W 9958   2.855   5.989   9.263 -0.0906  0.1119 -0.0397
 7809W        W 9959  24.558   7.083  25.877  0.0026  0.1588 -0.1778
 7810W        W 9960   0.492   4.265  14.021  0.1220 -0.1600  0.0659
 7811W        W 9961   8.700   4.934  13.273  0.0794 -0.2173  0.3734
 7812W        W 9962  21.740   6.457   8.461  0.1624 -0.2106 -0.0912
 7813W        W 9963  23.139   4.548  27.218 -0.2097  0.1205 -0.6417
 7814W        W 9964  24.049   7.361  25.915  0.2366  0.1543 -0.0901
 7815W        W 9965  10.942   6.291   2.742 -0.0090 -0.3778  0.3377
 7816W        W 9966  16.881   3.197   8.891 -0.0750  0.0713 -0.3906
 7817W        W 9967   0.174   3.618  22.448  0.0473 -0.0700  0.0419
 7818W        W 9968   0.827   6.861  25.935  0.0718 -0.2137  0.1879
 7819W        W 9969   3.738   1.889  26.074 -0.0778 -0.1705  0.1206
 7820W        W 9970   2.201   7.378   2.202  0.1347 -0.2872  0.0689
 7821W        W 9971   1.412   4.127  27.278  0.0923  0.3356 -0.1327
 7822W        W 9972  24.690   2.792  21.604 -0.1485  0.1399 -0.4423
 7823W        W 9973   3.772   4.803  27.787  0.1229  0.2629 -0.0829
 7824W        W 9974   3.285   3.297  10.431 -0.0004 -0.0610 -0.1241
 7825W        W 9975   9.892   2.332   5.919 -0.0332  0.0157 -0.3648
 7826W        W 9976  15.980   3.249   5.404 -0.0051 -0.2554 -0.0603
 7827W        W 9977  24.251   1.598  30.700  0.0657  0.0205 -0.0282
 7828W        W 9978  10.544   6.316  11.364  0.0496  0.1863  0.1192
 7829W        W 9979   1.520   7.168  28.130  0.0455  0.0941  0.1719
 7830W        W 9980  13.801   2.457   5.742  0.1730  0.2366 -0.1358
 7831W        W 9981  24.368   0.485  31.632 -0.1363 -0.1640  0.0220
 7832W        W 9982  23.325   3.981   2.937 -0.1346 -0.0577 -0.0408
 7833W        W 9983  15.775   2.405   7.401  0.0984 -0.0416  0.1510
 7834W        W 9984   6.925   7.023  10.849  0.0903  0.2054 -0.1258
 7835W        W 9985  20.331   6.751  10.546  0.1920 -0.2183 -0.0504
 7836W        W 9986   6.109   3.316  23.635 -0.3015  0.1617  0.0740
 7837W        W 9987  20.257   2.577  20.136 -0.1894 -0.0655 -0.1692
 7838W        W 9988  18.039   6.287  27.443 -0.2506  0.0927 -0.1145
 7839W        W 9989  14.324   2.266   4.360  0.0822  0.2046  0.1450
 7840W        W 9990  10.256   7.447   9.464 -0.3042  0.1898 -0.2671
 7841W        W 9991  24.145   1.688   0.385 -0.1685  0.2120  0.0754
 7842W        W 9992  16.400   5.696  14.179  0.0110 -0.1813 -0.2257
 7843W        W 9993  22.767   6.810   2.059  0.2089 -0.0586  0.0645
 7844W        W 9994  15.246   1.075  18.720 -0.0856  0.0548 -0.1007
 7845W        W 9995  12.916   5.788  21.320  0.1934 -0.2471 -0.4494
 7846W        W 9996   9.553   1.853  30.387  0.0917  0.3095  0.1236
 7847W        W 9997   1.899   5.026  22.906 -0.0122  0.4509  0.4830
 7848W        W 9998  17.847   2.943   2.098 -0.0103 -0.0606 -0.1529
 7849W        W 9999   7.045   1.035   0.831  0.2386  0.4138 -0.1758
 7850W        W10000   0.285   7.043  30.201 -0.1077  0.0881  0.0500
 7851W        W10001  15.946   2.870  22.557  0.0264  0.0068  0.2403
 7852W        W10002  11.260   0.541  23.775 -0.1342  0.0167 -0.3267
 7853W        W10003   9.844   3.133  25.188 -0.0008 -0.0651  0.0940
 7854W        W10004  24.790   6.386   5.687  0.0908  0.0133 -0.3022
 7855W        W10005   4.845   5.813   5.898 -0.0041  0.0939 -0.0322
 7856W        W10006   6.079   5.449  30.044 -0.2467  0.1015  0.1859
 7857W        W10007  22.185   2.531  30.477  0.0059  0.1015 -0.2919
 7858W        W10008  20.428   3.649  29.525  0.1338 -0.1725 -0.0825
 7859W        W10009  23.521   0.309  27.764  0.3949 -0.1264 -0.1162
 7860W        W10010  13.182   5.481   0.956  0.0693 -0.3445 -0.0139
 7861W        W10011   5.262   4.736  15.921 -0.1993 -0.1180  0.2367
 7862W        W10012  24.702   6.286   8.778  0.0282  0.0396 -0.2243
 7863W        W10013  16.639   6.618  26.054  0.0523 -0.1322 -0.2592
 7864W        W10014  17.358   6.526  23.474  0.1901 -0.0999  0.1833
 7865W        W10015  22.194   6.464   7.085  0.0437  0.0817 -0.3049
 7866W        W10016   5.475   3.932   5.336  0.1527 -0.4598 -0.0820
 7867W        W10017  18.303   4.403   1.181  0.1753  0.0146 -0.0599
 7868W        W10018   6.235   3.246  16.350  0.0493 -0.0000  0.4073
 7869W        W10019   0.758   0.816  27.501 -0.1263 -0.1476 -0.2813
 7870W        W10020   4.268   4.678   7.792  0.2122  0.1176 -0.1940
 7871W        W10021  21.765   1.138   0.409 -0.0247  0.0397 -0.1270
 7872W        W10022  18.850   6.018  31.670  0.1821 -0.3531 -0.2296
 7873W        W10023   2.649   4.138  17.972  0.1577 -0.4284  0.0661
 7874W        W10024  21.404   6.118  21.264 -0.0612 -0.0213 -0.3335
 7875W        W10025  20.793   0.184   5.249  0.0211  0.2916 -0.0057
 7876W        W10026   4.258   4.343  18.093 -0.1580  0.1227  0.0856
 7877W        W10027  23.886   2.156  26.010 -0.0260  0.1763  0.1758
 7878W        W10028  15.715   3.357  17.059 -0.0920 -0.1295 -0.0970
 7879W        W10029   1.808   7.335  12.370  0.3221  0.2190 -0.3700
 7880W        W10030   1.805   3.457  13.776  0.0476  0.1880  0.2443
 7881W        W10031  16.430   3.751   4.935  0.2864 -0.0736  0.1725
 7882W        W10032   7.194   3.115  21.985 -0.3042 -0.2299  0.1298
 7883W        W10033  21.784   0.483   2.055 -0.3009  0.2328 -0.1156
 7884W        W10034  22.560   7.448   7.019  0.0013 -0.1642 -0.0707
 7885W        W10035  20.068   1.440   0.115  0.1002  0.0679  0.0563
 7886W        W10036  18.662   3.612   8.763  0.0500  0.3191  0.0809
 7887W        W10037  20.425   4.216  19.415  0.0617 -0.0598 -0.0191
 7888W        W10038   9.959   5.743  13.212 -0.0530 -0.0222  0.0808
 7889W        W10039  21.049   6.509   1.269 -0.0676 -0.0632 -0.0385
 7890W        W10040  16.157   4.827  20.870 -0.1493  0.0346 -0.1893
 7891W        W10041  13.799   7.042   6.039 -0.2235 -0.0496  0.3411
 7892W        W10042  23.376   0.075  25.168 -0.0570 -0.0996 -0.0495
 7893W        W10043  17.197   2.853   9.337  0.0913  0.1753 -0.1931
 7894W        W10044  13.502   5.710  30.345 -0.2260 -0.1502  0.0582
 7895W        W10045   5.779   3.012  12.276 -0.1380  0.1544  0.0380
 7896W        W10046   1.887   2.595  30.416  0.0855  0.2323  0.1178
 7897W        W10047  10.885   7.171   0.250 -0.0348 -0.2004  0.1689
 7898W        W10048  23.942   2.361  30.651 -0.2259 -0.3221  0.1506
 7899W        W10049  22.140   2.574  25.795 -0.1612 -0.1249 -0.1142
 7900W        W10050  10.786   4.037  27.379  0.2237 -0.0112 -0.0713
 7901W        W10051   2.839   1.124  31.513 -0.2132 -0.0763  0.0393
 7902W        W10052   8.895   1.597  13.230 -0.0688  0.1125 -0.0315
 7903W        W10053   6.060   3.035  25.434 -0.1771 -0.0446 -0.1905
 7904W        W10054   8.239   7.326   4.806  0.0642  0.1545  0.1692
 7905W        W10055  21.834   6.846   1.541  0.0584  0.1720  0.1233
 7906W        W10056   9.617   1.006  27.667  0.2232  0.2207 -0.0848
 7907W        W10057  13.044   5.557  24.119 -0.0991 -0.3922 -0.0464
 7908W        W10058   2.583   7.041   0.861 -0.2589  0.0306  0.0083
 7909W        W10059  10.052   7.287   5.237 -0.0599 -0.1318 -0.1531
 7910W        W10060  24.947   4.657   7.125  0.1648 -0.2382 -0.1781
 7911W        W10061  22.842   5.861   4.181  0.0233 -0.0661 -0.1604
 7912W        W10062   2.493   0.747   6.119  0.0228 -0.0070 -0.3572
 7913W        W10063  15.586   3.956  22.237  0.1911 -0.1565  0.1349
 7914W        W10064   3.623   5.673  13.076  0.2170  0.0254  0.0972
 7915W        W10065   2.586   0.477   7.022 -0.1746 -0.1289 -0.1363
 7916W        W10066  19.015   0.149  16.835 -0.0649 -0.0546  0.2294
 7917W        W10067   8.969   7.784  11.230  0.1033  0.0022  0.0045
 7918W        W10068  10.810   1.274  31.476 -0.1688 -0.0976  0.0544
 7919W        W10069   6.070   6.619  11.734 -0.1870  0.0306 -0.0544
 7920W        W10070  22.315   1.255  24.506  0.1751  0.2402  0.0292
 7921W        W10071   7.988   7.150   0.149  0.0384 -0.1164 -0.1355
 7922W        W10072   2.244   4.718  32.483  0.0543  0.1845 -0.1892
 7923W        W10073  11.354   2.188  23.072  0.1286 -0.0870  0.0850
 7924W        W10074  14.894   6.091   5.397 -0.2547  0.0075  0.1810
 7925W        W10075  10.252   7.783  30.178 -0.0160 -0.2183  0.1734
 7926W        W10076  24.542   2.669  28.472 -0.4504  0.0579 -0.0098
 7927W        W10077  13.139   5.607   3.399  0.4186 -0.1567  0.0357
 7928W        W10078   7.036   3.064  27.925  0.2781 -0.0243  0.0407
 7929W        W10079  22.178   7.629   0.508 -0.1824 -0.2518 -0.2413
 7930W        W10080   4.055   5.340  14.914 -0.0675  0.1034  0.0484
 7931W        W10081   7.969   6.612  26.025 -0.4616  0.2629 -0.2970
 7932W        W10082   2.990   4.285  17.153  0.1535  0.2098 -0.0944
 7933W        W10083  14.387   2.776  20.809 -0.1704  0.1138 -0.0604
 7934W        W10084   0.714   0.178  26.217 -0.0778  0.0921 -0.0176
 7935W        W10085   6.205   4.531  31.394  0.1713 -0.1699  0.1661
 7936W        W10086   9.783   5.032  32.394 -0.1107 -0.0148  0.0965
 7937W        W10087   3.313   4.733   8.150 -0.1885  0.0223  0.0404
 7938W        W10088  21.758   4.174  10.248  0.0132  0.3895  0.2089
 7939W        W10089  17.758   4.785  25.345  0.2669  0.0743  0.1133
 7940W        W10090  13.724   5.811  26.972  0.3238 -0.0598  0.0424
 7941W        W10091  13.336   5.819   7.134 -0.0821  0.2805  0.0681
 7942W        W10092   8.766   5.982  26.093  0.2542 -0.1233 -0.1006
 7943W        W10093  12.415   3.089   1.974  0.1147  0.0112 -0.3139
 7944W        W10094  22.075   7.387   9.316 -0.1580  0.0512 -0.1521
 7945W        W10095  15.623   2.605   4.237  0.2216 -0.2022 -0.0832
 7946W        W10096   5.543   6.968   0.165 -0.0031  0.0721 -0.2943
 7947W        W10097  14.986   4.910  26.075 -0.4387 -0.0268  0.4339
 7948W        W10098  13.771   6.211  28.422 -0.0381  0.4351  0.0064
 7949W        W10099  15.486   5.339  31.892 -0.0437 -0.0474 -0.3666
 7950W        W10100  17.702   4.397   4.477 -0.0406  0.1143  0.1136
 7951W        W10101  15.680   0.839   4.420 -0.0395  0.1329  0.2071
 7952W        W10102  15.563   5.431   7.361  0.1244  0.2903 -0.0187
 7953W        W10103  19.024   1.482  16.744  0.1778  0.0048 -0.0458
 7954W        W10104  13.524   6.302  27.161 -0.0091  0.0305 -0.2474
 7955W        W10105   0.186   0.179   1.020 -0.2005  0.1077  0.0138
 7956W        W10106  21.272   2.406  27.256 -0.1987  0.0178 -0.0990
 7957W        W10107   9.519   0.960  10.984 -0.0638  0.1850  0.2487
 7958W        W10108  14.419   6.616  15.573  0.0140  0.0806  0.0472
 7959W        W10109  15.247   5.117  24.532 -0.1676 -0.1072 -0.0947
 7960W        W10110  20.170   4.140  18.222  0.0008 -0.1905 -0.0595
 7961W        W10111  22.113   6.260   2.581 -0.1975  0.0612  0.0012
 7962W        W10112   9.275   7.597  22.795  0.0155 -0.0128  0.2009
 7963W        W10113  11.714   7.694  18.123  0.1361 -0.1223 -0.1530
 7964W        W10114   5.368   2.496  15.366 -0.0963 -0.0260  0.0558
 7965W        W10115  11.868   0.787  21.644 -0.2496 -0.3461 -0.1493
 7966W        W10116   4.838   6.393  24.743  0.0632 -0.0405  0.0553
 7967W        W10117   5.226   5.337  23.160  0.1845  0.1160  0.2477
 7968W        W10118  19.818   2.432  25.923  0.1046 -0.1441 -0.1119
 7969W        W10119   8.850   5.626   8.954  0.0022 -0.0876 -0.4162
 7970W        W10120  11.519   4.774  22.921  0.0770  0.0614  0.1987
 7971W        W10121  19.883   6.917  31.942 -0.3142 -0.0618 -0.1658
 7972W        W10122   9.587   2.888   1.165 -0.2021  0.1817 -0.2535
 7973W        W10123   4.323   6.508  23.640 -0.2508  0.2090 -0.0278
 7974W        W10124  10.366   1.542  21.671  0.2140  0.0484  0.1615
 7975W        W10125   3.046   1.804  30.238  0.1060  0.2468 -0.0603
 7976W        W10126   0.309   6.147   2.298 -0.0033 -0.1396 -0.0421
 7977W        W10127   5.889   5.161  14.069  0.1146 -0.2662 -0.1278
 7978W        W10128  10.878   3.439   1.422 -0.2508 -0.1746  0.0710
 7979W        W10129  15.111   1.482  25.258 -0.1967 -0.0473  0.0071
 7980W        W10130  17.237   0.107   0.688  0.1008  0.0054  0.1045
 7981W        W10131  23.317   3.008  27.080  0.2041 -0.0589 -0.0084
 7982W        W10132  19.352   0.361  15.918 -0.1229 -0.1196 -0.2588
 7983W        W10133  21.802   3.493   7.914 -0.0879 -0.2041  0.1376
 7984W        W10134  20.144   4.355   7.730  0.0913 -0.1706  0.1869
 7985W        W10135   8.723   7.674   2.981  0.0088  0.2786 -0.1980
 7986W        W10136  12.085   0.462   4.719  0.0221 -0.1558 -0.2173
 7987W        W10137   0.148   4.995   2.081 -0.0069 -0.0479  0.1422
 7988W        W10138  13.928   4.794  29.696 -0.0710  0.0267  0.1017
 7989W        W10139   5.777   1.623  16.267  0.2010 -0.3967  0.3744
 7990W        W10140  11.070   3.091  20.094 -0.0072 -0.1052  0.0060
 7991W        W10141   5.021   6.444   1.315  0.1481 -0.1334 -0.0679
 7992W        W10142  12.090   0.101   3.366  0.0640  0.1283  0.0168
 7993W        W10143  15.376   7.728  26.671 -0.2008 -0.0620 -0.0988
 7994W        W10144  19.989   1.706   3.388 -0.1636 -0.1919 -0.1689
 7995W        W10145   4.525   5.338  32.737  0.1943  0.3700 -0.0752
 7996W        W10146   3.526   6.639  27.358  0.0151  0.1397  0.0032
 7997W        W10147  11.247   4.669  31.140 -0.0663 -0.1207  0.1785
 7998W        W10148  14.434   1.022  32.118  0.2328  0.2280  0.1239
 7999W        W10149  24.530   1.239  27.809  0.0747 -0.3399 -0.0620
 8000W        W10150   3.730   1.907   6.435  0.1004 -0.0624  0.1869
 8001W        W10151   6.105   5.018  23.174  0.3745  0.0008 -0.1288
 8002W        W10152   8.866   7.636  13.649  0.0164  0.2332  0.1644
 8003W        W10153   0.672   4.057  30.605  0.1155 -0.2909  0.2271
 8004W        W10154  22.814   2.370  10.026 -0.3658  0.0139 -0.2168
 8005W        W10155   5.091   3.737  14.870 -0.0445 -0.1600  0.1965
 8006W        W10156   2.380   7.066   8.854 -0.3463  0.1889  0.1684
 8007W        W10157   8.945   4.864   7.611 -0.0006 -0.0842 -0.0514
 8008W        W10158   6.592   3.250   3.193  0.1056 -0.3016 -0.0831
 8009W        W10159   6.335   5.400   0.661  0.0053 -0.1145 -0.1081
 8010W        W10160   9.782   3.325  11.061  0.1836 -0.0316  0.0412
 8011W        W10161  13.126   6.533   0.522 -0.3286 -0.0126 -0.0278
 8012W        W10162   5.025   5.470  26.678 -0.1748 -0.0320  0.1062
 8013W        W10163  16.689   6.025   4.062  0.1168  0.0754 -0.0291
 8014W        W10164  20.349   4.729  21.146 -0.0646 -0.0558  0.0592
 8015W        W10165  16.945   1.396  22.995 -0.4303  0.3344  0.2555
 8016W        W10166  16.391   5.431   0.264  0.2326 -0.1099  0.2391
 8017W        W10167  17.414   1.545  29.658 -0.1537  0.2298  0.0073
 8018W        W10168  24.486   5.956   9.052 -0.5180 -0.1173  0.0642
 8019W        W10169   8.891   2.406  21.803  0.1430 -0.0367 -0.0270
 8020W        W10170  11.262   2.972   5.241  0.4064  0.0981  0.0487
 8021W        W10171  24.324   6.802  26.313  0.0008  0.0458 -0.0576
 8022W        W10172  24.841   4.680  28.171  0.3335  0.0704  0.0833
 8023W        W10173   1.222   2.817  27.758  0.0405  0.1385  0.1269
 8024W        W10174  18.547   0.357  16.636 -0.1917  0.2901  0.2490
 8025W        W10175   2.963   2.682  15.178 -0.0211  0.0174 -0.3008
 8026W        W10176   8.677   7.581   9.931 -0.1697  0.0638  0.1219
 8027W        W10177   8.396   4.769   3.086  0.2190  0.2305 -0.2178
 8028W        W10178   2.162   6.672  10.492  0.1348  0.0107 -0.2298
 8029W        W10179  16.842   3.071  14.910  0.1906  0.1000  0.2128
 8030W        W10180  23.909   0.248   6.078  0.1668 -0.1832  0.0096
 8031W        W10181  19.211   3.559   3.716  0.2734 -0.3075 -0.0439
 8032W        W10182  14.345   0.642  22.677  0.0237  0.0254  0.0328
 8033W        W10183   0.509   7.509  13.894 -0.0323 -0.0330 -0.2228
 8034W        W10184  18.679   2.858  32.528  0.0267 -0.2726 -0.2131
 8035W        W10185   3.006   6.747  27.576  0.0793  0.2186  0.3205
 8036W        W10186   7.551   4.428  28.347 -0.3574 -0.0728 -0.0200
 8037W        W10187  13.092   0.575  30.447 -0.1064  0.3081  0.0743
 8038W        W10188  22.103   0.482  22.449 -0.1114 -0.0774 -0.0109
 8039W        W10189  11.002   4.554  21.787 -0.0674  0.2809  0.0304
 8040W        W10190  23.927   4.340   6.567 -0.0976 -0.3773 -0.1136
 8041W        W10191   3.516   7.239   6.471 -0.1430  0.0328 -0.1978
 8042W        W10192  12.773   3.839  28.834  0.0616 -0.0147  0.0685
 8043W        W10193  16.292   7.358  24.447  0.0931 -0.1544  0.0276
 8044W        W10194  24.830   4.572   2.179  0.3812  0.4070  0.2879
 8045W        W10195   3.657   2.854   8.924 -0.0199 -0.2053 -0.1605
 8046W        W10196   6.399   7.795   2.859 -0.1194 -0.1215 -0.1671
 8047W        W10197   6.932   1.764   8.935 -0.0169 -0.0855  0.0279
 8048W        W10198  20.669   7.143  17.986 -0.0807  0.0663 -0.1427
 8049W        W10199  11.531   0.758   1.256 -0.0301  0.1409 -0.0038
 8050W        W10200   3.477   1.665   5.558 -0.2433  0.0201 -0.1001
 8051W        W10201  13.180   3.481  32.017 -0.0274  0.2482  0.0567
 8052W        W10202  24.010   3.781   5.099  0.0058 -0.1365 -0.4031
 8053W        W10203   9.913   7.211  30.186 -0.1422 -0.1883  0.2384
 8054W        W10204  21.807   5.793   0.111  0.0916  0.0867 -0.0909
 8055W        W10205  10.633   4.261  24.456 -0.0460  0.1665  0.0970
 8056W        W10206  16.362   4.043  16.341  0.2706  0.2493  0.0479
 8057W        W10207  24.908   2.114   9.323  0.2072 -0.2046 -0.1082
 8058W        W10208  12.985   5.505   2.292  0.0737 -0.0905  0.1235
 8059W        W10209   8.812   4.477   4.031  0.0208 -0.1414 -0.0952
 8060W        W10210   0.755   7.569  14.886  0.0227 -0.1278 -0.2255
 8061W        W10211   7.868   5.294  24.145  0.2319  0.0473  0.2180
 8062W        W10212   2.089   3.125  16.676 -0.1984  0.2986 -0.0997
 8063W        W10213   2.168   3.228   2.332  0.0628 -0.0537  0.3034
 8064W        W10214  19.059   0.830  23.164  0.0032  0.0987 -0.1692
 8065W        W10215  22.641   3.742  25.341 -0.1242 -0.2219 -0.0175
 8066W        W10216   0.609   3.704  32.603 -0.1062 -0.0150 -0.0608
 8067W        W10217   1.871   0.636   3.123  0.0397  0.0388  0.0683
 8068W        W10218   2.477   1.673  32.298 -0.1701  0.1566  0.1578
 8069W        W10219   1.200   2.488   0.349  0.0085  0.0504  0.2528
 8070W        W10220  14.713   4.494  23.098 -0.2281 -0.0631  0.1795
 8071W        W10221  13.258   5.155   9.331  0.0104 -0.1838 -0.3563
 8072W        W10222  23.650   6.138   4.749  0.2660  0.1419 -0.1983
 8073W        W10223  11.236   7.010   7.689  0.2438 -0.0818 -0.0487
 8074W        W10224   9.338   1.514   1.468 -0.2626 -0.1448 -0.0388
 8075W        W10225   6.107   7.688   0.772  0.0589 -0.0223  0.0340
 8076W        W10226  23.573   1.852  22.720  0.2131  0.3711 -0.1479
 8077W        W10227  14.663   6.310   9.431  0.1123  0.1388  0.2305
 8078W        W10228  22.820   5.642   6.760 -0.0560 -0.2872  0.1574
 8079W        W10229  13.711   5.955   2.538  0.1428  0.0163  0.1474
 8080W        W10230  21.012   7.112   1.880 -0.0618  0.2804  0.2896
 8081W        W10231  21.761   3.668  31.975 -0.0213  0.2271  0.0530
 8082W        W10232   3.918   7.287  18.791 -0.1925 -0.2756 -0.1841
 8083W        W10233  15.017   6.204  26.333 -0.1953  0.0960 -0.1721
 8084W        W10234   2.226   6.989   2.507 -0.1563  0.0169 -0.0332
 8085W        W10235  13.711   0.479   9.372  0.2572  0.0393  0.0329
 8086W        W10236  16.752   3.512  21.878 -0.2944  0.0273 -0.2816
 8087W        W10237   0.733   6.958  15.851 -0.1699  0.2805  0.1035
 8088W        W10238  17.303   2.869  22.102  0.1984 -0.1004  0.2384
 8089W        W10239  11.302   7.460  18.323 -0.2850  0.0047 -0.3331
 8090W        W10240  21.130   6.167   4.872 -0.0465 -0.1008  0.0759
 8091W        W10241  20.197   2.806  17.951 -0.3373  0.1404 -0.3915
 8092W        W10242   6.928   0.642   8.906 -0.3379  0.0370  0.1911
 8093W        W10243  23.517   6.354  13.852  0.1991 -0.2186  0.1002
 8094W        W10244   0.926   0.111  24.164  0.0605 -0.3869  0.1065
 8095W        W10245  17.389   1.586  32.877  0.2116  0.1471 -0.0281
 8096W        W10246  11.034   2.818  26.735 -0.1633 -0.0966  0.0581
 8097W        W10247  17.319   1.305  22.125  0.3343  0.2012 -0.1908
 8098W        W10248  19.424   6.280   0.967 -0.0073 -0.2824  0.1534
 8099W        W10249   0.447   5.323   7.819 -0.0320  0.2197  0.0722
 8100W        W10250  22.183   3.516   0.692  0.1037 -0.1543 -0.1334
 8101W        W10251   0.417   3.822   4.422  0.3540  0.0017 -0.0022
 8102W        W10252   7.657   7.075  14.192 -0.0192  0.1137 -0.0124
 8103W        W10253   7.012   3.750  30.955 -0.0587  0.0764 -0.0866
 8104W        W10254   8.868   0.909   2.769 -0.1070  0.0881  0.2573
 8105W        W10255   5.342   3.600  28.256 -0.2025 -0.0854 -0.1719
 8106W        W10256   0.737   2.223   4.838  0.1203 -0.1428  0.1942
 8107W        W10257   5.867   6.784  17.092  0.0824 -0.1140 -0.1878
 8108W        W10258   0.937   2.182   7.724  0.0596  0.0742 -0.0017
 8109W        W10259   4.559   1.283  16.154 -0.1170  0.1146 -0.2451
 8110W        W10260  18.798   1.815   1.979 -0.1344  0.0144 -0.0516
 8111W        W10261  18.933   7.345  10.826  0.0156  0.2323 -0.0744
 8112W        W10262   4.635   4.661  22.343 -0.1181  0.0556  0.2441
 8113W        W10263   8.782   5.815   3.451  0.1443 -0.4534 -0.0597
 8114W        W10264  20.220   7.077   7.173 -0.1736  0.2962  0.1403
 8115W        W10265  12.285   5.529  10.190 -0.2317  0.0114  0.0777
 8116W        W10266   1.325   5.453   3.358  0.0543  0.3289 -0.2714
 8117W        W10267  23.692   6.133  24.948 -0.1755 -0.0450 -0.1173
 8118W        W10268   3.702   2.169  16.970 -0.2433  0.0222 -0.2270
 8119W        W10269  17.241   5.424  17.322 -0.1720  0.0926  0.1325
 8120W        W10270   2.628   6.741   3.931  0.1652  0.0622 -0.0636
 8121W        W10271  21.048   5.365  10.597  0.4941 -0.0571  0.1224
 8122W        W10272  12.632   1.453  32.669  0.1604 -0.3295 -0.2695
 8123W        W10273   3.372   6.204  24.099 -0.1043 -0.0399 -0.2020
 8124W        W10274  19.692   4.759  32.024 -0.2233 -0.2451 -0.3747
 8125W        W10275   8.974   2.750   2.853  0.2760 -0.3546  0.0380
 8126W        W10276  12.626   5.845  24.022 -0.1886  0.0865  0.3369
 8127W        W10277  23.145   3.681   4.233 -0.0271  0.0445  0.1179
 8128W        W10278  21.561   5.726  30.989 -0.2664  0.0879  0.1580
 8129W        W10279  20.979   5.241  20.499 -0.0661  0.2610  0.3114
 8130W        W10280  11.141   7.743  27.281 -0.2390 -0.1418  0.2102
 8131W        W10281   7.734   5.643   7.330  0.0238  0.0070  0.1227
 8132W        W10282   2.906   3.572   5.620  0.2059 -0.0062  0.0995
 8133W        W10283  16.425   0.034  26.843  0.1908 -0.0922 -0.0816
 8134W        W10284   8.358   2.557  25.593 -0.0692  0.0599 -0.2245
 8135W        W10285   4.791   5.079  17.962 -0.2231 -0.1347 -0.4001
 8136W        W10286  12.848   5.297  24.721  0.0837  0.0739  0.1487
 8137W        W10287  15.763   6.173   9.837  0.0336  0.0729  0.0617
 8138W        W10288   6.841   4.350  22.866  0.2938  0.0030  0.1158
 8139W        W10289  24.459   6.998  21.103  0.0463  0.1866 -0.0057
 8140W        W10290  12.445   5.294   7.475  0.1819  0.1563  0.0388
 8141W        W10291   3.557   4.352  23.295 -0.3290 -0.1523 -0.1285
 8142W        W10292   2.780   3.065   3.518  0.0985 -0.0090 -0.1220
 8143W        W10293   3.087   3.232  24.035  0.0343 -0.0711  0.0868
 8144W        W10294  13.348   2.979   6.879  0.1427 -0.0100  0.1416
 8145W        W10295  16.907   7.551  32.625  0.0799  0.0346 -0.1033
 8146W        W10296   0.407   2.125  13.061 -0.0064  0.0425  0.1038
 8147W        W10297  21.830   6.592  21.972 -0.0714  0.0820  0.0633
 8148W        W10298  17.181   5.037   3.460 -0.1687  0.0119  0.1197
 8149W        W10299  21.268   6.724   2.761  0.1850  0.0888 -0.1852
 8150W        W10300  12.163   6.910  30.581  0.2061 -0.1542 -0.1571
 8151W        W10301  13.592   4.369  18.715  0.3413  0.0502  0.1504
 8152W        W10302  22.202   5.140  22.360 -0.0231 -0.1808  0.1507
 8153W        W10303  21.314   2.081   8.785 -0.2214 -0.3714 -0.2672
 8154W        W10304  13.949   6.249  26.213 -0.0910  0.1997  0.1507
 8155W        W10305  10.908   3.145  21.034  0.0738 -0.2618 -0.0989
 8156W        W10306  13.833   5.144  24.833  0.1472  0.2312  0.4042
 8157W        W10307   7.316   0.117  31.247 -0.0932 -0.2582  0.1885
 8158W        W10308  23.280   4.869   9.789 -0.0664 -0.2360 -0.2769
 8159W        W10309   7.671   0.799  10.501 -0.1201  0.4165  0.3202
 8160W        W10310  23.097   4.557  11.988  0.1725  0.1489  0.0452
 8161W        W10311   5.642   3.344   0.192 -0.2259 -0.3154 -0.2718
 8162W        W10312  18.573   3.427  32.469 -0.3124  0.0107 -0.3023
 8163W        W10313  13.021   4.117  24.185 -0.0291  0.0930 -0.0464
 8164W        W10314  19.974   3.534   6.681  0.0963 -0.2594  0.2216
 8165W        W10315  16.685   2.808  27.541  0.1866  0.0310  0.0511
 8166W        W10316   5.675   2.100   9.444 -0.3730 -0.0652  0.2814
 8167W        W10317   6.464   7.489   8.700 -0.0446  0.0201  0.2363
 8168W        W10318   2.810   0.806  26.318 -0.0988  0.1768 -0.1099
 8169W        W10319   9.223   5.486   4.912  0.2151 -0.0857 -0.2540
 8170W        W10320   1.891   5.294   8.613  0.0247  0.0833 -0.0359
 8171W        W10321  19.716   7.570  17.111 -0.0266  0.0003 -0.1108
 8172W        W10322   7.367   1.247   2.529  0.2859 -0.0105  0.0861
 8173W        W10323   1.166   1.018  32.030 -0.0090 -0.0881 -0.0684
 8174W        W10324  21.263   0.042  24.457 -0.0077 -0.2133 -0.2281
 8175W        W10325  18.022   4.064  22.539 -0.1985 -0.0178  0.1697
 8176W        W10326   1.131   1.110  22.993 -0.0237 -0.1027 -0.0263
 8177W        W10327  19.940   3.490   7.393  0.0030 -0.1627  0.0786
 8178W        W10328   0.140   0.989  27.354  0.0982  0.0337  0.3563
 8179W        W10329   3.439   2.446  16.053 -0.1209 -0.0579  0.0602
 8180W        W10330  22.372   1.695  32.834 -0.2004  0.0845  0.0787
 8181W        W10331  12.091   5.675   9.273  0.0812  0.0806 -0.1405
 8182W        W10332  16.219   1.197  32.626 -0.1400  0.0933 -0.0536
 8183W        W10333  24.533   5.437  25.382  0.0445 -0.0289  0.1267
 8184W        W10334  19.550   3.824   9.317 -0.0546 -0.3910  0.0037
 8185W        W10335  12.816   4.022  28.054 -0.0038 -0.3086  0.1494
 8186W        W10336  18.465   7.129  18.837  0.0178 -0.2097  0.0349
 8187W        W10337  12.863   0.353  28.591 -0.3368  0.0727 -0.1373
 8188W        W10338  19.212   3.413   0.260  0.1331 -0.1188 -0.0755
 8189W        W10339  22.838   1.302  24.511 -0.1269  0.1610  0.0326
 8190W        W10340   2.580   4.650  23.530  0.0902  0.0929 -0.0593
 8191W        W10341  10.718   7.363  23.188  0.0202  0.0776  0.0624
 8192W        W10342  15.170   2.053  26.498 -0.1499  0.0543  0.0398
 8193W        W10343  15.021   1.768   6.620 -0.1217 -0.1967  0.0550
 8194W        W10344   9.283   6.427  22.562 -0.2812 -0.0321  0.0427
 8195W        W10345  14.096   6.342  19.555  0.1962  0.2000 -0.2622
 8196W        W10346  20.221   3.854  19.657 -0.0021  0.0296 -0.2192
 8197W        W10347  21.050   6.172  11.749  0.0898 -0.1410 -0.0480
 8198W        W10348  15.591   6.796   6.580  0.0235  0.2715  0.2612
 8199W        W10349  18.629   5.231  28.901 -0.1563  0.0301 -0.2706
 8200W        W10350   6.283   7.099   4.329 -0.0143  0.1120 -0.0604
 8201W        W10351  18.354   6.276  31.758 -0.1588 -0.0431 -0.2499
 8202W        W10352   6.135   7.800  22.242  0.2053 -0.2197 -0.0041
 8203W        W10353   4.834   6.358  31.118 -0.1033 -0.1106 -0.0211
 8204W        W10354  19.454   2.572   6.474  0.1880 -0.0408 -0.0569
 8205W        W10355  16.878   3.434   2.726 -0.3564  0.3144 -0.0100
 8206W        W10356   4.064   4.706  22.393  0.0951  0.1279  0.0232
 8207W        W10357  14.199   6.028  10.873 -0.1795 -0.0069 -0.1476
 8208W        W10358   9.836   6.680  31.494  0.2609 -0.4147 -0.2031
 8209W        W10359  16.022   0.979   9.838 -0.1594 -0.1041 -0.1473
 8210W        W10360   2.391   5.095  23.816 -0.0233  0.4521 -0.0537
 8211W        W10361  15.217   5.704  19.040 -0.0150 -0.0240  0.1787
 8212W        W10362   6.234   0.555  14.732 -0.0199  0.2487  0.2699
 8213W        W10363  21.648   7.292  10.649  0.1026  0.0935  0.1061
 8214W        W10364  13.631   2.841   5.475  0.1334  0.0984 -0.0257
 8215W        W10365   9.497   6.683  28.497  0.1492 -0.1853  0.2356
 8216W        W10366  23.560   6.100  21.803  0.5280 -0.1476 -0.0209
 8217W        W10367   2.972   7.179   3.076  0.0410 -0.0071 -0.1870
 8218W        W10368  10.270   5.539   5.566  0.2199 -0.1155 -0.0293
 8219W        W10369  15.038   0.530   8.007 -0.0513 -0.0665 -0.2007
 8220W        W10370   6.940   7.017  28.719 -0.0036  0.0311 -0.1492
 8221W        W10371  22.124   7.370  30.644 -0.3371  0.1549 -0.0808
 8222W        W10372   6.473   7.774  30.274  0.1931 -0.1072  0.1766
 8223W        W10373  13.422   7.348   6.014 -0.0539  0.2252  0.1003
 8224W        W10374  21.515   6.873  24.528  0.1693  0.0818 -0.2111
 8225W        W10375  16.851   3.851   3.636 -0.0084  0.0837  0.0562
 8226W        W10376  22.760   5.062  32.803 -0.1080 -0.1614  0.3399
 8227W        W10377  15.591   4.515  32.516  0.2083 -0.0143 -0.0846
 8228W        W10378  19.156   5.486   0.287 -0.1180  0.0808 -0.2446
 8229W        W10379   2.579   7.641  17.441 -0.1186 -0.2487  0.2406
 8230W        W10380  23.005   6.530  28.917 -0.0029 -0.0623 -0.2141
 8231W        W10381  10.483   0.844   5.311  0.1250 -0.0228 -0.1564
 8232W        W10382  16.625   4.527  21.553  0.1313 -0.1444  0.0166
 8233W        W10383  11.408   5.487  22.946 -0.0910  0.0640  0.1563
 8234W        W10384  12.981   5.845   1.893  0.2002 -0.4448  0.0526
 8235W        W10385  23.203   2.398  19.813 -0.2065 -0.3407 -0.3864
 8236W        W10386   3.836   0.167   0.818 -0.1436  0.0120  0.1089
 8237W        W10387  11.923   7.714  23.411  0.0260  0.0536  0.3311
 8238W        W10388  20.844   4.039  12.008  0.0667  0.2498 -0.0173
 8239W        W10389  11.636   4.755   5.931 -0.0258  0.3962 -0.1808
 8240W        W10390   0.709   3.387  28.230 -0.2282  0.0547  0.0074
 8241W        W10391  13.452   3.966  29.871 -0.2014 -0.2464  0.1528
 8242W        W10392  20.120   6.753  26.454 -0.1910 -0.1725  0.0011
 8243W        W10393  12.546   1.566   2.077  0.0709 -0.1942  0.0025
 8244W        W10394  23.067   2.402  22.811 -0.0666  0.0002  0.2040
 8245W        W10395   0.593   2.258  29.038 -0.1631  0.0090 -0.0149
 8246W        W10396   7.704   4.076  10.838  0.2065  0.0298 -0.0488
 8247W        W10397  11.112   6.397  19.473  0.0746  0.1144 -0.1444
 8248W        W10398   6.011   4.381  24.690 -0.0411  0.1505 -0.0446
 8249W        W10399  24.506   1.907  15.007 -0.2205  0.0588 -0.0223
 8250W        W10400   5.410   1.370   5.445 -0.3066  0.2867  0.1597
 8251W        W10401   3.986   2.885  30.998  0.0532  0.4681  0.2371
 8252W        W10402  10.669   1.924  29.354  0.2532 -0.1110 -0.0808
 8253W        W10403  16.198   6.604   3.257 -0.2796 -0.0406 -0.1953
 8254W        W10404   4.899   0.173  32.040 -0.1889  0.0513  0.0370
 8255W        W10405   2.748   6.433  27.240  0.1299  0.0693  0.0598
 8256W        W10406   6.215   4.915   0.777 -0.0032 -0.3352  0.0453
 8257W        W10407   1.961   0.624   9.944  0.0678  0.1222  0.1217
 8258W        W10408  10.539   6.810  11.203  0.0103  0.0911 -0.0263
 8259W        W10409   3.070   3.270   2.728  0.2425 -0.0981  0.4118
 8260W        W10410  13.808   6.560  20.760 -0.0159 -0.0487 -0.2291
 8261W        W10411   6.742   5.233  16.973  0.1074  0.1030  0.1310
 8262W        W10412   5.008   1.741   6.051  0.1012 -0.1676  0.0150
 8263W        W10413  19.546   7.077  28.489  0.3811 -0.0982 -0.4243
 8264W        W10414  16.453   6.905  27.444  0.1249 -0.1092  0.0442
 8265W        W10415  17.867   7.441  25.189 -0.1359  0.1104 -0.1031
 8266W        W10416  22.250   6.046   5.375 -0.1870 -0.1845 -0.0354
 8267W        W10417  12.012   2.543  32.138  0.1198  0.0275 -0.0835
 8268W        W10418   4.924   2.939  10.907 -0.1956  0.0495  0.3296
 8269W        W10419   1.226   7.776  12.244 -0.1916 -0.2413 -0.0387
 8270W        W10420  13.491   2.409   1.890  0.1770  0.2293  0.0934
 8271W        W10421   8.975   4.068   7.280  0.2003 -0.0633 -0.1833
 8272W        W10422  20.128   1.584   9.472  0.2163  0.0853 -0.3382
 8273W        W10423  11.983   4.648  21.351  0.1547  0.2420  0.1363
 8274W        W10424  14.750   5.055  30.746 -0.1771  0.1915  0.1745
 8275W        W10425  12.910   0.687   3.166 -0.0628 -0.0345 -0.1609
 8276W        W10426  14.832   7.615  31.110  0.2611  0.1626 -0.2941
 8277W        W10427  18.509   3.832  31.181 -0.1947 -0.1309 -0.2665
 8278W        W10428  11.006   3.443  21.434 -0.0726  0.0324  0.1251
 8279W        W10429  15.963   3.112  15.702 -0.1099  0.1342  0.1469
 8280W        W10430   9.141   3.800  31.217  0.0327 -0.2327  0.0888
 8281W        W10431  11.396   3.053   4.343  0.0354 -0.3230  0.0250
 8282W        W10432  12.459   3.114   2.452 -0.2403 -0.0230 -0.1768
 8283W        W10433   7.751   7.506   4.422  0.0842  0.2349 -0.0776
 8284W        W10434   1.844   2.052  29.183  0.0889  0.1706 -0.1555
 8285W        W10435  18.731   5.073  19.767 -0.1905  0.2690 -0.2375
 8286W        W10436  21.755   2.475   8.033 -0.2598  0.2000 -0.1929
 8287W        W10437  20.933   1.965   8.280 -0.0264 -0.1849 -0.3208
 8288W        W10438  18.849   2.301   7.574  0.2192 -0.2200 -0.0818
 8289W        W10439  17.798   2.004   3.579  0.0241 -0.1462  0.2387
 8290W        W10440   6.717   7.150   8.242  0.2242 -0.1624  0.3055
 8291W        W10441  12.928   2.662  31.029 -0.0809  0.2293 -0.5527
 8292W        W10442  23.127   5.460  26.710  0.3048  0.2792 -0.0748
 8293W        W10443  14.270   4.081  24.911 -0.0065 -0.0673 -0.0950
 8294W        W10444  20.543   3.273  29.865 -0.0661  0.1782  0.1824
 8295W        W10445   5.568   7.417   1.143 -0.0478 -0.0142 -0.1993
 8296W        W10446  14.916   2.605  19.064  0.1909 -0.1325 -0.0879
 8297W        W10447   8.605   2.620  28.834  0.3387  0.0816 -0.0410
 8298W        W10448  17.265   4.690  27.004  0.0903  0.0410  0.1018
 8299W        W10449  19.452   2.975   3.060 -0.2409 -0.2418 -0.2118
 8300W        W10450   9.098   6.037   4.888 -0.0438  0.0963 -0.2617
 8301W        W10451  19.084   5.049  31.466  0.0531  0.0611  0.0932
 8302W        W10452  13.940   6.655   7.470 -0.0675  0.1867  0.2314
 8303W        W10453  24.515   5.514  25.914  0.0063 -0.2513  0.2812
 8304W        W10454   4.903   2.875  14.940  0.2692  0.3042 -0.1566
 8305W        W10455  12.774   6.378  19.949  0.1249  0.1131  0.4120
 8306W        W10456   9.815   6.115   3.653 -0.0336 -0.1490 -0.1311
 8307W        W10457   9.620   6.000  31.328 -0.1857  0.3234 -0.0827
 8308W        W10458   4.574   2.785  13.734 -0.1277 -0.0703 -0.0597
 8309W        W10459  18.003   4.243  16.716  0.1153  0.1958 -0.2320
 8310W        W10460   7.242   1.284  22.957  0.2201  0.1880  0.2296
 8311W        W10461  18.112   2.391   3.485  0.0253 -0.0792 -0.1923
 8312W        W10462   2.236   0.882   9.575  0.1212  0.0442  0.0252
 8313W        W10463   3.361   7.680  29.316 -0.2063  0.1023 -0.1554
 8314W        W10464  24.538   2.010  30.987  0.1832 -0.1097 -0.0332
 8315W        W10465  10.933   3.837  31.522  0.0774 -0.0485  0.4257
 8316W        W10466   7.724   3.922  21.987  0.1117 -0.2666 -0.0149
 8317W        W10467   2.205   1.224   4.245 -0.1856 -0.0585 -0.0705
 8318W        W10468  23.556   6.917  14.417  0.3292 -0.0279  0.3233
 8319W        W10469   6.403   2.490   9.785 -0.3417  0.0786  0.0873
 8320W        W10470  11.433   7.766   6.106  0.0398 -0.3651 -0.4686
 8321W        W10471  19.909   6.191  17.111 -0.0449 -0.0056 -0.0466
 8322W        W10472  14.302   7.579  26.626 -0.2804 -0.0019  0.0582
 8323W        W10473   1.056   2.282  28.809 -0.6321 -0.2428 -0.1746
 8324W        W10474   2.922   3.482  26.594  0.0096 -0.1195 -0.0622
 8325W        W10475  19.029   6.732  21.427 -0.0950 -0.0130 -0.4013
 8326W        W10476   5.740   6.352  31.190 -0.0824  0.1999  0.0987
 8327W        W10477  13.268   1.614  28.233  0.0098  0.2708 -0.3665
 8328W        W10478  24.343   4.687   2.599 -0.0246 -0.2835  0.1380
 8329W        W10479   8.350   7.705  13.371 -0.0774  0.1576 -0.0232
 8330W        W10480  10.232   6.382  31.847 -0.3462  0.0506  0.2109
 8331W        W10481   9.593   0.352   2.722 -0.2945 -0.0736  0.1046
 8332W        W10482   0.993   4.442  10.850  0.0057 -0.0725  0.2272
 8333W        W10483  14.473   5.070   4.629 -0.1576  0.0156  0.1527
 8334W        W10484  22.801   0.767  28.513  0.0927 -0.2363  0.3403
 8335W        W10485   6.287   7.023  14.266  0.1596  0.0976 -0.2459
 8336W        W10486  21.484   0.799   3.618  0.1806 -0.1407  0.0405
 8337W        W10487  21.468   6.119   8.258  0.1100  0.1022 -0.1833
 8338W        W10488  20.391   3.434  25.383 -0.1485  0.1737 -0.0149
 8339W        W10489   4.872   0.057  11.552  0.2231  0.1600  0.0077
 8340W        W10490  21.058   1.739  20.373 -0.3272  0.0587 -0.0604
 8341W        W10491   3.886   7.171  31.250  0.1639  0.1885  0.0899
 8342W        W10492  10.330   3.171  23.081 -0.3556 -0.0626  0.0453
 8343W        W10493   3.126   5.303  17.042  0.1324 -0.1087 -0.0913
 8344W        W10494  22.494   1.735  24.682  0.1640 -0.1630 -0.0607
 8345W        W10495  14.844   0.470  22.561  0.2241  0.1837  0.1416
 8346W        W10496   5.586   0.094  13.261  0.3779  0.1375  0.0365
 8347W        W10497  17.547   4.027  20.984 -0.1240 -0.0199 -0.0025
 8348W        W10498  13.833   0.235  32.958 -0.2055  0.1388  0.0651
 8349W        W10499   2.978   5.510  14.462  0.0643 -0.2743  0.0798
 8350W        W10500   6.055   3.364  29.956  0.3910  0.1581  0.2144
 8351W        W10501   8.765   4.000  23.141  0.1398 -0.0094  0.1847
 8352W        W10502  22.091   4.904   0.544  0.0732 -0.0152 -0.3349
 8353W        W10503  22.710   3.679  10.106  0.0310  0.0403 -0.0698
 8354W        W10504   5.663   2.383  29.622 -0.1085 -0.2348 -0.2234
 8355W        W10505  20.242   3.626  25.909  0.1909 -0.1791 -0.1461
 8356W        W10506   4.198   7.253  25.486  0.0584 -0.0097  0.0690
 8357W        W10507  14.518   0.011   4.407 -0.0662  0.1281 -0.1796
 8358W        W10508  15.626   3.992  30.963 -0.1005 -0.2743 -0.0124
 8359W        W10509   5.846   5.276  16.424  0.1243  0.2201  0.2296
 8360W        W10510  22.361   3.908  10.794  0.0976  0.1333  0.0120
 8361W        W10511   3.341   4.148  28.639 -0.1215  0.1902 -0.1628
 8362W        W10512  12.055   6.217  11.124  0.2714  0.0245  0.2499
 8363W        W10513  11.604   0.849  24.201  0.0375  0.0785  0.1144
 8364W        W10514  14.990   1.199   4.906 -0.3147 -0.2139  0.3923
 8365W        W10515  12.700   4.749  10.688 -0.0695 -0.1966  0.1070
 8366W        W10516  19.838   7.431  26.993  0.1331 -0.0397 -0.2868
 8367W        W10517   8.499   6.501  28.734 -0.2736 -0.1088  0.0476
 8368W        W10518  14.951   5.516  27.786  0.0811  0.0678  0.1327
 8369W        W10519  18.524   1.981  30.581  0.2428 -0.1267  0.3000
 8370W        W10520  12.950   4.236  30.521 -0.2162 -0.1619 -0.0795
 8371W        W10521   4.089   0.377  32.846  0.0188 -0.2248  0.1398
 8372W        W10522  12.726   6.532  18.616  0.3926  0.2226  0.1236
 8373W        W10523   0.662   4.745  15.197 -0.3159  0.3099 -0.1436
 8374W        W10524  17.883   6.146  10.047  0.3113 -0.1063  0.0258
 8375W        W10525  13.301   1.798  22.123  0.0238 -0.4052  0.1809
 8376W        W10526   4.558   2.544   5.684  0.3060 -0.4391 -0.3034
 8377W        W10527   0.480   1.769  11.348  0.0486 -0.1309 -0.1130
 8378W        W10528   3.366   7.779  23.405  0.1284 -0.0374  0.1329
 8379W        W10529  19.455   4.084  26.762  0.0705 -0.2488  0.0191
 8380W        W10530  19.307   6.858  19.182 -0.0912 -0.2518  0.0518
 8381W        W10531  23.110   1.068  23.176  0.0871  0.0227 -0.1761
 8382W        W10532  11.889   3.088  22.613 -0.0540 -0.3239 -0.2922
 8383W        W10533  12.780   2.158  30.743  0.1826  0.0284  0.1840
 8384W        W10534  20.158   4.371  23.508 -0.0169 -0.1319 -0.1298
 8385W        W10535   7.019   5.991  32.741 -0.0732 -0.0749  0.2198
 8386W        W10536  12.353   1.124   1.895  0.1897 -0.1260 -0.1028
 8387W        W10537   1.249   0.054  25.715  0.0667 -0.0190  0.1647
 8388W        W10538  15.541   5.594  25.234  0.0689  0.0696 -0.1814
 8389W        W10539  19.762   2.588  28.347  0.0857 -0.0785 -0.0317
 8390W        W10540   6.573   1.949  25.306  0.1138  0.1884  0.2278
 8391W        W10541  20.087   0.340  19.262 -0.0102 -0.0850  0.1773
 8392W        W10542  23.939   0.168   4.697 -0.0617  0.1851  0.2800
 8393W        W10543  23.958   2.279  13.168  0.1292  0.0505 -0.4766
 8394W        W10544   4.574   1.883  24.444 -0.0828 -0.1845  0.1102
 8395W        W10545  19.693   1.170  28.174  0.2361 -0.0341 -0.3533
 8396W        W10546  24.392   1.968   7.881  0.0819  0.1731  0.1500
 8397W        W10547   7.517   4.004   3.677  0.1207 -0.2294 -0.0352
 8398W        W10548   0.228   5.500   6.755 -0.1041 -0.2700 -0.2715
 8399W        W10549   6.377   0.304  16.510  0.1787  0.1137 -0.2122
 8400W        W10550  18.392   1.146   1.142  0.1239  0.0632 -0.1028
 8401W        W10551  20.637   2.284  22.108  0.0474  0.1468 -0.2401
 8402W        W10552  20.838   5.590  33.040 -0.0523 -0.0712  0.2075
 8403W        W10553   3.519   3.707  29.387  0.1169 -0.3151  0.2517
 8404W        W10554   4.512   6.391   8.079 -0.2815  0.3979  0.1538
 8405W        W10555  17.766   6.760   8.029 -0.2325 -0.1537  0.0887
 8406W        W10556  17.453   0.162  25.945  0.3063  0.0549 -0.0456
 8407W        W10557   5.011   3.649  10.411  0.0617  0.0252  0.0534
 8408W        W10558  10.245   7.798  28.872 -0.1679  0.0465  0.1432
 8409W        W10559  19.333   5.361  31.198 -0.1443 -0.0162 -0.1499
 8410W        W10560  12.506   0.436  11.678 -0.1572  0.0192  0.2221
 8411W        W10561  21.100   3.497   7.021  0.1425  0.1940 -0.0620
 8412W        W10562  10.796   3.639  30.043 -0.1349  0.0483  0.1899
 8413W        W10563   3.436   3.226   1.470 -0.0834 -0.1953  0.0531
 8414W        W10564  21.757   2.804  20.029  0.1492  0.3348 -0.1555
 8415W        W10565  23.959   2.493  30.186  0.2099 -0.1584  0.2197
 8416W        W10566  14.840   7.514  22.644 -0.2452 -0.1281 -0.0978
 8417W        W10567   5.672   7.737   3.992  0.1199 -0.0060 -0.0315
 8418W        W10568  23.887   5.375   7.182  0.1108  0.0080 -0.2595
 8419W        W10569  24.683   4.389   1.662 -0.0368 -0.2792  0.1961
 8420W        W10570  15.061   5.449  33.043  0.1683 -0.0036  0.1499
 8421W        W10571  21.906   4.415  32.317  0.3072 -0.1149 -0.2120
 8422W        W10572   5.772   3.049  25.961  0.1642 -0.1454 -0.2205
 8423W        W10573   5.496   4.472   7.627  0.1829  0.2252  0.1525
 8424W        W10574  17.160   4.286  10.168 -0.2702 -0.0504  0.2653
 8425W        W10575  16.314   0.484  21.167 -0.1550 -0.0380 -0.2208
 8426W        W10576  20.236   7.221  19.501  0.1097  0.1383 -0.1872
 8427W        W10577   0.366   7.311   7.183  0.0533  0.0776 -0.0841
 8428W        W10578  21.434   5.018  19.649  0.3717 -0.0768  0.1024
 8429W        W10579  13.316   4.365  24.534  0.0684  0.0510 -0.0692
 8430W        W10580  14.899   4.886   0.923 -0.2985 -0.2839  0.0057
 8431W        W10581  11.521   3.497  20.918  0.1322 -0.0085  0.2301
 8432W        W10582  18.438   0.365   1.370 -0.3536 -0.0335  0.1393
 8433W        W10583  12.832   6.388  27.812 -0.1492 -0.0697 -0.0048
 8434W        W10584   0.472   5.798   9.807 -0.2329 -0.0442 -0.1463
 8435W        W10585   6.725   5.320   2.369 -0.1896 -0.1923  0.1733
 8436W        W10586  13.446   0.462   7.139  0.0460  0.1437  0.0792
 8437W        W10587  10.154   0.601  27.731  0.2018  0.0082 -0.0883
 8438W        W10588   8.998   0.348  25.437 -0.0413  0.2095 -0.0353
 8439W        W10589   5.118   5.769   0.348 -0.0892  0.1908  0.2782
 8440W        W10590   0.865   1.629  30.395 -0.1272 -0.1984  0.0043
 8441W        W10591  11.641   1.727  20.298 -0.3799 -0.0043  0.0626
 8442W        W10592   6.566   1.852   7.478 -0.3380  0.0348  0.1194
 8443W        W10593   2.100   2.521   9.124 -0.1052  0.3083  0.0480
 8444W        W10594  20.484   3.349   4.813 -0.1920  0.0576 -0.2622
 8445W        W10595   3.034   1.922  29.520  0.0702  0.2610 -0.0988
 8446W        W10596   1.488   3.490   4.596  0.0134 -0.1329 -0.2263
 8447W        W10597  11.932   5.604  24.492  0.2074  0.0663 -0.0331
 8448W        W10598  10.224   7.214   9.899 -0.4070  0.2041 -0.1196
 8449W        W10599  16.204   2.271   5.384 -0.0516  0.1356 -0.0184
 8450W        W10600  19.496   7.768  16.606 -0.0216  0.0189  0.1637
 8451W        W10601  11.685   4.951  30.189 -0.0499  0.3621  0.1340
 8452W        W10602   2.394   0.025  27.825  0.1372  0.0741  0.4027
 8453W        W10603  22.146   3.838  19.811 -0.1042  0.0025 -0.1916
 8454W        W10604  16.406   5.607  15.144 -0.1505  0.1478 -0.0210
 8455W        W10605   0.155   7.193  29.028 -0.0226  0.0523  0.0084
 8456W        W10606  10.870   4.631  12.427 -0.3753  0.1387 -0.0310
 8457W        W10607   3.596   6.877  31.682  0.0837 -0.3718  0.2304
 8458W        W10608  14.925   0.792  16.022 -0.3392  0.1376  0.3318
 8459W        W10609  18.899   4.960  27.603  0.0665 -0.1570 -0.1275
 8460W        W10610   7.850   7.214   8.075  0.2932 -0.1058 -0.2240
 8461W        W10611  18.293   4.229  25.034  0.1547  0.1790 -0.2386
 8462W        W10612  12.673   1.138   6.730 -0.2414  0.1556  0.1409
 8463W        W10613   7.909   6.728  15.167  0.0076 -0.1753  0.0745
 8464W        W10614  13.282   0.897  18.405 -0.0924 -0.3239  0.0285
 8465W        W10615  22.633   0.875  11.716 -0.3192  0.1437  0.0525
 8466W        W10616  17.327   6.487  24.556 -0.0729  0.1138  0.1967
 8467W        W10617  19.839   6.107   3.557 -0.2131 -0.0215 -0.0385
 8468W        W10618  17.050   2.993   1.923 -0.0801  0.1546 -0.3551
 8469W        W10619  15.437   1.745   1.444  0.0124 -0.1135 -0.0701
 8470W        W10620  12.221   7.182   3.663  0.1321  0.4520 -0.0286
 8471W        W10621  22.191   4.265  31.358 -0.1093 -0.0701  0.1436
 8472W        W10622  15.922   4.776  22.722  0.1596 -0.4160  0.2039
 8473W        W10623  11.545   5.033  31.309 -0.2304 -0.1306 -0.2674
 8474W        W10624  18.797   4.624  19.462  0.0339 -0.1785 -0.1031
 8475W        W10625  17.994   1.640   0.710  0.1045  0.1453  0.1468
 8476W        W10626  16.598   2.723  27.024  0.0796 -0.0142 -0.0299
 8477W        W10627   3.797   0.283  16.770 -0.0768 -0.1459  0.2413
 8478W        W10628   7.488   2.005  10.957  0.0315  0.1512  0.1398
 8479W        W10629  21.014   1.803   2.476 -0.0078 -0.1281 -0.2098
 8480W        W10630  14.446   7.609   0.333 -0.2546 -0.0887  0.0064
 8481W        W10631   6.561   3.039  25.300 -0.2182 -0.3697  0.0112
 8482W        W10632  16.002   2.707   3.371  0.1398 -0.1305 -0.3114
 8483W        W10633  22.041   7.461  19.937  0.0900 -0.2022 -0.3197
 8484W        W10634  22.926   3.367   0.755 -0.1065 -0.0863 -0.1389
 8485W        W10635  18.615   3.285   3.303 -0.0617 -0.0731  0.3470
 8486W        W10636   8.080   7.094  29.930 -0.1188 -0.0858 -0.1826
 8487W        W10637   4.675   1.821  32.011  0.2863  0.2951 -0.0732
 8488W        W10638  16.904   4.185  32.015 -0.4314 -0.1803 -0.1642
 8489W        W10639  22.562   5.658  32.460  0.0825  0.0634 -0.2670
 8490W        W10640  17.038   1.277   5.893 -0.0953 -0.1096  0.2384
 8491W        W10641  12.753   3.563  30.480  0.0184  0.1032  0.0506
 8492W        W10642   7.312   0.553  21.994  0.2333  0.1134 -0.1480
 8493W        W10643  22.257   4.597  19.727  0.0489 -0.2829  0.0163
 8494W        W10644   0.256   5.269  10.580  0.0474  0.0530 -0.2535
 8495W        W10645  19.152   0.114  23.691 -0.1663  0.0471 -0.3069
 8496W        W10646  15.709   3.404  29.308 -0.6162  0.0497  0.1723
 8497W        W10647   1.100   7.692  15.711  0.0446  0.2921 -0.1578
 8498W        W10648  18.167   4.689  16.533  0.0811 -0.2015  0.0656
 8499W        W10649  10.128   6.868  29.814 -0.0631 -0.1640  0.1558
 8500W        W10650  10.963   6.137   5.192 -0.2858  0.0509  0.0660
 8501W        W10651  24.432   0.889  10.355 -0.4287 -0.0532 -0.1621
 8502W        W10652  24.907   4.436  30.252  0.2141 -0.0740  0.0780
 8503W        W10653  21.089   2.144   1.993 -0.0018 -0.0442 -0.0060
 8504W        W10654   9.443   2.461  24.744 -0.2180  0.0943 -0.0330
 8505W        W10655  16.387   4.656  25.353 -0.3380 -0.0951 -0.1008
 8506W        W10656  19.468   2.360   4.002 -0.3042  0.2456  0.2212
 8507W        W10657  11.031   1.370  28.121  0.1908 -0.1392  0.0905
 8508W        W10658  20.524   7.797  23.845  0.1528 -0.3708  0.2638
 8509W        W10659  17.169   5.852  30.644  0.1054  0.1335 -0.0986
 8510W        W10660  18.239   3.224  21.970 -0.0054  0.0108 -0.0029
 8511W        W10661   3.404   7.607  17.198  0.0192 -0.0957  0.2257
 8512W        W10662  17.346   1.409  19.534  0.1871 -0.2567 -0.2850
 8513W        W10663   9.410   4.098   3.437  0.2066  0.3066 -0.1960
 8514W        W10664   4.669   1.521  32.475 -0.1819  0.0359  0.4195
 8515W        W10665  21.925   3.496   1.729  0.1814  0.0009  0.1065
 8516W        W10666  20.236   1.026  22.382  0.1427  0.0011  0.0794
 8517W        W10667  16.735   3.871   9.597 -0.1165  0.3733  0.1885
 8518W        W10668  19.826   7.411   1.356 -0.0238  0.1807  0.0357
 8519W        W10669  22.433   3.766  25.817 -0.1169  0.1194  0.1742
 8520W        W10670  19.333   4.636   4.808  0.0692  0.0262  0.1024
 8521W        W10671   6.916   0.590  12.639 -0.3397  0.0890  0.0545
 8522W        W10672  22.783   1.095   1.444  0.0921  0.2256 -0.0219
 8523W        W10673   9.331   2.053  30.844 -0.0993  0.3711  0.2131
 8524W        W10674   9.055   4.131  14.683  0.3514 -0.1313  0.0842
 8525W        W10675  15.619   6.592  30.609 -0.0618 -0.0315 -0.1625
 8526W        W10676   2.223   0.391   9.631 -0.1624  0.0925  0.0071
 8527W        W10677   5.222   6.581  27.073 -0.1983  0.3375 -0.0396
 8528W        W10678  16.913   0.252  30.706 -0.4587  0.1662 -0.0977
 8529W        W10679  13.542   1.916  23.400  0.1555  0.2451  0.0377
 8530W        W10680   3.909   5.372  11.959 -0.1591 -0.0776  0.0116
 8531W        W10681  18.879   0.743  31.864 -0.0111 -0.1783 -0.3682
 8532W        W10682   9.005   2.559  28.239 -0.1640 -0.1073 -0.2555
 8533W        W10683  22.402   2.645  31.462  0.0537  0.4682  0.3329
 8534W        W10684   5.886   4.587  26.903 -0.1185 -0.0327 -0.5445
 8535W        W10685  11.096   2.223   4.722  0.1642 -0.0447 -0.0150
 8536W        W10686  24.726   7.359  24.593 -0.0733 -0.1612 -0.1177
 8537W        W10687   5.446   7.005  10.879 -0.1050 -0.2489  0.1293
 8538W        W10688  10.954   0.271  31.979 -0.1459 -0.1402  0.3105
 8539W        W10689  15.305   3.066  16.351  0.2715 -0.1480  0.1712
 8540W        W10690  23.153   4.283  32.225 -0.1260 -0.3997 -0.3625
 8541W        W10691  12.235   3.609   7.753 -0.0133  0.0319 -0.0016
 8542W        W10692  14.345   2.285   1.227  0.0024  0.2784 -0.0657
 8543W        W10693   5.161   1.379  32.443 -0.1275 -0.0174  0.1043
 8544W        W10694   2.055   1.323  32.935 -0.1678 -0.0860  0.0586
 8545W        W10695   7.720   2.162  12.403 -0.0108 -0.1145  0.3551
 8546W        W10696  17.295   6.192   0.073 -0.2608 -0.0507  0.1593
 8547W        W10697  22.536   6.760  32.756  0.0380  0.3827  0.1584
 8548W        W10698  10.834   3.902   7.609 -0.1095 -0.2553  0.1498
 8549W        W10699   3.380   5.866  26.125 -0.1296 -0.3083 -0.1373
 8550W        W10700  22.834   4.160  14.491 -0.0618 -0.0044 -0.0096
 8551W        W10701   7.513   4.358  26.454 -0.1774  0.4746 -0.0811
 8552W        W10702  13.498   3.664  31.647  0.0582  0.0721 -0.6121
 8553W        W10703  19.514   3.149  16.751  0.0779 -0.0301  0.2351
 8554W        W10704  11.744   4.125  25.758 -0.0301 -0.3605  0.1616
 8555W        W10705   9.787   5.619  14.204 -0.1997 -0.0204 -0.0337
 8556W        W10706  11.630   5.888  24.118  0.1262  0.1472  0.3655
 8557W        W10707  15.065   7.304   9.468 -0.1413 -0.1250 -0.2075
 8558W        W10708  14.514   7.478  18.881 -0.2278 -0.1792  0.2733
 8559W        W10709   0.609   7.105  16.303  0.0187  0.2522  0.0831
 8560W        W10710   0.042   5.383  24.965  0.1439 -0.0804  0.1386
 8561W        W10711  19.588   7.207  23.249  0.0541  0.1691 -0.2036
 8562W        W10712  20.021   0.623   4.790  0.2809 -0.1918 -0.3232
 8563W        W10713  23.627   6.418  14.803 -0.0103 -0.1590  0.0920
 8564W        W10714   9.735   2.772   4.770 -0.0946  0.1573  0.3538
 8565W        W10715   5.402   2.665  26.008 -0.0410  0.1421 -0.1952
 8566W        W10716  14.634   0.911   5.956  0.4981  0.0198 -0.0292
 8567W        W10717  18.595   4.849  29.197 -0.0316 -0.1814 -0.0524
 8568W        W10718   8.592   4.006  31.472 -0.2542  0.2661 -0.1341
 8569W        W10719  23.326   4.146   7.870 -0.2486  0.2589 -0.0140
 8570W        W10720  16.264   2.492  32.671  0.3342 -0.1780  0.1637
 8571W        W10721  24.898   0.051   3.641  0.1784 -0.3257 -0.1437
 8572W        W10722   8.658   0.936  32.800  0.2317  0.1067  0.5923
 8573W        W10723   9.122   0.505  22.058 -0.2204 -0.1294  0.0164
 8574W        W10724  17.182   2.079  30.704  0.1378 -0.0666 -0.5500
 8575W        W10725   5.287   4.733  26.232  0.1468 -0.0768 -0.1368
 8576W        W10726  10.226   3.634   5.432  0.1015  0.0704  0.0224
 8577W        W10727  16.369   3.089  32.094  0.1123  0.1316  0.0507
 8578W        W10728  18.350   6.716  23.764  0.1668  0.1705 -0.1381
 8579W        W10729  19.123   3.525  10.231 -0.1046 -0.0611  0.0467
 8580W        W10730   8.742   0.378   0.137 -0.3224 -0.0481 -0.0854
 8581W        W10731  17.535   2.466   1.413  0.1914 -0.0547 -0.2209
 8582W        W10732   2.463   6.550  28.300 -0.0228 -0.0926  0.1802
 8583W        W10733  19.773   3.753  18.847 -0.0787 -0.0334 -0.1437
 8584W        W10734   2.673   0.762  16.984 -0.2383  0.0772  0.0003
 8585W        W10735  19.673   4.140  22.777 -0.1977 -0.0470  0.3211
 8586W        W10736   8.105   6.878   7.217  0.0725  0.1362  0.0109
 8587W        W10737  23.423   6.295  14.360  0.0713  0.1611 -0.0583
 8588W        W10738  17.512   2.361  24.059  0.2175 -0.1789  0.1252
 8589W        W10739  11.984   3.592  21.438  0.0768 -0.1003 -0.2316
 8590W        W10740  22.205   7.279  12.669 -0.2757 -0.1119  0.1235
 8591W        W10741  20.111   0.563  32.218  0.1083 -0.2371  0.0501
 8592W        W10742   8.385   6.820   4.220 -0.0228  0.0550  0.2730
 8593W        W10743  24.555   7.280  12.972  0.2035  0.0932 -0.0631
 8594W        W10744   0.458   4.314  13.542  0.0210 -0.0477  0.2882
 8595W        W10745   6.773   3.431  22.634 -0.0422 -0.3095 -0.1498
 8596W        W10746   5.404   5.263   9.988  0.0739 -0.0991 -0.0493
 8597W        W10747   9.785   0.588   7.894  0.1348  0.0461  0.3377
 8598W        W10748   0.784   1.242   0.596 -0.1108 -0.0021 -0.1389
 8599W        W10749  18.766   4.438  25.025  0.1065 -0.0956  0.5111
 8600W        W10750   4.626   0.617   4.593  0.0741  0.0458  0.1881
 8601W        W10751  22.076   7.541  21.274 -0.0466 -0.0349  0.2607
 8602W        W10752   8.351   6.748  31.168 -0.0770 -0.3044 -0.0321
 8603W        W10753   2.492   6.222  30.342 -0.0668 -0.1852  0.1990
 8604W        W10754  15.623   6.067  21.582  0.3395 -0.0733 -0.1241
 8605W        W10755  14.295   5.642  29.982  0.1081  0.4570  0.2069
 8606W        W10756   4.157   3.186  13.042  0.1473  0.0531  0.0690
 8607W        W10757  21.082   4.821  30.131 -0.0284  0.2839  0.1424
 8608W        W10758  21.671   5.418  26.537 -0.2508  0.2314  0.0384
 8609W        W10759  14.439   5.090  23.895 -0.0676 -0.0065 -0.0322
 8610W        W10760   4.016   6.248  25.372 -0.2410  0.1474 -0.0893
 8611W        W10761   4.298   3.811  32.143 -0.1283 -0.2178  0.1693
 8612W        W10762  17.988   6.356   0.006  0.2762 -0.2228  0.0430
 8613W        W10763  12.400   6.310  28.520  0.0108 -0.2143  0.1057
 8614W        W10764   5.725   3.292  13.328  0.1511  0.0835 -0.0797
 8615W        W10765   6.605   4.043   3.021  0.0872 -0.1459 -0.1520
 8616W        W10766  14.168   1.872  19.878 -0.0064 -0.0032  0.3729
 8617W        W10767  24.189   5.513   4.882 -0.0745 -0.0158  0.1577
 8618W        W10768   0.186   7.367  32.670  0.0139  0.0696 -0.1212
 8619W        W10769   9.836   4.901   4.110 -0.2000  0.1931 -0.0624
 8620W        W10770  10.279   0.020  23.972 -0.0415  0.0735  0.0173
 8621W        W10771   0.553   5.438   1.978  0.2576  0.2300 -0.1241
 8622W        W10772  15.554   7.772  22.397 -0.2820 -0.0154  0.0674
 8623W        W10773   4.210   7.665   3.153  0.3191 -0.0989  0.3131
 8624W        W10774   5.025   2.258  22.319 -0.2303 -0.1160  0.1895
 8625W        W10775  16.570   1.177  24.905  0.1445 -0.3630 -0.3627
 8626W        W10776  22.565   6.005   8.674  0.1052 -0.0499  0.1622
 8627W        W10777  19.732   1.000  19.716 -0.2192 -0.1252  0.1508
 8628W        W10778   5.778   5.401  24.732  0.0054 -0.0528  0.1239
 8629W        W10779   6.939   5.895  26.634  0.0202  0.1774  0.1446
 8630W        W10780   9.993   7.637   5.927 -0.2806  0.2156 -0.3640
 8631W        W10781  10.054   4.997  23.480 -0.2856  0.0596  0.1354
 8632W        W10782  15.227   2.064  31.973  0.2262  0.0860 -0.0502
 8633W        W10783   4.802   5.430   9.131  0.0307  0.1641  0.2422
 8634W        W10784  16.597   2.273  32.957  0.0081  0.3686  0.2136
 8635W        W10785  24.878   1.119  24.289  0.0883  0.1215 -0.2168
 8636W        W10786  24.949   4.476   8.096  0.2945  0.4854 -0.0709
 8637W        W10787  12.507   2.151   1.698  0.2293 -0.1233 -0.0098
 8638W        W10788   7.977   4.671   7.088  0.1110 -0.0431  0.2078
 8639W        W10789  15.619   4.332  14.983  0.1469 -0.0882  0.0633
 8640W        W10790   1.058   4.091  28.761 -0.2125 -0.1512  0.1719
 8641W        W10791  17.369   6.543  23.964  0.2055  0.1489  0.1116
 8642W        W10792  11.204   3.798   2.227 -0.0878 -0.0814 -0.0793
 8643W        W10793  14.175   2.498  18.010  0.0978  0.0569  0.1562
 8644W        W10794   8.846   5.914  25.539  0.3559 -0.1869 -0.0460
 8645W        W10795  10.486   5.213  28.155 -0.1547 -0.2010 -0.1387
 8646W        W10796   6.719   2.855  17.209  0.3852 -0.2806 -0.1660
 8647W        W10797  14.937   0.873  17.954 -0.2034  0.0841 -0.1672
 8648W        W10798   5.784   4.891   1.912  0.1124  0.0279 -0.0595
 8649W        W10799  16.631   6.307  27.849  0.2100  0.1914  0.0337
 8650W        W10800  16.269   2.148  16.635 -0.1219  0.0788  0.0072
 8651W        W10801  18.536   3.104   8.754  0.0688 -0.2366 -0.2359
 8652W        W10802   0.079   1.018   7.587  0.0622 -0.0038  0.0038
 8653W        W10803   0.641   2.880   8.621  0.1279 -0.1625  0.1581
 8654W        W10804  15.133   0.413  31.793  0.0864  0.0578  0.0640
 8655W        W10805   3.903   4.417  24.650 -0.0190 -0.2315 -0.0280
 8656W        W10806  10.674   5.079   3.288  0.2766  0.1405 -0.4961
 8657W        W10807   7.578   1.780  13.333 -0.0047 -0.1462 -0.1556
 8658W        W10808   7.336   2.961  30.734  0.2355 -0.3238 -0.0440
 8659W        W10809   1.548   5.531   1.016  0.1973  0.0640 -0.0376
 8660W        W10810   9.380   6.920   4.992  0.2970 -0.1429  0.0025
 8661W        W10811   4.375   4.424  16.576 -0.0906  0.2248 -0.1634
 8662W        W10812  22.578   0.818   8.097 -0.0317 -0.2062  0.0035
 8663W        W10813   3.566   5.231  11.163  0.2212 -0.0709  0.0138
 8664W        W10814  16.064   2.228  17.570 -0.2731 -0.2153  0.0316
 8665W        W10815   8.446   1.611  21.917  0.3079 -0.2428  0.0524
 8666W        W10816  18.741   4.707   8.693  0.2051 -0.0714  0.0128
 8667W        W10817   6.482   6.693   8.498  0.1794  0.1296  0.0370
 8668W        W10818   3.210   7.772  11.968  0.2204  0.0271  0.0460
 8669W        W10819  10.007   3.560  31.242  0.1037  0.2546  0.2113
 8670W        W10820   8.271   5.007   8.195 -0.2479 -0.0926 -0.0918
 8671W        W10821   4.372   5.688  28.261 -0.1803  0.0279  0.0858
 8672W        W10822  18.616   6.317  32.274  0.0007 -0.0215 -0.1155
 8673W        W10823  18.103   1.450  17.843 -0.1704 -0.0114  0.3219
 8674W        W10824  11.921   1.093   1.340  0.0865  0.0387 -0.0424
 8675W        W10825  18.820   6.608   0.389 -0.0111 -0.0041  0.1370
 8676W        W10826  22.377   5.356  10.615 -0.0964  0.0540 -0.1087
 8677W        W10827  11.723   5.887   1.642 -0.2920 -0.1497 -0.3538
 8678W        W10828   6.969   7.058  25.123  0.0052 -0.0163 -0.2387
 8679W        W10829   0.948   7.361  13.134  0.0963 -0.0056 -0.1868
 8680W        W10830   3.283   2.437  17.123 -0.0033  0.1864  0.0825
 8681W        W10831  14.352   0.218   0.650 -0.2535  0.2194  0.1727
 8682W        W10832  12.679   2.161  31.331 -0.1058 -0.1846 -0.1976
 8683W        W10833   7.427   3.571  17.145 -0.0783  0.1221  0.4039
 8684W        W10834  20.285   0.738  30.577 -0.0621  0.0805 -0.2259
 8685W        W10835   9.427   0.296   5.045  0.0120 -0.1956 -0.1695
 8686W        W10836   8.540   5.905   7.094  0.0302  0.0896 -0.0186
 8687W        W10837  10.191   3.583   2.333  0.1509  0.2851  0.0710
 8688W        W10838  19.546   4.654   0.954  0.0429  0.3033 -0.0577
 8689W        W10839   2.119   1.208   1.970  0.3282  0.0113  0.2095
 8690W        W10840   5.078   1.566   1.427  0.1185  0.0528 -0.1839
 8691W        W10841   3.432   7.294  26.638  0.0237  0.1514  0.0813
 8692W        W10842   4.986   4.002  28.229 -0.0047 -0.0750  0.0467
 8693W        W10843  20.553   3.345   6.990  0.1646 -0.3240 -0.3274
 8694W        W10844  19.990   0.045  20.634  0.3616  0.1939  0.1059
 8695W        W10845   8.285   0.104  28.095 -0.1431  0.0836 -0.0530
 8696W        W10846  19.900   7.267  25.504 -0.3423 -0.1939 -0.1024
 8697W        W10847   4.381   7.712  16.183  0.0442 -0.0182  0.1511
 8698W        W10848   8.344   7.070   1.879 -0.1048  0.0661  0.0836
 8699W        W10849  20.048   3.086  27.205  0.0802  0.3695 -0.2059
 8700W        W10850   1.832   2.284  31.714  0.0702  0.1151 -0.1284
 8701W        W10851   7.890   5.421   6.139  0.0551 -0.0026 -0.0035
 8702W        W10852  24.236   6.456   0.036 -0.1612  0.4050  0.0353
 8703W        W10853  24.047   1.412  23.348 -0.1025  0.2315 -0.0645
 8704W        W10854  20.286   6.561  19.140 -0.3903 -0.0174  0.0104
 8705W        W10855  16.672   6.026  26.858  0.0743 -0.2075 -0.3054
 8706W        W10856   5.383   1.921  16.109 -0.1007  0.2472  0.0097
 8707W        W10857  23.961   2.292  32.314  0.1266 -0.2577 -0.1386
 8708W        W10858  16.994   6.907   1.362 -0.1953 -0.0876  0.1452
 8709W        W10859  16.059   2.775   5.287  0.1443 -0.3324 -0.1515
 8710W        W10860  18.236   7.283  25.503 -0.1402 -0.0650 -0.0818
 8711W        W10861  24.873   1.605  11.184 -0.0293  0.0591  0.0033
 8712W        W10862   8.417   3.558  13.954 -0.2473 -0.6409 -0.1706
 8713W        W10863   6.569   1.561  26.558  0.4212  0.0008 -0.1317
 8714W        W10864   0.107   0.902  23.587  0.1251 -0.4258 -0.0600
 8715W        W10865  14.435   2.575  21.623  0.1033 -0.0612 -0.0748
 8716W        W10866   2.302   0.461  30.557  0.0347  0.0819 -0.1002
 8717W        W10867   4.200   6.897  28.541 -0.0150  0.2174 -0.1316
 8718W        W10868   7.512   3.437  23.454 -0.0825 -0.0437 -0.0793
 8719W        W10869   1.414   5.320   8.480  0.2256  0.3503 -0.0805
 8720W        W10870  11.511   7.763   6.661  0.0146 -0.1258  0.0530
 8721W        W10871   0.344   6.364  28.605 -0.0665  0.1947  0.1824
 8722W        W10872  18.606   0.037  20.398  0.0321 -0.4481 -0.1747
 8723W        W10873   6.709   5.949   8.733 -0.0608  0.0300 -0.0210
 8724W        W10874  13.332   1.680   6.657 -0.2195 -0.2977 -0.2722
 8725W        W10875   4.769   6.145   0.484  0.1345  0.1734  0.0309
 8726W        W10876   5.087   1.361   2.930 -0.1053 -0.2148  0.0118
 8727W        W10877  10.151   2.175  12.506 -0.0322 -0.1769 -0.1886
 8728W        W10878  20.706   7.518  19.413  0.2214 -0.1074  0.2527
 8729W        W10879   8.146   1.160  14.999  0.4693  0.0855 -0.0562
 8730W        W10880  20.189   4.031  24.543 -0.0196  0.2341 -0.1119
 8731W        W10881  10.966   5.811  31.374 -0.0297  0.0482 -0.0154
 8732W        W10882  19.983   1.496  10.559  0.0071  0.0425  0.0301
 8733W        W10883   6.949   7.263  13.816 -0.0333  0.1102  0.0857
 8734W        W10884  12.395   0.211  18.801 -0.1152  0.1568 -0.1909
 8735W        W10885   7.892   3.047  29.462 -0.2781 -0.0921  0.0634
 8736W        W10886  18.235   0.099  31.310 -0.1764  0.3061 -0.1089
 8737W        W10887  15.660   3.511  32.025 -0.1368 -0.0904  0.2128
 8738W        W10888  18.514   2.115  31.714  0.1578  0.3104  0.1901
 8739W        W10889   0.013   0.523   3.942 -0.1276  0.0232  0.2721
 8740W        W10890  14.451   5.907   6.337  0.0065  0.4175 -0.4355
 8741W        W10891  16.921   1.101  16.974  0.1705  0.0156 -0.2411
 8742W        W10892   6.171   1.986  28.075 -0.1839 -0.2612  0.1163
 8743W        W10893   8.946   6.674  13.954 -0.2439 -0.1175  0.0862
 8744W        W10894  15.031   4.995   5.727  0.1650  0.2441 -0.0652
 8745W        W10895  18.910   2.799   8.663 -0.0664 -0.0405  0.0478
 8746W        W10896  22.448   7.030  26.125 -0.2024 -0.2121 -0.2214
 8747W        W10897   2.208   6.207  15.811  0.0432 -0.0227  0.0498
 8748W        W10898  14.791   2.569   2.614  0.1371  0.0419 -0.1982
 8749W        W10899  22.124   2.360  27.553 -0.1377 -0.0737  0.0562
 8750W        W10900   4.079   4.080   4.523  0.1943  0.4096 -0.3118
 8751W        W10901   4.863   6.261  33.017 -0.0198 -0.0033  0.0429
 8752W        W10902   3.777   1.113  22.693  0.1192 -0.1466 -0.1231
 8753W        W10903  10.955   7.464   0.624  0.2976  0.2386 -0.0482
 8754W        W10904  15.369   2.117   0.265  0.1398 -0.3243  0.1502
 8755W        W10905   6.279   7.200  22.729  0.3311  0.2727 -0.0116
 8756W        W10906  22.592   0.798   9.091  0.2491  0.1642 -0.0061
 8757W        W10907  15.273   4.188   0.734 -0.0238  0.0902 -0.0001
 8758W        W10908  24.693   6.946   5.546 -0.0600  0.1706 -0.0460
 8759W        W10909  22.118   2.272  28.809  0.2183  0.3406 -0.4339
 8760W        W10910  18.604   5.520   5.320 -0.1153  0.0737 -0.3660
 8761W        W10911  14.579   0.174   6.789 -0.1443  0.2161 -0.0036
 8762W        W10912  20.327   1.752  30.099 -0.0249 -0.1005 -0.0676
 8763W        W10913  23.809   3.809  30.039 -0.1722 -0.0280 -0.1124
 8764W        W10914   5.528   7.196  31.133 -0.0712 -0.3430  0.1132
 8765W        W10915   7.645   5.773   1.877  0.2802 -0.1496  0.1610
 8766W        W10916  24.359   1.912  32.194 -0.2530 -0.0757 -0.1533
 8767W        W10917  11.860   6.482  21.979 -0.1805  0.1641  0.1183
 8768W        W10918  16.323   5.576  25.197  0.0513 -0.0271  0.3136
 8769W        W10919  16.089   7.656  32.985  0.0857 -0.2865  0.1445
 8770W        W10920   7.329   2.269  29.777 -0.1799 -0.5208  0.1101
 8771W        W10921  17.330   2.774  10.067  0.1466 -0.2811  0.1074
 8772W        W10922  13.160   1.348  17.745  0.2413 -0.3463  0.0756
 8773W        W10923  11.621   7.398  21.922  0.0202 -0.1657  0.0468
 8774W        W10924  12.151   7.350  28.665 -0.1102  0.2806  0.0359
 8775W        W10925   1.038   7.231  14.317 -0.0363 -0.0229  0.1791
 8776W        W10926   3.148   6.784  23.292  0.2511 -0.1439  0.1232
 8777W        W10927  10.496   3.352  29.584 -0.3522  0.0488  0.2169
 8778W        W10928  14.622   2.556  29.363 -0.1198 -0.0050  0.0743
 8779W        W10929   3.254   7.114  15.748 -0.0559 -0.1719 -0.1880
 8780W        W10930   9.444   0.522  26.212 -0.3732 -0.1194 -0.0269
 8781W        W10931   1.322   1.345   4.497 -0.1354 -0.2694 -0.2620
 8782W        W10932   0.287   7.358  21.621  0.3347 -0.4325  0.1052
 8783W        W10933   8.869   4.027  26.953 -0.0135  0.2456  0.3192
 8784W        W10934   7.596   1.329  24.607 -0.2822  0.0084 -0.2104
 8785W        W10935   3.093   5.794   2.667  0.0612 -0.2494  0.1225
 8786W        W10936   9.363   0.321  29.271  0.0594  0.0472 -0.0316
 8787W        W10937  24.678   7.708  14.858  0.1630 -0.0481 -0.2976
 8788W        W10938  17.012   2.839  18.384 -0.1158  0.2380  0.1122
 8789W        W10939   3.638   6.057  17.284  0.0899 -0.0122  0.0260
 8790W        W10940   0.274   6.374  26.925  0.0104  0.4580  0.1589
 8791W        W10941  22.575   2.638   1.867  0.0972  0.0834  0.3069
 8792W        W10942   4.081   2.483   0.964  0.0239  0.1215 -0.2012
 8793W        W10943  21.433   1.366  10.396 -0.0142 -0.1601 -0.0511
 8794W        W10944  18.726   0.300   8.089  0.0627 -0.0453  0.0037
 8795W        W10945  22.190   4.275   5.909  0.3537 -0.2718  0.2004
 8796W        W10946   2.309   7.166   5.116  0.0497  0.0501 -0.0133
 8797W        W10947   8.392   6.216   0.304 -0.5221  0.4195 -0.2027
 8798W        W10948  13.415   7.343  23.983 -0.1024 -0.2020 -0.1450
 8799W        W10949  22.796   6.071  29.810  0.2134  0.0686 -0.3827
 8800W        W10950  11.664   3.855   4.410  0.1032  0.0238  0.1738
 8801W        W10951   8.282   0.647  21.962  0.3016 -0.3452  0.0290
 8802W        W10952  21.096   7.409   4.135 -0.0159  0.2386 -0.1844
 8803W        W10953   5.598   6.357  28.573  0.2054  0.3018 -0.0309
 8804W        W10954  11.327   3.230  21.853 -0.0175  0.1110  0.2113
 8805W        W10955  18.487   2.316  30.155  0.0743 -0.0025 -0.0706
 8806W        W10956  19.584   2.410   9.322 -0.3201 -0.0178  0.0102
 8807W        W10957  19.051   6.169  29.606 -0.2002 -0.1242  0.3264
 8808W        W10958  23.489   3.218  14.940 -0.0368  0.0522 -0.2383
 8809W        W10959  14.640   5.475  31.047 -0.0265  0.2264  0.2476
 8810W        W10960  14.765   0.908   7.913 -0.2714 -0.3133  0.0934
 8811W        W10961   0.025   1.105  23.040  0.0083  0.3100 -0.0512
 8812W        W10962   7.451   0.867   6.288 -0.1389 -0.0623 -0.0849
 8813W        W10963  16.780   5.410  22.958 -0.1537 -0.0372  0.3712
 8814W        W10964   7.663   4.777  23.908 -0.0299 -0.2061  0.0853
 8815W        W10965  10.863   4.152  11.415 -0.1628 -0.0114 -0.2425
 8816W        W10966  20.683   7.044  19.769 -0.2857  0.2780  0.1864
 8817W        W10967   7.926   6.328   3.627 -0.1564  0.1199 -0.1155
 8818W        W10968   1.326   1.858  27.008 -0.0656  0.0776  0.0981
 8819W        W10969  14.724   5.288  15.587 -0.0068 -0.1112  0.0588
 8820W        W10970  18.174   0.939   4.610 -0.0197 -0.0420 -0.2421
 8821W        W10971   0.038   2.158  31.831 -0.3719  0.1710  0.2208
 8822W        W10972   3.081   0.087  16.424  0.4482 -0.1046 -0.1873
 8823W        W10973  19.738   3.203   1.800  0.1069  0.0116 -0.0931
 8824W        W10974  15.671   3.347  15.306 -0.0776  0.2765 -0.3020
 8825W        W10975   9.206   0.124   6.181 -0.0800 -0.0864  0.0865
 8826W        W10976  15.170   0.058  22.780  0.1043 -0.1035  0.0948
 8827W        W10977  18.356   2.690  22.411  0.0777  0.1804 -0.2401
 8828W        W10978   2.539   2.917   6.084 -0.0289 -0.2459 -0.0077
 8829W        W10979   6.554   2.838   6.842 -0.1748  0.2595  0.1594
 8830W        W10980  21.518   3.012  32.570  0.0634 -0.2836  0.1692
 8831W        W10981  16.931   2.907  26.022  0.0909  0.2710  0.1439
 8832W        W10982  20.487   4.488  18.459 -0.0111 -0.1966  0.2530
 8833W        W10983  16.494   6.134   2.320 -0.0221  0.1046  0.1791
 8834W        W10984  19.133   2.705  17.313 -0.1299 -0.0494  0.1315
 8835W        W10985  19.448   2.402  26.865  0.3225 -0.0463 -0.0054
 8836W        W10986  12.628   1.487  18.466 -0.0281  0.0441 -0.2440
 8837W        W10987   0.075   0.119  21.369  0.0810 -0.3168  0.1816
 8838W        W10988  19.291   4.630  16.354  0.1237  0.0391 -0.0005
 8839W        W10989  15.306   1.728  25.862  0.0154  0.1328  0.1449
 8840W        W10990  14.449   3.230   2.161  0.1300 -0.2206 -0.1519
 8841W        W10991  19.874   0.644  28.243  0.1040 -0.5667 -0.3449
 8842W        W10992  22.868   4.430  26.784  0.0716  0.0023  0.2195
 8843W        W10993  20.467   6.217  32.848 -0.0003 -0.1256 -0.0245
 8844W        W10994  23.238   4.021   2.206  0.0732 -0.0142  0.0533
 8845W        W10995  17.709   3.839  31.354 -0.1665 -0.2852 -0.1440
 8846W        W10996   6.015   4.147  17.174 -0.0717  0.3836  0.1401
 8847W        W10997   3.719   4.141   6.541 -0.0419 -0.1344 -0.0936
 8848W        W10998  11.777   6.384  22.831 -0.3095  0.0268 -0.5263
 8849W        W10999  17.577   6.363  28.945  0.0213 -0.0425  0.0291
 8850W        W11000   6.527   5.213  29.541 -0.3745 -0.1095  0.1453
 8851W        W11001  23.563   3.034  24.678 -0.0229 -0.1283  0.1517
 8852W        W11002   2.687   1.400   7.358  0.1243  0.3069 -0.2927
 8853W        W11003   7.818   2.290   6.303  0.3793 -0.2362  0.0440
 8854W        W11004  22.332   3.555   6.652 -0.2536  0.0433 -0.1327
 8855W        W11005  18.458   5.911  23.098 -0.0962 -0.0931 -0.1844
 8856W        W11006  13.609   1.142  26.572 -0.0623 -0.0849 -0.0399
 8857W        W11007  10.203   0.420  20.967  0.0756  0.0911 -0.1119
 8858W        W11008  10.113   2.411   5.030  0.2898 -0.0643 -0.1032
 8859W        W11009  23.216   6.332  30.544 -0.0605 -0.1257  0.2068
 8860W        W11010   5.623   3.695   3.998 -0.1225 -0.1339 -0.0581
 8861W        W11011  19.340   4.583   8.695 -0.2129  0.0457 -0.0381
 8862W        W11012   2.779   2.334  29.227 -0.2667  0.0144 -0.0248
 8863W        W11013  18.492   3.129  28.666  0.0991  0.1681  0.0386
 8864W        W11014  15.481   2.586  31.775  0.1370  0.1523  0.1617
 8865W        W11015   8.492   0.997  24.695  0.0304 -0.0791  0.0694
 8866W        W11016  17.422   2.230   4.112  0.0783  0.0839 -0.1038
 8867W        W11017   0.546   1.319  24.675 -0.0452 -0.0812  0.0673
 8868W        W11018   5.769   7.785  18.239 -0.3627 -0.0820  0.0829
 8869W        W11019   1.191   3.403   0.963  0.0640 -0.0506  0.0915
 8870W        W11020   3.574   6.948   4.448  0.2261  0.1382  0.0758
 8871W        W11021  17.041   1.145   2.678  0.0558  0.0312  0.0464
 8872W        W11022  17.898   4.294   5.615  0.0724 -0.0203 -0.2386
 8873W        W11023   6.967   4.900  24.372  0.0697 -0.1641  0.2092
 8874W        W11024  10.649   7.602  22.715  0.1664  0.0926 -0.0219
 8875W        W11025  14.321   7.042   9.515 -0.3627 -0.0745  0.0269
 8876W        W11026  15.321   2.711  20.032  0.3714  0.0814  0.0689
 8877W        W11027   2.743   7.121  16.476 -0.1552 -0.3498  0.0093
 8878W        W11028   1.179   3.167  12.811 -0.0526  0.3207 -0.0095
 8879W        W11029  22.883   5.812   1.331 -0.0837 -0.1454 -0.0936
 8880W        W11030  17.397   6.993  27.383  0.5052 -0.0867  0.0920
 8881W        W11031  10.249   4.541  12.766 -0.1979 -0.1523  0.2015
 8882W        W11032  24.218   7.324  29.071 -0.0892  0.1712 -0.1783
 8883W        W11033  21.562   5.894  29.804 -0.1705 -0.2388 -0.0211
 8884W        W11034   3.310   6.280  13.684 -0.0772 -0.0650 -0.0428
 8885W        W11035  20.453   0.104  20.386 -0.0469  0.2972  0.0071
 8886W        W11036  18.342   4.954  10.593 -0.2263 -0.3862  0.0556
 8887W        W11037  22.868   1.205   9.609 -0.0752 -0.1408 -0.0664
 8888W        W11038  17.509   1.620   1.866  0.0242  0.1233  0.1691
 8889W        W11039  21.059   5.657  28.006  0.2126 -0.1802 -0.1109
 8890W        W11040  21.679   4.602  21.007 -0.2536  0.0242  0.2453
 8891W        W11041  20.846   6.039  16.850  0.1071  0.0836  0.2677
 8892W        W11042  15.199   0.753  21.441 -0.0113  0.3296  0.3162
 8893W        W11043   6.296   0.273   4.849  0.0790 -0.2015  0.0397
 8894W        W11044  23.207   1.764  23.627  0.0167  0.0066 -0.1201
 8895W        W11045  24.740   5.451  24.469  0.0264 -0.2134  0.1031
 8896W        W11046  18.827   3.680   6.263 -0.3162  0.3216  0.0753
 8897W        W11047  22.543   3.214  25.379  0.0797 -0.2314  0.1233
 8898W        W11048  22.807   0.932  29.503  0.0758  0.0670 -0.0455
 8899W        W11049   1.284   1.723   9.518  0.4451 -0.0413 -0.2823
 8900W        W11050  22.206   2.172   6.929 -0.0878  0.1508  0.0323
 8901W        W11051   3.821   7.220  31.915 -0.2681  0.0153 -0.3136
 8902W        W11052  19.112   4.265  31.749  0.0998 -0.0411  0.1332
 8903W        W11053   7.664   3.376  13.441  0.0607  0.0959  0.1985
 8904W        W11054   8.837   3.820  31.992  0.0030  0.0409  0.1262
 8905W        W11055   2.661   6.959  27.270 -0.1196  0.0255 -0.0392
 8906W        W11056  24.946   4.513  27.680  0.0719 -0.0048  0.0230
 8907W        W11057  13.775   1.422   9.717 -0.3122 -0.3786  0.0862
 8908W        W11058  23.095   4.979   4.090 -0.1532  0.4054 -0.1166
 8909W        W11059   4.661   7.243  31.986 -0.0681  0.3117  0.0281
 8910W        W11060  13.227   5.969   4.261 -0.2798 -0.1203 -0.0896
 8911W        W11061  13.095   6.230  19.012 -0.0316  0.0844  0.3913
 8912W        W11062  22.761   7.032  29.666  0.1690 -0.1352  0.0851
 8913W        W11063   1.623   5.328  24.751  0.4082  0.1483 -0.1735
 8914W        W11064  24.487   2.356  13.170  0.1648  0.0888 -0.0198
 8915W        W11065   6.945   7.106  23.247  0.2655 -0.0918 -0.0034
 8916W        W11066   1.489   4.817  14.893 -0.1138  0.2138  0.2435
 8917W        W11067  17.445   4.988  21.329  0.0505 -0.1176  0.1470
 8918W        W11068  11.294   6.107  19.042 -0.0179 -0.1567 -0.2516
 8919W        W11069   3.001   3.193  15.164 -0.2280  0.2468 -0.0473
 8920W        W11070  18.977   3.829   4.682 -0.0420  0.0976 -0.0113
 8921W        W11071   1.571   4.532  28.159 -0.0942 -0.1508 -0.0298
 8922W        W11072  10.964   0.540   6.518 -0.0900 -0.0098 -0.2576
 8923W        W11073   5.365   2.402  32.050 -0.1406 -0.0460 -0.1047
 8924W        W11074  19.780   6.903  26.843  0.0471 -0.1515 -0.2827
 8925W        W11075  21.843   2.922  21.743 -0.0183 -0.1832  0.0178
 8926W        W11076  22.127   3.524   0.170  0.0498  0.0340 -0.0292
 8927W        W11077  11.244   5.201  30.876  0.0021  0.0371  0.3811
 8928W        W11078  21.657   0.940  12.822  0.1809  0.0015  0.2097
 8929W        W11079   1.176   3.358  14.586  0.0075 -0.1085 -0.2123
 8930W        W11080   3.428   7.032  27.616  0.1057  0.0297  0.1665
 8931W        W11081  21.926   3.767  24.757  0.0358  0.2998 -0.4493
 8932W        W11082  23.091   0.287   5.811  0.1447  0.3508 -0.0071
 8933W        W11083  15.972   2.920  22.063  0.4351  0.1142  0.0496
 8934W        W11084  19.813   2.488  23.945  0.1617  0.0254  0.1560
 8935W        W11085  17.206   7.749  17.113  0.1273  0.1394 -0.0230
 8936W        W11086   2.668   5.244  16.841 -0.1407  0.0919  0.2425
 8937W        W11087  21.411   6.449   1.838 -0.1006 -0.0642  0.2088
 8938W        W11088  16.884   3.044   3.950 -0.0815  0.0889  0.0336
 8939W        W11089  15.910   0.063  26.410 -0.1406  0.2010 -0.3114
 8940W        W11090   5.974   6.388   6.811 -0.0753 -0.2026  0.1254
 8941W        W11091  10.355   6.980  27.160  0.1457  0.1039 -0.1596
 8942W        W11092   3.134   6.604  30.138  0.0244  0.2735  0.2195
 8943W        W11093   3.042   4.146  31.917  0.4660  0.3365  0.1950
 8944W        W11094  20.033   7.522  23.169 -0.0689  0.0562  0.0047
 8945W        W11095  19.615   1.582  19.273  0.4097  0.2693  0.1542
 8946W        W11096   7.859   1.044  14.289 -0.1122 -0.0070 -0.0875
 8947W        W11097  20.749   3.720  21.868  0.5171  0.2036  0.1006
 8948W        W11098  16.057   0.756  15.863  0.2998  0.0812  0.2534
 8949W        W11099   8.323   1.009  12.156 -0.2887 -0.1017 -0.1693
 8950W        W11100  23.384   1.071  24.555  0.0901 -0.0747  0.0372
 8951W        W11101   8.656   3.143  10.825  0.0635 -0.0775 -0.3217
 8952W        W11102   2.357   3.573  10.978 -0.0831 -0.0554  0.4155
 8953W        W11103   3.927   4.648   0.142  0.1791  0.2844  0.0922
 8954W        W11104  12.547   6.767  25.599  0.1170  0.0992  0.2186
 8955W        W11105  24.344   4.270  22.752  0.2270  0.0864  0.0136
 8956W        W11106   9.542   3.581  22.985 -0.1121 -0.1584 -0.0497
 8957W        W11107  17.752   2.770  17.939 -0.3432 -0.0815 -0.2093
 8958W        W11108  11.316   2.648  10.042 -0.2468 -0.2052  0.2755
 8959W        W11109   1.635   3.242   1.687  0.0616 -0.2336 -0.1643
 8960W        W11110   6.626   3.252  32.315  0.0548  0.0618  0.0024
 8961W        W11111   1.572   0.124  11.360  0.2430 -0.0994 -0.0180
 8962W        W11112  14.158   3.167  28.596 -0.1808  0.1315 -0.1767
 8963W        W11113  18.405   2.625   4.807  0.3956  0.3752  0.1074
 8964W        W11114   3.662   6.348  12.352  0.1160 -0.2933 -0.0825
 8965W        W11115  11.672   5.220   9.388  0.1121  0.1461 -0.0170
 8966W        W11116  21.423   1.209  32.416 -0.2008 -0.1109  0.0461
 8967W        W11117   1.770   3.218  27.319 -0.1516  0.2802 -0.0586
 8968W        W11118   3.486   5.987   2.905 -0.1859 -0.0750  0.0673
 8969W        W11119   1.416   6.411  16.965 -0.0669  0.1558 -0.1916
 8970W        W11120  11.663   1.769   3.265 -0.1342 -0.0852  0.3483
 8971W        W11121   9.188   1.442  31.657 -0.0726  0.2243 -0.0052
 8972W        W11122   1.127   6.128  11.236 -0.1432 -0.1605 -0.4119
 8973W        W11123  16.434   5.203  16.271 -0.3737 -0.2688  0.3351
 8974W        W11124  15.890   4.103   9.110  0.3389  0.1986 -0.0868
 8975W        W11125  13.989   1.832  24.246  0.0047  0.2239  0.1905
 8976W        W11126   7.101   7.608  32.962 -0.1635 -0.0944  0.2030
 8977W        W11127   2.778   2.495  31.952 -0.1858 -0.0754 -0.3376
 8978W        W11128  19.766   3.637   5.777 -0.0312  0.1317 -0.0570
 8979W        W11129  19.847   5.674  17.143  0.1446 -0.2070  0.0388
 8980W        W11130  23.027   6.105  29.263  0.0596 -0.0408 -0.2005
 8981W        W11131  24.809   3.460   7.351 -0.0035 -0.1151  0.1241
 8982W        W11132  14.669   6.612   2.604  0.1809  0.1170  0.1553
 8983W        W11133  17.080   5.661  22.093  0.0156 -0.3371 -0.1553
 8984W        W11134  12.116   7.372  30.791 -0.1465 -0.2514 -0.0065
 8985W        W11135  11.182   2.038  28.214  0.0587 -0.1342 -0.0380
 8986W        W11136  14.894   6.541  21.910 -0.1638  0.0922  0.0960
 8987W        W11137  13.754   3.703  25.507  0.0382  0.0772  0.1328
 8988W        W11138  18.090   2.484  20.549  0.2366  0.0170 -0.2823
 8989W        W11139  22.076   0.465  12.179 -0.1559 -0.4583  0.1469
 8990W        W11140  14.318   4.009   8.461 -0.0574 -0.0699 -0.0844
 8991W        W11141  18.696   5.195  22.353 -0.0813  0.0998  0.0773
 8992W        W11142  19.966   5.781  29.043 -0.0854 -0.0949 -0.1806
 8993W        W11143  19.673   7.270  31.657 -0.2429 -0.1060  0.3146
 8994W        W11144  22.714   7.496  12.577 -0.1214  0.1335 -0.0249
 8995W        W11145   2.878   7.526   9.696 -0.1084 -0.2272 -0.0425
 8996W        W11146  22.630   5.229  20.295 -0.1712 -0.0276 -0.0565
 8997W        W11147  13.517   6.957  31.746 -0.0757  0.2424 -0.0619
 8998W        W11148  11.080   0.007   3.445 -0.4727  0.4612  0.0266
 8999W        W11149   5.680   4.693  27.563  0.1646  0.1805 -0.0133
 9000W        W11150  14.987   3.138  19.875  0.2408  0.0011 -0.0687
 9001W        W11151   1.269   5.667   0.470  0.0075  0.0052 -0.0258
 9002W        W11152  21.088   4.433  26.861  0.0028  0.2664  0.1068
 9003W        W11153   7.467   1.425  25.456 -0.2762  0.2368  0.2960
 9004W        W11154  19.925   6.768  17.392  0.1783  0.0486 -0.1302
 9005W        W11155  17.928   1.003   6.394  0.0843  0.0686  0.1153
 9006W        W11156   4.716   0.028  26.675 -0.0680 -0.2077  0.1783
 9007W        W11157  10.452   3.184   7.712 -0.0831 -0.1058 -0.2274
 9008W        W11158   8.100   7.586  29.593  0.0319  0.0503 -0.1205
 9009W        W11159  15.771   7.372   2.873  0.0763  0.0536  0.1206
 9010W        W11160   9.695   7.786   6.981 -0.1089 -0.0267 -0.2114
 9011W        W11161   5.019   0.324  10.060 -0.2097  0.1012 -0.0338
 9012W        W11162   4.490   1.641  15.259  0.0808  0.2451  0.0256
 9013W        W11163   0.898   1.386  12.682 -0.0095 -0.2565 -0.2405
 9014W        W11164   7.869   1.157  26.664 -0.2783 -0.0577  0.2220
 9015W        W11165   2.463   4.001  25.243  0.3370  0.0376 -0.0271
 9016W        W11166   9.667   6.311  30.047  0.3902 -0.1843  0.2344
 9017W        W11167  24.139   1.308  10.534  0.0019  0.1608 -0.0101
 9018W        W11168   8.534   0.595  26.201  0.0374 -0.2852 -0.0246
 9019W        W11169   0.627   6.405  25.942 -0.0007  0.1279 -0.4124
 9020W        W11170  19.943   5.461  21.061 -0.3773  0.3022 -0.1933
 9021W        W11171  17.716   1.033   7.422  0.1915  0.0581 -0.3708
 9022W        W11172   7.854   1.335   9.462  0.2025 -0.3212 -0.3100
 9023W        W11173   4.951   2.364   3.155 -0.1700  0.0341 -0.0176
 9024W        W11174  21.831   3.245   5.260 -0.1165 -0.0178 -0.1257
 9025W        W11175   6.351   1.488  24.165  0.2362 -0.1709 -0.0754
 9026W        W11176   1.530   6.363   1.655 -0.0993  0.2508 -0.1733
 9027W        W11177  14.751   6.313  23.899  0.4766  0.0725  0.1346
 9028W        W11178  19.055   3.330  17.430 -0.3969  0.5791 -0.0742
 9029W        W11179   3.590   3.110   5.071 -0.1154  0.2567 -0.1497
 9030W        W11180   8.983   6.871  30.499  0.0972  0.0205 -0.0859
 9031W        W11181  15.969   6.676  10.146  0.0751 -0.1869  0.0511
 9032W        W11182  23.441   3.675  23.735  0.1682  0.0081  0.0780
 9033W        W11183   0.375   0.485  10.650 -0.2371 -0.0002  0.5356
 9034W        W11184  17.045   4.671   0.263  0.1299  0.0563  0.0203
 9035W        W11185   8.462   7.240  24.700  0.1828  0.2616 -0.1879
 9036W        W11186  22.726   0.194  28.205 -0.0699 -0.0685 -0.4810
 9037W        W11187  21.171   6.911  18.000 -0.0135 -0.3237  0.0921
 9038W        W11188  14.661   0.302  25.823 -0.0126 -0.0500 -0.1799
 9039W        W11189  16.997   3.578   5.485 -0.0227 -0.1372 -0.1564
 9040W        W11190  21.016   0.938  32.854 -0.1074 -0.0491 -0.0564
 9041W        W11191  10.433   7.253   7.195 -0.0285  0.1442  0.0192
 9042W        W11192   7.550   0.914  27.152 -0.4768  0.0334 -0.0724
 9043W        W11193  10.434   6.362   2.930  0.0137  0.3475  0.2889
 9044W        W11194  13.624   3.437  16.500  0.0853 -0.1469 -0.2486
 9045W        W11195  24.335   4.709   3.130 -0.0295  0.2848 -0.1689
 9046W        W11196  11.200   4.235   3.175 -0.0282 -0.1860 -0.2673
 9047W        W11197  14.349   6.501  23.600 -0.0394 -0.1053  0.0106
 9048W        W11198  16.498   1.242   0.054  0.0099 -0.0465 -0.0475
 9049W        W11199   3.278   3.257   3.794  0.3241  0.2600  0.1593
 9050W        W11200  11.415   6.957  11.850  0.1439  0.1814  0.2441
 9051W        W11201   7.995   1.775  31.234  0.0107  0.0151  0.0790
 9052W        W11202   8.058   5.829  11.268 -0.0310  0.0136 -0.1250
 9053W        W11203  20.932   1.029  32.328  0.0500 -0.1894  0.0307
 9054W        W11204   4.494   2.193  12.867  0.0043  0.0681 -0.0613
 9055W        W11205  11.598   7.313  30.709 -0.2298  0.0976 -0.2929
 9056W        W11206   2.456   3.466  23.511  0.2187 -0.2305  0.0332
 9057W        W11207   8.599   0.845  10.689  0.1241 -0.3195 -0.1690
 9058W        W11208  10.113   4.708  20.360 -0.2416  0.0239  0.2466
 9059W        W11209   6.164   3.144  11.549 -0.1099  0.2866 -0.2523
 9060W        W11210  15.827   7.055   5.064 -0.1684 -0.2717  0.0054
 9061W        W11211  11.500   3.401  23.159  0.2512  0.2964  0.0922
 9062W        W11212   2.361   6.555   0.780 -0.0461 -0.3238 -0.1130
 9063W        W11213   8.184   3.218   7.978 -0.1237  0.1842 -0.1918
 9064W        W11214  15.093   3.088  17.185 -0.3925 -0.0865  0.0132
 9065W        W11215   4.007   4.235  27.234 -0.1318  0.1454 -0.1505
 9066W        W11216   3.603   7.339  16.076 -0.0869 -0.1690 -0.2721
 9067W        W11217  17.089   0.065   4.462  0.3927 -0.0572 -0.1476
 9068W        W11218   8.404   4.165  21.909 -0.0403  0.0244  0.1869
 9069W        W11219  23.910   6.215   1.608 -0.1231 -0.0063  0.1911
 9070W        W11220  17.133   2.742  20.690  0.2844  0.0154 -0.1858
 9071W        W11221  23.363   2.317  28.707 -0.0532  0.1187 -0.1097
 9072W        W11222   8.491   3.275  12.681  0.2770 -0.0398 -0.0826
 9073W        W11223   4.079   3.865   0.704 -0.3613 -0.0602 -0.0745
 9074W        W11224  17.928   4.432  10.534  0.3975  0.1526  0.0315
 9075W        W11225  21.675   6.536   9.561 -0.0984 -0.1827 -0.0728
 9076W        W11226  13.433   1.414  27.321 -0.0542 -0.3174  0.0184
 9077W        W11227  21.463   1.620  20.758 -0.2925  0.2834 -0.2760
 9078W        W11228  19.086   3.339   4.642  0.0079 -0.2646  0.1853
 9079W        W11229  14.792   4.804  30.284 -0.1634  0.2943  0.0058
 9080W        W11230  22.834   0.077  23.968 -0.4004 -0.0851  0.1726
 9081W        W11231   9.569   6.513  28.914 -0.0527  0.2804 -0.0810
 9082W        W11232  16.428   6.417  20.940  0.1794  0.1940 -0.0451
 9083W        W11233   2.173   5.746  22.316 -0.1198 -0.3734  0.1113
 9084W        W11234  18.601   5.060  22.805 -0.0079  0.0300 -0.2741
 9085W        W11235  16.697   6.466   8.581  0.0778 -0.2202 -0.0746
 9086W        W11236  20.106   0.592  32.812 -0.3240 -0.0588  0.0319
 9087W        W11237  13.155   3.394   0.873  0.2180  0.0741 -0.0542
 9088W        W11238  15.500   6.588   7.050 -0.0438  0.0424  0.0815
 9089W        W11239   5.503   1.151  32.056 -0.0258  0.1008 -0.3238
 9090W        W11240  16.505   6.134   7.089  0.0319 -0.0254 -0.0030
 9091W        W11241   9.485   6.964  26.622  0.0400 -0.0233 -0.0139
 9092W        W11242   4.143   1.421  26.185 -0.1036 -0.2712  0.0809
 9093W        W11243  18.518   0.349   0.854  0.1457 -0.2200  0.3550
 9094W        W11244  14.506   3.693   1.311  0.2586  0.0690  0.4090
 9095W        W11245  22.998   4.662   5.502 -0.3917  0.2587 -0.0679
 9096W        W11246   9.614   4.053   7.256 -0.0349 -0.0578  0.1083
 9097W        W11247  23.605   1.208  12.831  0.1068 -0.0955  0.0855
 9098W        W11248   1.449   4.173   7.022 -0.1280 -0.1227 -0.2376
 9099W        W11249  23.949   0.705  21.741  0.0656  0.0737  0.1694
 9100W        W11250   1.826   6.413  17.279  0.0037 -0.0705  0.1454
 9101W        W11251   1.106   4.027  31.228 -0.2207  0.0674 -0.1282
 9102W        W11252  21.607   7.424  30.579  0.0942 -0.0279  0.0388
 9103W        W11253  17.257   5.844   6.464 -0.2475 -0.2598 -0.0896
 9104W        W11254  15.235   4.053  17.157  0.0653  0.1745  0.2236
 9105W        W11255  23.841   4.724  13.051  0.2134  0.1433  0.1780
 9106W        W11256  14.395   6.146  24.896  0.1594  0.0602  0.1398
 9107W        W11257  16.086   3.724  10.331  0.2017 -0.1021 -0.0796
 9108W        W11258   5.230   4.790  23.245 -0.1523  0.1156  0.2049
 9109W        W11259   4.521   7.267   5.961 -0.2313 -0.0645  0.2540
 9110W        W11260   4.102   4.023  24.207  0.0722  0.1017  0.1760
 9111W        W11261  14.601   5.993  31.845  0.1040 -0.1762 -0.3581
 9112W        W11262  21.191   2.973   3.173  0.0173  0.0123 -0.3358
 9113W        W11263  21.949   3.081  22.938 -0.1409  0.1703  0.1508
 9114W        W11264  17.481   3.792  29.492 -0.1284 -0.2789 -0.1650
 9115W        W11265   9.402   5.971  32.582 -0.0462 -0.1759 -0.0588
 9116W        W11266   0.054   0.892  10.541 -0.0540 -0.1489  0.0026
 9117W        W11267  20.657   5.774  31.665  0.0208 -0.1270 -0.1839
 9118W        W11268   0.196   1.530  24.396  0.2232 -0.0135  0.0251
 9119W        W11269   2.151   2.599   6.980 -0.0792  0.1044 -0.2872
 9120W        W11270   6.104   1.947  24.140 -0.1371  0.1820  0.1783
 9121W        W11271  15.860   3.809   4.352 -0.0133 -0.1526 -0.4173
 9122W        W11272   2.196   1.294  25.226  0.1930  0.2670  0.1414
 9123W        W11273   4.642   6.732  15.494  0.2513 -0.3637 -0.0751
 9124W        W11274  10.739   6.385  30.227 -0.0273  0.2701  0.0450
 9125W        W11275   1.692   7.338  25.040  0.0939  0.2107  0.0825
 9126W        W11276   3.265   0.026   2.277  0.2589 -0.4669  0.1303
 9127W        W11277   9.000   1.586  28.178  0.1181 -0.2818 -0.1389
 9128W        W11278  11.490   2.864   1.876 -0.0674 -0.2695  0.0923
 9129W        W11279  24.634   7.582  21.892  0.1246  0.0148 -0.0878
 9130W        W11280   6.092   6.949   8.667 -0.1292 -0.1622  0.0620
 9131W        W11281  18.348   5.848   9.800  0.0099  0.1378  0.0398
 9132W        W11282  18.280   2.723  16.527 -0.2510  0.1165 -0.2506
 9133W        W11283  17.130   4.910  17.329 -0.2112 -0.2674 -0.0558
 9134W        W11284  21.237   1.955  24.243 -0.3302  0.0489 -0.0844
 9135W        W11285   7.201   5.504  22.602 -0.0326 -0.1627 -0.4187
 9136W        W11286  20.820   6.222  24.268 -0.2551  0.1268  0.0385
 9137W        W11287  22.862   4.593   6.737  0.1300  0.0584 -0.1002
 9138W        W11288   1.999   0.006  25.006 -0.0787 -0.1690 -0.0018
 9139W        W11289  10.809   4.588   6.862  0.0026  0.0944 -0.0416
 9140W        W11290   1.332   5.113  21.461  0.3651  0.0647  0.2600
 9141W        W11291  11.787   4.550  32.441 -0.3153  0.1769 -0.2107
 9142W        W11292  20.469   1.733   0.075 -0.0424  0.1194 -0.2385
 9143W        W11293  14.886   4.380   4.328 -0.0408  0.1160  0.1740
 9144W        W11294   4.932   1.576  26.742 -0.0459  0.1274  0.2405
 9145W        W11295  19.108   4.025   9.404 -0.1678  0.0760 -0.2154
 9146W        W11296  19.301   6.925  19.695 -0.0161 -0.2252  0.0248
 9147W        W11297   2.281   3.216  32.021  0.1953  0.0229  0.2148
 9148W        W11298  20.842   0.405  20.139  0.1516 -0.0281 -0.5748
 9149W        W11299   1.093   2.495  26.918 -0.1153 -0.0264 -0.2291
 9150W        W11300   5.969   0.634  25.195  0.1026  0.0071 -0.1162
 9151W        W11301  23.354   1.680  10.915  0.0596  0.2039 -0.1075
 9152W        W11302  11.532   4.271   0.178  0.0666  0.1022  0.2688
 9153W        W11303  10.019   2.131  23.287 -0.0721  0.0141 -0.2334
 9154W        W11304   6.299   3.680   4.951  0.1410 -0.0273 -0.1602
 9155W        W11305  13.251   5.276   7.613  0.0992 -0.1008 -0.0283
 9156W        W11306  23.003   6.445  13.746  0.0032 -0.0666 -0.1010
 9157W        W11307  19.432   5.137  21.108  0.0021  0.1037  0.0987
 9158W        W11308  21.512   4.130  32.182  0.1325  0.0606  0.1954
 9159W        W11309   8.438   7.511  25.988  0.0713 -0.4711  0.0215
 9160W        W11310  19.810   0.995  25.559 -0.0559 -0.5003 -0.0385
 9161W        W11311  11.632   4.263   8.074 -0.1545  0.0872 -0.0648
 9162W        W11312   9.105   3.779  13.188 -0.1135  0.5632 -0.3423
 9163W        W11313  19.769   5.539   4.727 -0.1161 -0.0452  0.2471
 9164W        W11314   6.500   6.647  29.391 -0.1967  0.2587  0.0438
 9165W        W11315   2.060   3.696  24.959 -0.0301 -0.2455 -0.1100
 9166W        W11316  15.629   6.472   0.922  0.4050  0.0496 -0.1408
 9167W        W11317   7.865   4.604  28.706 -0.1265 -0.2550  0.1031
 9168W        W11318   8.713   1.418  10.519 -0.2659  0.0203  0.0395
 9169W        W11319  17.329   5.253  10.185 -0.3081 -0.0512 -0.0128
 9170W        W11320  16.614   2.753   4.692 -0.0194  0.0575  0.2001
 9171W        W11321   8.140   4.313   7.379  0.0696 -0.0942  0.1619
 9172W        W11322  22.819   1.174   9.003 -0.0310 -0.1819 -0.1060
 9173W        W11323  18.425   6.365  25.844  0.0756  0.1853  0.1645
 9174W        W11324  16.705   1.757   2.736  0.0220  0.1177  0.3198
 9175W        W11325   4.769   4.735  12.116 -0.1187 -0.1221 -0.1114
 9176W        W11326  16.536   7.633  24.096  0.1373 -0.0713  0.1343
 9177W        W11327  11.217   6.869  32.090  0.0868 -0.1576  0.0631
 9178W        W11328  11.966   4.485   6.308  0.1979  0.1182  0.0483
 9179W        W11329  20.329   5.611  11.716  0.0546 -0.0334  0.1013
 9180W        W11330  11.145   3.693   4.456  0.0497  0.3571  0.2813
 9181W        W11331  11.314   2.852   9.346  0.5630 -0.1078  0.3262
 9182W        W11332  22.909   7.687  32.833 -0.2248  0.0622  0.5153
 9183W        W11333  10.211   0.519  28.754 -0.1171 -0.1976  0.1376
 9184W        W11334   1.173   6.087  32.805 -0.1790  0.1781  0.3256
 9185W        W11335  21.398   5.340  30.564  0.0697 -0.2163 -0.2438
 9186W        W11336  21.746   2.544  28.931 -0.0595 -0.0312 -0.1186
 9187W        W11337   5.689   2.268  13.254 -0.0381 -0.1087 -0.1511
 9188W        W11338   9.314   2.101  11.307 -0.0378 -0.1086 -0.1006
 9189W        W11339   7.697   7.225  29.601 -0.2255 -0.1251  0.0321
 9190W        W11340  22.804   6.404  20.610  0.1404  0.1612  0.2153
 9191W        W11341   5.191   3.093  24.750 -0.0589 -0.0770 -0.1887
 9192W        W11342   0.488   5.176  15.895  0.1038  0.0652  0.1423
 9193W        W11343  24.481   7.114  14.511 -0.0792  0.2182  0.1260
 9194W        W11344  22.673   0.543  31.569 -0.0243  0.1039 -0.0684
 9195W        W11345  24.190   0.352   2.821 -0.0196  0.1536  0.0532
 9196W        W11346   1.735   4.494   7.408 -0.2891 -0.4521 -0.3393
 9197W        W11347  17.764   3.124  28.178  0.2501  0.2658  0.3054
 9198W        W11348  17.163   1.572  20.890 -0.0562  0.1834 -0.0378
 9199W        W11349   9.055   2.979  28.638 -0.1231  0.3537 -0.0558
 9200W        W11350  13.006   6.487  30.677 -0.0347 -0.0469 -0.1119
 9201W        W11351  24.316   5.262  12.354 -0.0640  0.0494  0.0555
 9202W        W11352  21.008   5.838  21.322 -0.0683  0.1689 -0.1131
 9203W        W11353  15.899   1.902   6.741 -0.1532  0.4002  0.1023
 9204W        W11354  17.060   2.234  14.302 -0.1311 -0.0412  0.0642
 9205W        W11355  17.063   1.339  17.610 -0.0856  0.0907 -0.4150
 9206W        W11356  13.760   0.436  31.577  0.2729 -0.0411  0.1025
 9207W        W11357   0.481   0.335   0.209  0.1996 -0.3488 -0.0047
 9208W        W11358   0.355   5.158   4.054 -0.0379  0.1522 -0.0466
 9209W        W11359  19.204   6.138  30.167 -0.3153 -0.1402  0.2209
 9210W        W11360   5.412   6.072  23.274  0.0891 -0.2683  0.0050
 9211W        W11361  12.245   6.762   0.961  0.2155 -0.0426  0.1543
 9212W        W11362   9.444   4.102  12.003 -0.0563  0.1965  0.0212
 9213W        W11363   5.004   6.895  17.151 -0.1139 -0.0674 -0.0506
 9214W        W11364  18.906   6.940  26.943 -0.0479  0.0243  0.3217
 9215W        W11365   4.902   1.420  32.893  0.3122 -0.0887  0.1191
 9216W        W11366   8.800   7.773   2.475 -0.1283  0.0674 -0.0181
 9217W        W11367  11.794   4.686  31.596 -0.0953 -0.0807  0.2937
 9218W        W11368   4.070   5.379   9.941 -0.0622 -0.0466 -0.1666
 9219W        W11369   8.379   5.492  28.958  0.3256 -0.1031 -0.1504
 9220W        W11370   3.547   3.441   7.888 -0.2657 -0.1364  0.2171
 9221W        W11371   1.476   7.175   9.647 -0.1491  0.1668 -0.0440
 9222W        W11372   7.490   3.236  12.051 -0.1151 -0.0578 -0.0678
 9223W        W11373   9.484   5.738   1.616 -0.1745 -0.0130 -0.0210
 9224W        W11374  11.160   6.814   2.654  0.0033 -0.1853  0.0950
 9225W        W11375  14.821   2.608  22.615 -0.0493 -0.1386 -0.1145
 9226W        W11376  24.522   7.638  27.686 -0.1994 -0.0348 -0.2678
 9227W        W11377  22.141   1.892   4.274  0.0995 -0.1310 -0.0192
 9228W        W11378  21.186   2.685  30.729  0.0194  0.0513 -0.0542
 9229W        W11379   8.984   4.443  31.613 -0.0429  0.0908  0.0071
 9230W        W11380   4.983   0.486  16.187  0.0670 -0.0448 -0.0296
 9231W        W11381   6.264   6.049   4.109 -0.1212  0.1903 -0.1781
 9232W        W11382  22.370   3.829   7.090  0.0737  0.0734 -0.0881
 9233W        W11383  24.036   3.031  27.540  0.1027 -0.0676 -0.3744
 9234W        W11384  10.164   7.597   1.248  0.4530  0.2315 -0.2352
 9235W        W11385   6.492   1.526   2.586 -0.0444 -0.0163 -0.1650
 9236W        W11386  11.825   3.158   8.632  0.1733 -0.1337 -0.0774
 9237W        W11387  11.012   3.237  23.094  0.0624 -0.0329 -0.1004
 9238W        W11388  15.440   0.116   8.230  0.1643  0.0325 -0.0523
 9239W        W11389   1.969   4.294   9.676 -0.2214  0.1431  0.1366
 9240W        W11390  17.369   3.234   9.031 -0.2357 -0.2066  0.0651
 9241W        W11391   1.981   5.242  16.795 -0.2647 -0.0463 -0.0208
 9242W        W11392  10.212   4.457  13.386  0.1218  0.0040  0.0134
 9243W        W11393   3.758   6.406   2.371  0.1768 -0.0946  0.1631
 9244W        W11394   0.667   5.204   6.664  0.1121 -0.2218  0.1987
 9245W        W11395   8.992   2.059  14.446  0.1792 -0.4168 -0.1141
 9246W        W11396   6.056   7.722  24.427 -0.0739  0.2349 -0.1955
 9247W        W11397   9.206   7.239   8.032  0.0177  0.3749 -0.2956
 9248W        W11398   6.658   5.524  32.371 -0.0304  0.0608  0.2383
 9249W        W11399   0.236   2.783   2.616  0.3882 -0.0930  0.0295
 9250W        W11400   2.529   2.583  16.996 -0.0362  0.0835  0.0336
 9251W        W11401  14.752   0.126   0.953  0.0824  0.1891 -0.0534
 9252W        W11402  14.686   3.349  30.293 -0.1949 -0.2670  0.1499
 9253W        W11403   8.098   0.071  23.233  0.5359  0.0390  0.0239
 9254W        W11404  23.229   1.706  22.002  0.0183  0.1298 -0.0351
 9255W        W11405  15.558   2.873   8.592  0.0728 -0.2198  0.0455
 9256W        W11406   6.531   7.648  16.840  0.2329 -0.1373 -0.1378
 9257W        W11407  24.915   0.182  11.630 -0.2839  0.1005 -0.0539
 9258W        W11408  18.371   1.084  18.046  0.0712  0.5444  0.1196
 9259W        W11409  13.991   4.258   4.491  0.2048  0.2230 -0.3493
 9260W        W11410  22.776   4.189  25.110  0.1220  0.2004 -0.1506
 9261W        W11411  15.994   4.318  27.257  0.0167  0.0551  0.2660
 9262W        W11412  24.299   1.652  22.959  0.1144  0.1704  0.2228
 9263W        W11413   2.090   6.893  13.235 -0.0907 -0.1470  0.0426
 9264W        W11414   6.232   1.898   8.831  0.0282 -0.3106  0.0989
 9265W        W11415   7.218   1.692  14.487  0.0111  0.2038  0.2722
 9266W        W11416   5.700   6.257  32.063 -0.0931 -0.0828  0.2679
 9267W        W11417   7.649   7.357  10.719 -0.1396 -0.0301 -0.0317
 9268W        W11418   5.627   4.959  25.957 -0.1020  0.0499 -0.0220
 9269W        W11419  21.835   5.198  31.462 -0.0769  0.0282  0.3258
 9270W        W11420  14.298   6.382  27.441  0.0213 -0.0576  0.1025
 9271W        W11421  22.156   1.692  32.299 -0.3402  0.2452 -0.0453
 9272W        W11422  15.200   5.867  29.683 -0.0776 -0.0171 -0.1507
 9273W        W11423  15.081   6.345   0.004  0.0491 -0.2981 -0.0511
 9274W        W11424  10.441   2.259   7.103  0.0068 -0.4411  0.0830
 9275W        W11425   6.982   7.468  27.942  0.0811  0.1569  0.2289
 9276W        W11426   9.650   0.931  13.144  0.0814 -0.0793 -0.1520
 9277W        W11427  14.159   1.404   4.798 -0.0700  0.2180  0.1759
 9278W        W11428   2.949   3.733  13.156  0.2281 -0.1714  0.0964
 9279W        W11429   5.809   4.997   1.021  0.1077 -0.2238 -0.1393
 9280W        W11430  10.663   3.856   2.181 -0.1604  0.3751 -0.2041
 9281W        W11431  20.050   0.020   1.223  0.1238  0.0439 -0.2537
 9282W        W11432  24.761   1.609  30.604  0.1857 -0.0794  0.0882
 9283W        W11433  16.648   1.631   1.892  0.0999  0.1258  0.1928
 9284W        W11434  11.058   0.686   9.135  0.0270 -0.0236  0.0822
 9285W        W11435  15.779   4.295  33.031  0.3292  0.0628  0.2216
 9286W        W11436  18.320   0.007  10.153 -0.3681 -0.0381  0.3198
 9287W        W11437   7.273   3.766  29.067  0.1154  0.2458 -0.1366
 9288W        W11438  13.142   7.758  30.565 -0.0655 -0.1810  0.0091
 9289W        W11439  11.985   1.248  10.682  0.0929 -0.0043 -0.1730
 9290W        W11440   1.784   3.322  14.290  0.5046 -0.0233 -0.1757
 9291W        W11441  16.319   5.501  23.125 -0.4955 -0.0807 -0.0705
 9292W        W11442   3.686   7.451  27.434 -0.0426 -0.0559 -0.1500
 9293W        W11443   6.376   0.354  24.931  0.0125  0.1104 -0.0808
 9294W        W11444   1.146   2.310   6.025 -0.1520 -0.0537  0.0836
 9295W        W11445  20.557   0.441  22.538 -0.3224  0.0491  0.3043
 9296W        W11446  16.864   3.195  22.255 -0.3858 -0.0015 -0.1357
 9297W        W11447  16.166   2.396   4.275  0.1857  0.0031  0.0649
 9298W        W11448  12.885   6.873  30.968 -0.0260  0.1620 -0.2958
 9299W        W11449  15.157   0.916  23.312 -0.0493 -0.0385 -0.2790
 9300W        W11450   2.508   2.983  11.058  0.3573  0.0836 -0.0946
 9301W        W11451   1.960   7.584  23.962  0.0725  0.0643 -0.1843
 9302W        W11452   8.549   1.448   0.591  0.1278 -0.1345 -0.0685
 9303W        W11453   6.861   5.134  10.863  0.0852 -0.2229  0.5539
 9304W        W11454   6.776   1.766  32.784  0.2378  0.0957  0.0056
 9305W        W11455   1.091   4.680  21.289 -0.1246 -0.4549 -0.0098
 9306W        W11456  16.932   1.202  23.468  0.0862  0.2028  0.1820
 9307W        W11457  21.226   3.224  28.907  0.1772 -0.0184 -0.1978
 9308W        W11458  15.520   4.971  18.074  0.2419 -0.0722 -0.0939
 9309W        W11459  20.370   4.738  28.439  0.1967  0.0706 -0.3188
 9310W        W11460   8.710   1.735   4.784  0.0128  0.0120 -0.1178
 9311W        W11461  19.393   3.602   7.548 -0.1743  0.1796 -0.2036
 9312W        W11462   3.502   7.446  13.283 -0.0366  0.2237 -0.2119
 9313W        W11463   7.301   2.240   4.975  0.0521  0.0170 -0.1612
 9314W        W11464  19.606   6.723  10.308 -0.0573  0.3372  0.1285
 9315W        W11465   9.251   5.019  11.279  0.0481 -0.2699  0.1266
 9316W        W11466  21.708   0.344  22.015  0.1198 -0.0754 -0.0524
 9317W        W11467   3.554   6.773  30.330 -0.0492  0.1997  0.0402
 9318W        W11468   7.059   1.640  31.787  0.0944 -0.0463  0.2611
 9319W        W11469  13.556   3.071   2.334 -0.1372 -0.0413 -0.0173
 9320W        W11470   2.368   7.142   0.401  0.1724  0.0650  0.0793
 9321W        W11471  20.215   6.036  32.384  0.2176  0.4039 -0.2193
 9322W        W11472   9.181   3.788   0.398 -0.0463  0.2680  0.0011
 9323W        W11473  23.103   3.116  25.408 -0.1915 -0.2451  0.1801
 9324W        W11474  21.596   6.462  32.041 -0.1124  0.0433 -0.0143
 9325W        W11475  23.574   4.549  25.571 -0.2379 -0.0262  0.1010
 9326W        W11476  17.270   5.646  20.738  0.3066 -0.0326 -0.2504
 9327W        W11477  24.183   4.342  14.876 -0.0649 -0.1348 -0.1953
 9328W        W11478  15.199   5.920  25.016  0.3119  0.2090  0.4338
 9329W        W11479   3.629   2.489  12.750  0.1298 -0.3776  0.3673
 9330W        W11480   7.802   0.671   3.879  0.0862 -0.1243 -0.3004
 9331W        W11481  23.047   3.837  19.685 -0.0042 -0.2712  0.0072
 9332W        W11482  14.575   4.237  21.086  0.2498 -0.1250  0.1191
 9333W        W11483   6.058   1.949  13.232 -0.3909  0.1235 -0.0935
 9334W        W11484   3.421   2.560  25.402  0.1655 -0.3980 -0.1451
 9335W        W11485   6.041   7.102   0.179  0.2416  0.0889 -0.0865
 9336W        W11486  17.932   0.854  26.255  0.1855 -0.1784 -0.3885
 9337W        W11487  11.190   0.117  11.213 -0.2061  0.0098  0.0464
 9338W        W11488  22.116   4.680  28.231 -0.3035  0.0640  0.1941
 9339W        W11489  10.793   7.581  21.272  0.0805  0.0175  0.3356
 9340W        W11490   5.189   6.634   4.611  0.0401 -0.1479  0.1276
 9341W        W11491   6.747   0.050  25.262 -0.0174  0.2792  0.0441
 9342W        W11492   1.280   4.234  12.857 -0.0240 -0.0985  0.0161
 9343W        W11493   4.514   6.944   7.279 -0.4421  0.0793  0.4960
 9344W        W11494  20.256   0.130  25.391  0.1124 -0.2018  0.1807
 9345W        W11495   1.720   5.798  11.323  0.1298  0.1862  0.1574
 9346W        W11496  10.216   7.165  25.619  0.0246 -0.4378 -0.2408
 9347W        W11497   7.661   3.627  22.861 -0.2160  0.0203  0.0022
 9348W        W11498  13.411   0.809  21.555  0.0282  0.1100  0.0725
 9349W        W11499  21.655   3.609  29.740 -0.3465  0.1189  0.0170
 9350W        W11500   4.499   1.427  14.432 -0.0972  0.2867 -0.0398
 9351W        W11501   4.758   0.100  29.229  0.2988  0.0967  0.1889
 9352W        W11502   2.002   6.318   1.518  0.3335  0.1177  0.1814
 9353W        W11503   7.713   0.399  16.697  0.0451 -0.1113  0.1159
 9354W        W11504  22.591   3.210   7.665 -0.0345 -0.3032 -0.0902
 9355W        W11505  21.703   1.516  32.158 -0.0845 -0.0692  0.1733
 9356W        W11506  16.709   7.210   3.350  0.0656  0.0624 -0.1780
 9357W        W11507   2.589   6.780  24.356  0.0294  0.0833  0.0639
 9358W        W11508  23.614   3.436  32.233 -0.2639 -0.1913  0.0784
 9359W        W11509  13.094   0.861  29.471 -0.1000  0.2250 -0.0039
 9360W        W11510  16.010   2.385  31.755 -0.2617 -0.1581  0.0368
 9361W        W11511  19.451   5.674  21.043  0.0446  0.0881  0.0320
 9362W        W11512   7.723   5.423  22.269 -0.0309  0.0146  0.3593
 9363W        W11513  23.398   2.237  13.060  0.1346 -0.3357  0.0993
 9364W        W11514  18.640   3.295  18.570 -0.1505 -0.3962  0.0099
 9365W        W11515   5.432   2.946  15.181 -0.0936  0.1431  0.3762
 9366W        W11516   3.179   6.002  29.230 -0.0929 -0.0231  0.4233
 9367W        W11517  14.215   0.730  10.733  0.0388 -0.0930 -0.0121
 9368W        W11518   2.467   4.631   1.307  0.1628 -0.1282 -0.2620
 9369W        W11519  15.831   2.598  29.822  0.3606  0.0194  0.0639
 9370W        W11520  16.662   0.532  26.023  0.4579  0.0219 -0.0979
 9371W        W11521  18.635   2.717  23.375  0.1473  0.4338 -0.3348
 9372W        W11522  11.426   0.033   8.393 -0.4106  0.0888 -0.1761
 9373W        W11523  23.750   7.129  25.285 -0.1475  0.0588  0.1760
 9374W        W11524  16.955   4.110  15.011  0.2644 -0.1984  0.0549
 9375W        W11525   0.596   4.230   1.676 -0.2561 -0.0268 -0.1267
 9376W        W11526   5.614   6.312   5.379 -0.0697  0.3712  0.2814
 9377W        W11527  17.478   5.661  19.805  0.0712  0.0899 -0.1175
 9378W        W11528  24.953   4.058   3.539  0.0140  0.0647 -0.1092
 9379W        W11529  24.574   4.513   8.536  0.0546  0.2852  0.0563
 9380W        W11530  18.147   2.908  29.338  0.0954 -0.2229 -0.0124
 9381W        W11531   3.709   2.386   6.816 -0.0190  0.1070  0.0568
 9382W        W11532  19.134   5.341   6.578  0.0325 -0.0711 -0.0771
 9383W        W11533  23.286   5.578  20.166  0.1585  0.2798 -0.1198
 9384W        W11534   3.734   7.263   5.627 -0.0606 -0.1299  0.1739
 9385W        W11535   0.784   6.081  12.542  0.1384 -0.0361  0.0608
 9386W        W11536   6.799   3.234   5.831 -0.2858  0.3972 -0.3065
 9387W        W11537  19.170   2.446  24.561  0.1988  0.0072  0.0662
 9388W        W11538   9.606   1.690  31.797 -0.0517  0.2689  0.1806
 9389W        W11539  12.409   0.161  29.343 -0.1377  0.1555 -0.0337
 9390W        W11540   3.836   4.753   8.274 -0.1829  0.1423 -0.1886
 9391W        W11541  21.003   5.187  22.894  0.0850  0.0665  0.0251
 9392W        W11542   6.304   0.039   9.036  0.0171  0.1299  0.3740
 9393W        W11543   7.832   2.606  31.917  0.1011  0.0798 -0.0578
 9394W        W11544   2.845   4.107  28.816 -0.1410 -0.0812  0.1625
 9395W        W11545   5.427   1.877   5.310  0.0736 -0.4710  0.0455
 9396W        W11546  15.069   0.541   0.738 -0.0941 -0.1390 -0.1538
 9397W        W11547  17.582   2.482  21.964  0.0259 -0.2181 -0.2542
 9398W        W11548   6.985   5.147   0.670 -0.2618 -0.0738 -0.1836
 9399W        W11549   6.754   2.128  27.447  0.1095 -0.4277 -0.0199
 9400W        W11550   7.458   3.895  23.586 -0.0698 -0.4081  0.2464
 9401W        W11551   6.093   6.281  27.014 -0.0461  0.1464  0.0231
 9402W        W11552  16.137   7.665  27.197 -0.0904 -0.0008  0.1280
 9403W        W11553   6.604   7.769  29.243  0.0790  0.2057  0.4508
 9404W        W11554  13.299   3.291  18.277 -0.2258 -0.2523 -0.3677
 9405W        W11555   4.882   3.746   1.786 -0.2846 -0.1284 -0.0137
 9406W        W11556  23.497   4.481  31.908  0.2221  0.0238  0.1128
 9407W        W11557   5.987   0.766  24.722 -0.1613  0.3250 -0.3662
 9408W        W11558  12.734   5.436  22.561 -0.0430  0.0364 -0.2022
 9409W        W11559  15.835   1.670  29.353 -0.1577  0.0974 -0.2548
 9410W        W11560  10.899   0.341  24.213  0.4237 -0.0327 -0.1324
 9411W        W11561   5.768   2.334   5.441  0.1484  0.4891 -0.2128
 9412W        W11562  16.990   7.529   7.492 -0.0537 -0.2561  0.1663
 9413W        W11563  23.467   1.794   9.586  0.0939  0.1020  0.0572
 9414W        W11564  12.604   5.488  19.645 -0.0129  0.1373  0.0048
 9415W        W11565  16.942   5.481  18.477 -0.0161 -0.0303  0.0637
 9416W        W11566  22.715   2.242  24.734 -0.2230 -0.2148  0.0571
 9417W        W11567   0.650   3.257   4.309  0.1984 -0.1428  0.0649
 9418W        W11568  18.091   3.946  28.575 -0.0402  0.3105  0.2714
 9419W        W11569  10.851   6.776  12.491  0.0852  0.0381  0.0021
 9420W        W11570   3.303   3.576  18.308 -0.2311  0.6206  0.1863
 9421W        W11571   8.272   0.102   0.238  0.0971  0.1684  0.2325
 9422W        W11572   8.347   6.663   8.381 -0.0534 -0.0753 -0.2889
 9423W        W11573  20.305   3.427   7.970  0.1201  0.1115 -0.2549
 9424W        W11574   5.172   4.678  32.565  0.1644 -0.0134 -0.1412
 9425W        W11575  20.151   7.371  33.030 -0.0933  0.0980 -0.0129
 9426W        W11576  21.245   4.027  18.757 -0.1400 -0.2748  0.1667
 9427W        W11577  11.546   2.517   0.033 -0.0451  0.1533  0.0583
 9428W        W11578   1.785   5.617   9.340 -0.1002  0.1008 -0.3189
 9429W        W11579  19.629   0.332  33.030 -0.1538  0.1888  0.0503
 9430W        W11580  23.102   4.696  11.032  0.1333 -0.2694 -0.0028
 9431W        W11581  18.129   0.373  19.290  0.2234  0.0291 -0.2175
 9432W        W11582  11.112   3.395  10.609 -0.1384  0.0916 -0.1370
 9433W        W11583  21.249   5.975  24.773 -0.0093 -0.1159  0.0162
 9434W        W11584  15.626   5.101   5.653 -0.1148  0.1383  0.4059
 9435W        W11585  17.053   1.191  32.277  0.1702  0.0275 -0.0637
 9436W        W11586  19.103   5.098  10.882  0.0014  0.1383  0.2387
 9437W        W11587  10.329   4.177   5.452  0.0442 -0.0656 -0.0275
 9438W        W11588  15.320   4.563  25.814  0.1987  0.2498  0.0925
 9439W        W11589  16.637   0.739  23.475 -0.1552  0.2015  0.1598
 9440W        W11590   5.391   2.103   5.862 -0.0957  0.3409  0.0867
 9441W        W11591  17.025   3.262  30.057  0.2795  0.0937 -0.2102
 9442W        W11592   6.555   5.962   5.636  0.2182  0.1120  0.2021
 9443W        W11593   8.328   3.059  24.896  0.0918 -0.0414  0.1656
 9444W        W11594  22.063   1.780  12.402  0.3077 -0.0187  0.1281
 9445W        W11595  11.658   0.713   6.547 -0.0071 -0.0273  0.1124
 9446W        W11596   7.365   4.244  22.715  0.0211 -0.0107 -0.1623
 9447W        W11597  19.522   4.239   9.698  0.0188  0.1123  0.1059
 9448W        W11598   2.982   4.413   2.072  0.1597  0.2277  0.0418
 9449W        W11599  17.322   0.436  19.396  0.1376 -0.0911 -0.1933
 9450W        W11600  22.037   1.048  33.015 -0.2196 -0.3762 -0.0291
 9451W        W11601  20.794   4.101  11.004  0.1546  0.2531  0.5195
 9452W        W11602  22.326   2.025   9.061  0.2710 -0.0941  0.0034
 9453W        W11603   8.620   4.569   8.029 -0.0923  0.1795 -0.0437
 9454W        W11604   2.472   0.516  27.643  0.0308 -0.2926 -0.4259
 9455W        W11605  22.683   2.606  30.095  0.1212 -0.1130 -0.1739
 9456W        W11606  24.253   1.721  24.850  0.1484 -0.1423 -0.0356
 9457W        W11607  14.594   1.580  28.989  0.2054 -0.1152  0.0954
 9458W        W11608   4.491   2.734   7.638 -0.0348 -0.0995 -0.1469
 9459W        W11609  12.833   2.967   3.344 -0.3271 -0.3409  0.1939
 9460W        W11610  22.083   1.541   7.644 -0.0207 -0.1343 -0.4047
 9461W        W11611  20.015   0.688  10.881  0.1885 -0.2039 -0.0928
 9462W        W11612   1.826   3.628  11.765  0.1223 -0.0005  0.1392
 9463W        W11613   3.676   4.757   2.056 -0.4591 -0.2026 -0.0502
 9464W        W11614  22.877   2.215  28.584  0.1271  0.0391 -0.1329
 9465W        W11615   0.120   6.645  32.078  0.1471 -0.2170  0.0566
 9466W        W11616   1.545   0.752  26.129 -0.1013 -0.1158  0.0148
 9467W        W11617  21.006   1.362  19.057 -0.0126  0.0049  0.1172
 9468W        W11618  15.962   2.648  10.074 -0.0150 -0.1177 -0.1197
 9469W        W11619  21.415   0.009   8.960 -0.2049 -0.0965 -0.2992
 9470W        W11620  16.035   4.569  19.194  0.2628  0.0565 -0.0163
 9471W        W11621   0.213   7.457  10.647  0.1616 -0.0818 -0.0907
 9472W        W11622  19.050   2.652  24.984 -0.2315  0.1042 -0.0194
 9473W        W11623   7.313   4.311  24.932  0.0754 -0.1188  0.1924
 9474W        W11624  13.673   2.469  26.324  0.1238 -0.1132 -0.1624
 9475W        W11625  12.624   0.645  18.992 -0.0100  0.1469  0.0078
 9476W        W11626   4.349   3.124   1.042 -0.0556 -0.0166  0.2178
 9477W        W11627   4.507   5.063  28.133 -0.3253 -0.0853  0.0815
 9478W        W11628   7.191   7.401  29.918  0.1000 -0.0719  0.0112
 9479W        W11629   1.233   4.476  10.036 -0.0204  0.2139  0.0109
 9480W        W11630  12.093   2.578   6.436  0.0869 -0.1818  0.1662
 9481W        W11631  19.497   0.064  30.806 -0.0753 -0.2566  0.0134
 9482W        W11632  10.070   4.045   0.513 -0.1265 -0.2928 -0.0370
 9483W        W11633  23.605   7.641  21.573 -0.0195 -0.3167  0.1896
 9484W        W11634  16.132   3.012  15.216 -0.0729 -0.0521  0.2118
 9485W        W11635  14.879   3.844   8.381  0.2097 -0.1079  0.0384
 9486W        W11636   4.990   4.937   3.960 -0.0227  0.4187 -0.0438
 9487W        W11637  16.373   4.520   2.282  0.0636 -0.1564 -0.1753
 9488W        W11638  15.797   7.301  24.429  0.2322  0.0223 -0.0168
 9489W        W11639   8.080   2.350  23.223 -0.3397 -0.1675 -0.1373
 9490W        W11640   3.174   2.191  32.465  0.0096 -0.1826 -0.2895
 9491W        W11641   1.785   5.542  31.837 -0.0135  0.1852 -0.2084
 9492W        W11642   8.257   4.924  31.170  0.2340  0.3793 -0.1283
 9493W        W11643  22.785   6.905  13.898 -0.1325  0.0923  0.1627
 9494W        W11644  22.742   5.824  11.395 -0.3057 -0.0969 -0.2519
 9495W        W11645  14.436   4.940  19.372 -0.1075  0.2868 -0.1347
 9496W        W11646  15.873   3.918   8.515 -0.0858 -0.0150  0.1238
 9497W        W11647   0.246   6.093  31.474  0.0185  0.0352 -0.0618
 9498W        W11648   2.895   2.427   9.369  0.1628 -0.4069  0.0086
 9499W        W11649  18.064   1.694  24.414 -0.0785 -0.3798 -0.3008
 9500W        W11650   0.855   1.184   6.126 -0.1212 -0.1051  0.3248
 9501W        W11651   9.555   3.139  10.123  0.0197  0.1079 -0.0278
 9502W        W11652  12.320   0.098  25.597  0.1735 -0.0300 -0.1761
 9503W        W11653  15.218   4.627   0.385  0.1254 -0.2047 -0.0986
 9504W        W11654  16.653   1.346  17.317 -0.2320 -0.0141  0.1022
 9505W        W11655  20.731   6.784   2.208  0.0796  0.1217 -0.0888
 9506W        W11656   0.331   5.024  31.126  0.1166 -0.0730 -0.2079
 9507W        W11657  22.565   4.604  11.651  0.0352 -0.0088  0.0530
 9508W        W11658   3.381   1.552   6.873  0.2501 -0.1709  0.2546
 9509W        W11659  12.381   3.858  21.592  0.0248 -0.1318 -0.3214
 9510W        W11660   5.192   1.479  23.284  0.1353  0.0990 -0.2405
 9511W        W11661  23.381   7.370  10.189  0.0547  0.0983 -0.2726
 9512W        W11662  18.372   1.882  27.256  0.1212  0.1107 -0.1693
 9513W        W11663  23.205   2.908  19.644 -0.0955  0.0630 -0.1036
 9514W        W11664   1.270   6.751  29.443 -0.0047 -0.1188 -0.0657
 9515W        W11665  15.800   5.628   5.742 -0.1177  0.2476 -0.2553
 9516W        W11666   7.010   2.684  31.844  0.2374 -0.1286 -0.3115
 9517W        W11667  18.436   5.362   3.885 -0.3240 -0.4777 -0.1091
 9518W        W11668   9.783   6.577  11.997  0.0600 -0.1724  0.0359
 9519W        W11669   2.672   3.112  17.436  0.1514 -0.0654 -0.1628
 9520W        W11670   0.929   5.227  10.125  0.0418 -0.0245 -0.0298
 9521W        W11671  15.156   2.771  16.767  0.2075 -0.1296  0.1128
 9522W        W11672   3.328   3.565  28.903 -0.2758 -0.0534 -0.0894
 9523W        W11673   2.841   0.409  14.015  0.0003 -0.2458  0.0034
 9524W        W11674  18.122   0.771   1.301  0.2357  0.0222 -0.1754
 9525W        W11675  14.186   5.357   4.945  0.3266 -0.0794  0.2554
 9526W        W11676  15.695   7.273   6.674  0.0035  0.0831  0.1095
 9527W        W11677   5.263   4.216  15.721 -0.2638 -0.0424 -0.1067
 9528W        W11678   4.907   4.095   8.242  0.2887  0.1108 -0.0294
 9529W        W11679  14.090   3.723   9.490  0.4238  0.1396 -0.0686
 9530W        W11680   9.359   3.073   8.151  0.2181  0.2160  0.1032
 9531W        W11681   9.530   5.808  27.744  0.0794 -0.0661  0.1920
 9532W        W11682  12.652   0.505   3.540  0.0560 -0.1196 -0.1981
 9533W        W11683   4.313   1.707  29.100  0.0475 -0.0980 -0.1340
 9534W        W11684  14.030   4.704   3.370  0.0928 -0.0030  0.0837
 9535W        W11685  15.340   6.867   9.997  0.0395 -0.0150 -0.0295
 9536W        W11686  17.937   5.095  16.838  0.0841 -0.0349  0.0105
 9537W        W11687  12.877   1.099  16.461 -0.2312  0.0709  0.0693
 9538W        W11688  21.534   6.763   8.112  0.0450 -0.0399  0.1397
 9539W        W11689  12.825   6.591  20.828  0.2679 -0.1650 -0.1490
 9540W        W11690  15.736   3.462  21.145  0.1453 -0.0025 -0.0004
 9541W        W11691   8.724   7.601   9.037  0.1347 -0.2938 -0.1476
 9542W        W11692   4.675   6.497  10.299 -0.4333 -0.1582  0.0259
 9543W        W11693  23.749   0.526   4.337  0.0198  0.2878  0.1182
 9544W        W11694  13.040   7.690   9.157 -0.1466  0.1395 -0.0069
 9545W        W11695   4.469   2.402  24.413 -0.3429  0.4551  0.0738
 9546W        W11696  17.113   6.513  25.947  0.0883 -0.0710 -0.1934
 9547W        W11697  11.174   7.362  28.618 -0.0436  0.0562 -0.0218
 9548W        W11698  20.237   5.952  25.946  0.3286  0.0628 -0.0668
 9549W        W11699  16.675   1.106  30.611 -0.0568  0.1142 -0.0235
 9550W        W11700   4.817   5.591  17.892 -0.0453  0.1472 -0.1836
 9551W        W11701   4.473   1.162  15.475 -0.2316  0.1899 -0.2143
 9552W        W11702   9.418   2.797  23.495  0.1420  0.1212  0.1738
 9553W        W11703  23.306   5.377   9.846 -0.2109 -0.0522  0.1348
 9554W        W11704  10.289   6.418  24.602  0.3516  0.1822  0.1473
 9555W        W11705   3.158   3.903   1.995  0.2906 -0.0267 -0.1168
 9556W        W11706   8.258   1.149   6.105  0.3218 -0.0818  0.1197
 9557W        W11707  22.060   4.841   4.599  0.1967  0.4464  0.0043
 9558W        W11708  20.121   0.531  29.909  0.0583 -0.0548 -0.0136
 9559W        W11709   6.892   3.654  11.155 -0.0070  0.3284 -0.0997
 9560W        W11710   5.466   3.862  16.119  0.0336 -0.3229 -0.1426
 9561W        W11711  18.621   3.170  32.008  0.1620  0.2396 -0.0258
 9562W        W11712  17.811   4.170  15.731  0.0069  0.0106 -0.5228
 9563W        W11713   5.347   4.787  27.915  0.0535 -0.3151 -0.1209
 9564W        W11714  21.224   0.109  11.973  0.0287 -0.0508  0.0292
 9565W        W11715  11.313   5.847  32.201  0.3132  0.2125  0.1663
 9566W        W11716   4.252   7.364  33.024  0.1694  0.0144  0.3308
 9567W        W11717  19.055   1.006  29.478  0.1617 -0.0475 -0.0919
 9568W        W11718  11.377   2.266   6.638  0.0038  0.2273  0.1771
 9569W        W11719  10.937   2.464   7.021  0.0713  0.1700 -0.0322
 9570W        W11720  13.784   3.444   9.753 -0.0368  0.1919 -0.0058
 9571W        W11721  18.952   1.082   9.378 -0.3079  0.2477 -0.2354
 9572W        W11722   5.335   6.352   3.006  0.0352 -0.0025  0.4978
 9573W        W11723  20.329   2.301  18.048  0.1303 -0.1476 -0.3182
 9574W        W11724  21.815   2.105   9.032  0.0679  0.2069  0.1670
 9575W        W11725  19.467   4.186  22.285 -0.1390  0.2115  0.0940
 9576W        W11726   4.647   4.209   7.869  0.0535  0.0455  0.0527
 9577W        W11727  23.585   2.297  23.021  0.1917  0.0619 -0.0777
 9578W        W11728  21.792   7.757   6.466 -0.4965 -0.3095 -0.1154
 9579W        W11729   9.838   1.493  21.651  0.1930 -0.0818  0.1424
 9580W        W11730   9.513   0.820  22.173  0.4079 -0.1954  0.1595
 9581W        W11731  17.925   4.821  19.766  0.1956 -0.1905 -0.1264
 9582W        W11732  19.705   4.960  17.578 -0.0910  0.1612  0.1228
 9583W        W11733  21.153   7.593  30.623 -0.0724 -0.0398 -0.2088
 9584W        W11734  21.449   0.878  22.883  0.2212  0.0462  0.0384
 9585W        W11735  12.379   1.441  32.240 -0.1068 -0.0115 -0.0195
 9586W        W11736  19.036   2.566   2.330  0.1905 -0.1371 -0.2475
 9587W        W11737  17.905   2.975  27.709 -0.0592 -0.2858  0.1124
 9588W        W11738  15.717   3.635   2.816  0.1312 -0.0570  0.0160
 9589W        W11739  10.097   7.643  31.021 -0.2899  0.2053 -0.1517
 9590W        W11740  20.153   1.275  27.266 -0.0541  0.0679 -0.1480
 9591W        W11741  14.516   0.132   8.863 -0.2741  0.3015  0.2863
 9592W        W11742  24.256   1.620  10.060 -0.3410  0.2686 -0.1176
 9593W        W11743  15.366   5.764  30.704  0.2439  0.3582  0.0214
 9594W        W11744   0.124   6.515  25.950  0.0656 -0.1085 -0.0651
 9595W        W11745  16.834   6.585  26.894 -0.2190 -0.0330  0.0603
 9596W        W11746   9.263   3.563  26.760  0.0811 -0.0166 -0.4153
 9597W        W11747  21.665   3.472   7.412  0.1333  0.0321 -0.1062
 9598W        W11748  10.809   3.247   8.490 -0.0599 -0.1001  0.1648
 9599W        W11749  22.312   7.763  23.995  0.2466  0.0598 -0.0620
 9600W        W11750  13.992   5.804  20.503 -0.0822 -0.1420  0.2846
 9601W        W11751  18.579   2.865  19.857 -0.1001  0.0203  0.2161
 9602W        W11752  11.845   3.572  19.283 -0.3097 -0.0498 -0.0347
 9603W        W11753  22.732   1.434   5.260  0.1167  0.0757 -0.0408
 9604W        W11754  10.098   7.051  11.995  0.0951  0.0301  0.0761
 9605W        W11755  12.374   6.919  23.738 -0.0777  0.2073 -0.0492
 9606W        W11756   1.349   6.307   7.470 -0.0976 -0.2836  0.0865
 9607W        W11757   4.900   4.180  10.292  0.0532  0.0762 -0.1212
 9608W        W11758   8.764   5.459  14.145 -0.0314 -0.0636 -0.1981
 9609W        W11759   6.155   6.167   3.157  0.0572  0.1509 -0.1256
 9610W        W11760   1.326   7.337   8.588  0.0745  0.0429 -0.2311
 9611W        W11761  13.400   5.315  23.749 -0.0522  0.0051  0.0857
 9612W        W11762   9.278   3.193  11.955 -0.1465  0.1409  0.2065
 9613W        W11763   4.002   3.623  17.785  0.0084 -0.0359 -0.0166
 9614W        W11764  21.101   2.961   1.618 -0.0533 -0.0766 -0.0087
 9615W        W11765   0.555   6.986   6.792 -0.1053 -0.0379 -0.0394
 9616W        W11766  11.147   2.811  30.047 -0.1647  0.1298  0.1272
 9617W        W11767  23.242   0.883  10.381  0.0363  0.2113  0.0731
 9618W        W11768  19.732   1.506  27.276 -0.2448 -0.0125 -0.0224
 9619W        W11769  15.421   1.617   0.907 -0.2511 -0.0382 -0.2789
 9620W        W11770   5.794   0.048  28.601  0.0728  0.1437 -0.2184
 9621W        W11771   6.186   0.954   5.672 -0.1366 -0.2151  0.0044
 9622W        W11772   9.487   5.444  12.962  0.1109  0.3098 -0.0591
 9623W        W11773   1.239   1.294  21.899  0.1392  0.0479  0.2910
 9624W        W11774   5.902   5.497  17.678 -0.5729  0.0884  0.0184
 9625W        W11775  21.330   7.347  12.999 -0.3282  0.5453  0.0189
 9626W        W11776   2.672   3.897  24.061 -0.0290 -0.0200  0.0412
 9627W        W11777   6.137   5.016  24.194  0.0643 -0.1368 -0.1947
 9628W        W11778   8.049   0.843   8.891  0.0638  0.0659  0.1232
 9629W        W11779  20.422   1.146   1.053  0.0384  0.2189 -0.0902
 9630W        W11780  20.374   4.280   1.101 -0.3733  0.2061 -0.5281
 9631W        W11781  18.858   5.248  21.704  0.2319 -0.6670 -0.2450
 9632W        W11782  14.350   3.633  15.977 -0.2140  0.0123  0.1118
 9633W        W11783  12.124   3.759   7.294 -0.1433  0.2126 -0.0574
 9634W        W11784   8.536   0.169  28.891 -0.4193 -0.2697 -0.0845
 9635W        W11785   3.523   1.431  14.711 -0.0880 -0.1250  0.0515
 9636W        W11786  17.513   0.767  26.736 -0.0518  0.1856 -0.1648
 9637W        W11787  22.181   2.209  21.874 -0.1545 -0.0500 -0.0256
 9638W        W11788  14.782   4.786   6.470 -0.2990 -0.1201  0.1174
 9639W        W11789   3.048   1.869  10.527  0.1507 -0.0524 -0.4043
 9640W        W11790  12.070   5.300   6.706 -0.0549  0.3840 -0.0474
 9641W        W11791  17.704   2.629  28.139 -0.1923  0.2370  0.1012
 9642W        W11792  15.097   1.928   0.693 -0.0574 -0.0673  0.0704
 9643W        W11793   5.473   0.445  25.067 -0.0213  0.0860 -0.1485
 9644W        W11794  19.324   6.254  28.690 -0.0973 -0.0416  0.1167
 9645W        W11795   4.768   3.487  29.459 -0.0542  0.0644  0.0238
 9646W        W11796   7.510   6.138  28.697 -0.0121  0.0211 -0.1758
 9647W        W11797   5.101   0.567  16.676 -0.0186  0.1162  0.1253
 9648W        W11798  24.762   4.558   0.617  0.1845  0.2362 -0.1985
 9649W        W11799  15.362   3.897   4.154  0.1465 -0.0356  0.0856
 9650W        W11800   7.833   7.559  30.017 -0.2578  0.2946  0.0634
 9651W        W11801   2.270   3.604  29.426 -0.0537 -0.0455 -0.0112
 9652W        W11802  17.457   1.439  24.622 -0.2232 -0.0378  0.2081
 9653W        W11803  10.151   5.360  13.017  0.2947  0.3081  0.1500
 9654W        W11804  15.902   0.478   7.484  0.2019 -0.2384  0.1228
 9655W        W11805   9.073   6.759   5.386  0.0234  0.4187  0.0332
 9656W        W11806   1.867   6.092   8.250  0.0510 -0.1474 -0.1305
 9657W        W11807  21.093   2.385  31.526 -0.3890 -0.1930  0.3286
 9658W        W11808  12.931   3.379  17.875 -0.0932 -0.2158  0.0978
 9659W        W11809  16.500   4.546  10.746  0.0455 -0.0151 -0.0536
 9660W        W11810   0.906   6.076   8.999 -0.0135  0.3423  0.2135
 9661W        W11811  19.626   4.444  23.741 -0.0045 -0.2616  0.0251
 9662W        W11812  18.077   5.426  29.642 -0.1466  0.3278  0.1894
 9663W        W11813   8.928   6.607   6.579  0.1630  0.0998 -0.2529
 9664W        W11814   0.796   4.187   3.263 -0.2137  0.2102  0.2138
 9665W        W11815   5.131   7.740  13.257  0.1236  0.0648  0.1238
 9666W        W11816  10.844   4.026   6.242 -0.4130  0.0179 -0.0726
 9667W        W11817  17.595   7.346   3.774  0.1576  0.0074  0.0835
 9668W        W11818  17.292   4.280  27.710 -0.3384 -0.0090  0.1707
 9669W        W11819  23.580   3.467  30.301  0.0168  0.4263  0.1520
 9670W        W11820  22.228   0.391  23.030  0.1500 -0.2645 -0.2277
 9671W        W11821   6.256   3.503  30.792 -0.1723  0.0423 -0.4059
 9672W        W11822  20.920   4.122  32.232  0.3240 -0.1491  0.2870
 9673W        W11823  10.147   5.116   9.696 -0.0685 -0.0568 -0.0683
 9674W        W11824  18.125   3.174  16.393 -0.0699 -0.4116 -0.0446
 9675W        W11825   6.712   0.827   2.220  0.2894  0.1607  0.0307
 9676W        W11826  22.362   0.275  23.470 -0.0072  0.1825  0.0316
 9677W        W11827  11.683   5.592  22.401  0.2740  0.0374  0.1220
 9678W        W11828   3.195   5.755  22.483 -0.1427  0.0538  0.0131
 9679W        W11829   7.464   1.649   7.664  0.2022 -0.1071 -0.0896
 9680W        W11830  23.321   3.660   7.109 -0.1194 -0.3132 -0.0960
 9681W        W11831  21.499   4.089  29.454  0.2618 -0.0431 -0.0030
 9682W        W11832   8.871   1.640  22.199  0.0667  0.0527 -0.2822
 9683W        W11833  15.217   1.412  10.400  0.2267  0.1112  0.0649
 9684W        W11834  12.312   4.648   8.057  0.0446  0.0851  0.2317
 9685W        W11835   4.735   4.376   1.105 -0.1874  0.2316  0.0771
 9686W        W11836  16.572   0.320  22.486  0.2263  0.0076 -0.1948
 9687W        W11837  22.005   4.835   1.180  0.1776  0.1004 -0.0275
 9688W        W11838   5.127   3.523  17.337 -0.0188 -0.1039 -0.2612
 9689W        W11839   9.512   6.139  20.574  0.3355  0.2336 -0.1643
 9690W        W11840  21.104   0.731  27.507 -0.1798 -0.1507 -0.0787
 9691W        W11841  13.812   3.408   0.033 -0.3311 -0.1180  0.0575
 9692W        W11842  17.433   4.070  17.729  0.1944 -0.2173  0.1698
 9693W        W11843   0.591   4.384  11.665 -0.1209 -0.0875 -0.2811
 9694W        W11844  24.483   4.587   1.041 -0.1157  0.1704 -0.1128
 9695W        W11845   8.731   2.648   9.522 -0.1051  0.4262 -0.0852
 9696W        W11846  10.700   6.290  26.262 -0.0187 -0.0414  0.0110
 9697W        W11847  17.406   0.508   2.346 -0.2796 -0.1006 -0.3841
 9698W        W11848   8.743   1.994   8.909 -0.3390  0.0360  0.1069
 9699W        W11849  23.748   2.032   4.685  0.1222 -0.0585  0.3647
 9700W        W11850   7.881   3.163  32.015 -0.1324 -0.1803 -0.0229
 9701W        W11851   3.314   0.825  10.423  0.1300  0.0529  0.0999
 9702W        W11852  17.779   6.284  24.612  0.1278  0.0259 -0.5479
 9703W        W11853   7.274   5.346  30.801 -0.4274  0.1086 -0.1348
 9704W        W11854  18.134   6.579  17.582  0.5693 -0.1369 -0.4557
 9705W        W11855  12.380   1.225  24.945  0.2204 -0.4793  0.3400
 9706W        W11856   1.762   7.766  16.836  0.2170  0.0199  0.0155
 9707W        W11857  11.796   5.140  24.532 -0.0939 -0.0784  0.2842
 9708W        W11858  12.879   6.738  20.335 -0.0148  0.2153 -0.0230
 9709W        W11859  10.820   6.402  22.111  0.1607  0.0681  0.0661
 9710W        W11860   0.690   7.333   3.541 -0.0871  0.1656 -0.0874
 9711W        W11861  21.004   7.658  21.076 -0.0260 -0.2088 -0.1311
 9712W        W11862  24.498   7.605  14.251  0.2730  0.2390 -0.1014
 9713W        W11863   1.977   6.857   0.666  0.1592 -0.1062 -0.3394
 9714W        W11864   1.393   6.398   0.707 -0.1202  0.1396 -0.2855
 9715W        W11865   0.143   6.433  25.157 -0.0814 -0.2418 -0.3546
 9716W        W11866   2.059   4.325  28.209 -0.1074 -0.0803  0.5639
 9717W        W11867  22.007   1.425  22.311  0.0997  0.1048  0.1557
 9718W        W11868  23.522   5.668  28.123 -0.1722 -0.2475 -0.3459
 9719W        W11869  13.249   1.494  26.468  0.4002 -0.0022  0.1415
 9720W        W11870   6.969   2.638  11.163  0.0205 -0.0392 -0.0948
 9721W        W11871   4.696   7.689  13.690  0.4210 -0.0285 -0.0788
 9722W        W11872  16.845   6.732  20.960  0.2864 -0.1103  0.1136
 9723W        W11873  19.566   4.800  28.369 -0.0401 -0.3089 -0.3010
 9724W        W11874  11.404   1.117  23.627 -0.0617  0.1688 -0.2869
 9725W        W11875  21.002   0.431   7.919 -0.1157 -0.1828  0.3476
 9726W        W11876   6.654   0.319  11.889 -0.0878  0.2268 -0.0768
 9727W        W11877   4.685   7.799  17.437  0.0509  0.0325  0.0386
 9728W        W11878  24.429   7.415  30.495 -0.1006 -0.1050 -0.0769
 9729W        W11879   7.797   0.109  30.942 -0.2956 -0.4189 -0.2189
 9730W        W11880  17.864   5.863   3.275 -0.0917  0.2267 -0.0310
 9731W        W11881   9.688   6.270   0.147 -0.1049  0.0525 -0.1067
 9732W        W11882   9.090   7.082   8.952  0.3422  0.2509  0.1232
 9733W        W11883   3.870   5.006   5.612 -0.0401 -0.1652  0.1302
 9734W        W11884   4.923   4.194  23.733  0.1655  0.0397  0.2524
 9735W        W11885   3.000   4.707  25.499 -0.0162 -0.0850  0.0778
 9736W        W11886  18.470   4.040  18.633  0.0664 -0.3069  0.5298
 9737W        W11887   3.648   0.717   8.188  0.0140 -0.0104 -0.2206
 9738W        W11888   4.787   7.072   8.017 -0.1836  0.2978 -0.1024
 9739W        W11889  13.284   4.147   6.322 -0.0277  0.1902  0.2153
 9740W        W11890   7.046   3.416   9.118 -0.0183  0.0326  0.2301
 9741W        W11891   6.540   5.748  29.896 -0.2420  0.0864  0.0312
 9742W        W11892   6.952   0.061  30.091 -0.2417 -0.2625 -0.1739
 9743W        W11893  10.447   1.407  19.634 -0.1820  0.0547  0.0491
 9744W        W11894   3.286   4.123  11.585  0.1387  0.1465 -0.0021
 9745W        W11895  13.713   0.150  18.482 -0.0265  0.2181 -0.0866
 9746W        W11896  17.583   2.042  28.805 -0.1915 -0.1936 -0.0003
 9747W        W11897  17.545   6.570  19.791  0.0080  0.1694  0.0022
 9748W        W11898  11.536   1.251  10.857  0.1574 -0.0091  0.0813
 9749W        W11899  22.606   4.070  23.577 -0.1475 -0.0944 -0.0686
 9750W        W11900   5.321   0.825  14.651 -0.3254 -0.2435 -0.2515
 9751W        W11901  17.873   1.200  25.067 -0.0234  0.0411 -0.1319
 9752W        W11902  18.244   5.872   6.541 -0.2478 -0.0410 -0.1353
 9753W        W11903  12.895   5.454   9.030 -0.1675  0.1050  0.1039
 9754W        W11904   2.172   5.806  26.767 -0.0018  0.1987 -0.2976
 9755W        W11905  17.484   0.429  20.782  0.3083  0.2428  0.0593
 9756W        W11906  24.604   4.331  29.862 -0.6316  0.0230 -0.0059
 9757W        W11907  13.219   4.057  29.011  0.2111 -0.0794 -0.0145
 9758W        W11908   1.749   6.341  25.150 -0.0986 -0.0414  0.2401
 9759W        W11909   2.972   4.614  12.879 -0.0644 -0.4536 -0.1877
 9760W        W11910  13.766   1.163  23.777 -0.5303  0.1232  0.0696
 9761W        W11911  14.896   1.453  18.690 -0.1251 -0.0868  0.0236
 9762W        W11912  18.183   3.373  24.783 -0.1492  0.1126  0.0059
 9763W        W11913   0.407   7.046  25.764  0.0604 -0.0092 -0.0339
 9764W        W11914  19.646   1.211   5.477  0.0266 -0.3190  0.1205
 9765W        W11915   5.654   3.385  14.419 -0.0679  0.1389 -0.0426
 9766W        W11916   2.634   7.787  32.812 -0.1541 -0.1519  0.2021
 9767W        W11917  16.246   6.333  25.798 -0.1406 -0.2366  0.0159
 9768W        W11918   2.463   3.039   4.267 -0.2454  0.3581 -0.0169
 9769W        W11919  14.629   6.477  29.608  0.2570  0.1929  0.1020
 9770W        W11920  24.588   2.585  10.795  0.3727  0.1397 -0.0190
 9771W        W11921  16.779   7.156  24.250 -0.1588  0.2443  0.0547
 9772W        W11922   2.171   5.635  14.030 -0.3750 -0.2331 -0.0487
 9773W        W11923  14.549   5.863  28.635 -0.2289 -0.1774 -0.0596
 9774W        W11924  20.480   1.563  18.294 -0.0108 -0.2829  0.0968
 9775W        W11925  16.232   0.334   3.040 -0.0470  0.1312  0.0248
 9776W        W11926  15.478   6.859  22.559 -0.0266  0.1598  0.0646
 9777W        W11927  23.813   6.784  14.029 -0.2034 -0.2351  0.1077
 9778W        W11928  14.370   1.637  27.918 -0.1617 -0.0085 -0.0579
 9779W        W11929  16.827   4.575  14.977 -0.2436 -0.0931 -0.0919
 9780W        W11930  11.046   5.432   2.355 -0.0388  0.1154  0.1195
 9781W        W11931  19.682   0.629   3.882  0.1150 -0.1061  0.0348
 9782W        W11932  23.741   2.114  27.192 -0.1444 -0.3188  0.0739
 9783W        W11933  23.166   4.735  32.929  0.3168  0.2502 -0.0122
 9784W        W11934   8.725   5.199   1.949 -0.1782 -0.2468  0.0827
 9785W        W11935  21.652   7.075  32.713  0.1318  0.0320  0.1460
 9786W        W11936  16.126   4.629  32.950 -0.0006  0.0650  0.1657
 9787W        W11937   8.045   6.694  26.565 -0.0585  0.1686  0.2837
 9788W        W11938  17.924   1.164   0.963  0.0849  0.1338  0.1886
 9789W        W11939   2.266   6.680   4.917 -0.1077 -0.0811 -0.2162
 9790W        W11940   0.961   1.819  31.517 -0.0072 -0.0091  0.1325
 9791W        W11941   3.804   1.638   4.840  0.4226 -0.0727  0.0923
 9792W        W11942   1.682   3.906   7.538  0.0049 -0.0883  0.2333
 9793W        W11943  18.101   3.227  30.165 -0.2211 -0.2215  0.0267
 9794W        W11944  22.084   1.800   9.495  0.0943  0.0036 -0.0954
 9795W        W11945  15.159   2.207  23.522  0.1737 -0.0747 -0.0708
 9796W        W11946   0.679   0.444  25.199 -0.0592  0.0469 -0.1079
 9797W        W11947  11.143   2.859   1.163 -0.0318 -0.1054 -0.2723
 9798W        W11948  22.509   7.535  31.375  0.0256  0.1192 -0.0627
 9799W        W11949  16.162   2.772  19.508  0.2400  0.1874  0.0524
 9800W        W11950  19.448   3.928  32.444  0.0122  0.1112 -0.1373
 9801W        W11951  24.074   0.113   8.003 -0.1561  0.2230 -0.0897
 9802W        W11952   7.104   2.150   5.868  0.1579  0.0716 -0.1368
 9803W        W11953   9.739   0.552  21.146 -0.2667 -0.0580  0.0475
 9804W        W11954   6.748   5.172  16.085  0.0583 -0.1346 -0.1010
 9805W        W11955   0.973   0.642   3.947  0.0807 -0.0930  0.1727
 9806W        W11956   3.426   3.890  14.391 -0.1149  0.0610  0.3579
 9807W        W11957   7.459   4.348   0.327  0.0538  0.1637 -0.0115
 9808W        W11958   9.471   6.718   7.949 -0.0998  0.0312 -0.2138
 9809W        W11959   4.355   6.281  11.354 -0.2189 -0.0698 -0.0227
 9810W        W11960  20.152   1.921   6.711 -0.3501  0.1188  0.0980
 9811W        W11961  22.438   5.057  25.385  0.3040  0.0431 -0.2074
 9812W        W11962  22.304   6.178  23.092 -0.2108 -0.1272  0.0025
 9813W        W11963  12.999   2.199   1.849  0.1087  0.0784  0.0725
 9814W        W11964   9.831   4.679  30.368  0.0929 -0.1669 -0.2018
 9815W        W11965  10.507   0.878  18.900  0.0003  0.0277  0.0397
 9816W        W11966   4.560   5.848  14.334 -0.2950  0.1887 -0.0415
 9817W        W11967   5.898   2.687  24.725  0.0897 -0.3456 -0.0793
 9818W        W11968   8.820   5.956  14.377  0.0497  0.2710  0.2546
 9819W        W11969  21.169   7.717  10.011 -0.0744 -0.0071  0.0036
 9820W        W11970   0.009   5.340   1.450 -0.2607  0.1302 -0.0981
 9821W        W11971   8.540   4.785   1.060 -0.0720 -0.0950  0.3602
 9822W        W11972   5.515   5.684   1.278  0.3086 -0.0465  0.2880
 9823W        W11973  15.314   6.161  17.259 -0.1015  0.1488  0.0402
 9824W        W11974  21.173   2.090  32.604  0.0780  0.0013 -0.3086
 9825W        W11975  16.862   6.719   6.788 -0.0376  0.0821 -0.1979
 9826W        W11976   4.594   5.974  11.775 -0.1827 -0.1629  0.1544
 9827W        W11977   1.649   3.865  31.795  0.0182  0.1626 -0.0148
 9828W        W11978  23.777   2.782  27.028 -0.3088  0.2540  0.1579
 9829W        W11979  23.457   6.002  19.945 -0.0416 -0.0676  0.0892
 9830W        W11980   1.164   2.196   4.555 -0.1603 -0.3175  0.0468
 9831W        W11981  11.621   6.155   2.122 -0.0687 -0.1410 -0.1899
 9832W        W11982  20.042   7.600   5.752 -0.0240 -0.1315 -0.0909
 9833W        W11983   4.201   3.137  12.481 -0.1986  0.2226 -0.1514
 9834W        W11984   9.576   5.268  28.691 -0.4259  0.4762 -0.3318
 9835W        W11985  16.812   4.327  16.022  0.1956 -0.1620  0.2872
 9836W        W11986  19.191   1.703   5.032  0.2934  0.2115 -0.2294
 9837W        W11987   1.929   0.080   9.220  0.1796  0.1443  0.1081
 9838W        W11988  13.756   4.258   4.015  0.1678 -0.2098 -0.0509
 9839W        W11989  12.369   2.248  18.376 -0.2692  0.1075  0.0154
 9840W        W11990   3.402   3.570  24.467  0.0746 -0.1461 -0.0235
 9841W        W11991  10.050   6.416  27.771 -0.2600 -0.0116 -0.1278
 9842W        W11992  16.830   0.400  27.500 -0.0326 -0.1753  0.1117
 9843W        W11993  18.444   5.783  30.200 -0.1160 -0.2199  0.0131
 9844W        W11994  12.769   6.048  17.053  0.1526 -0.0263  0.0220
 9845W        W11995  24.140   6.299   8.557 -0.0809  0.0647 -0.2827
 9846W        W11996  14.229   6.030   3.366  0.0949  0.0414  0.1711
 9847W        W11997  18.432   4.787  15.535  0.3162  0.0124  0.1289
 9848W        W11998  21.764   0.793  31.542  0.0026 -0.0278 -0.0462
 9849W        W11999  22.885   5.893  20.347  0.1243  0.1128 -0.1805
 9850W        W12000   4.295   1.296   6.687 -0.2065 -0.3180  0.0511
 9851W        W12001  21.556   4.226  25.666  0.0202  0.0634 -0.1209
 9852W        W12002  15.679   1.936  23.533  0.0629  0.2664 -0.0098
 9853W        W12003   4.565   1.595  25.591 -0.0237 -0.1061 -0.1072
 9854W        W12004  24.760   3.109   9.115  0.2824  0.1794 -0.2366
 9855W        W12005   2.674   5.800  27.502 -0.2199 -0.1465 -0.0079
 9856W        W12006   5.110   2.490  31.645  0.1861  0.1663 -0.2407
 9857W        W12007   9.773   6.203   5.615  0.0390 -0.1366  0.3968
 9858W        W12008   3.693   2.970  12.704 -0.1098 -0.0504 -0.0956
 9859W        W12009  23.874   3.730   8.515 -0.3963 -0.1158 -0.0522
 9860W        W12010   1.731   0.167   1.098  0.0091  0.2054  0.0071
 9861W        W12011  21.927   2.202   9.849  0.0440  0.0673 -0.0228
 9862W        W12012  24.055   6.912   4.778  0.2253  0.2623 -0.1237
 9863W        W12013   6.629   3.287  23.608  0.0887 -0.0530 -0.1619
 9864W        W12014  10.261   3.588   0.654  0.1470  0.2132  0.2545
 9865W        W12015   1.581   1.372  16.654 -0.1903 -0.0142  0.0199
 9866W        W12016   5.141   1.760   8.040 -0.0050 -0.1692 -0.0616
 9867W        W12017  14.240   2.896  16.652  0.2561  0.4952 -0.0430
 9868W        W12018  17.878   1.281   2.987 -0.1642  0.0648  0.2581
 9869W        W12019   0.968   7.291  25.711 -0.1593  0.1364  0.0608
 9870W        W12020  14.649   6.653  16.825  0.2524  0.1625 -0.1431
 9871W        W12021   6.448   4.145  16.294  0.1353 -0.1664 -0.2909
 9872W        W12022   8.820   7.516  28.453 -0.1790  0.0732  0.0735
 9873W        W12023  21.236   7.155  30.371  0.0291 -0.1576  0.1735
 9874W        W12024  11.308   3.130   8.414  0.3421 -0.2594 -0.1385
 9875W        W12025  12.689   4.110   9.039  0.1319 -0.0942 -0.2153
 9876W        W12026   0.412   2.127   4.335 -0.0593 -0.1780  0.0278
 9877W        W12027   8.953   4.163  12.861  0.2784 -0.2639 -0.1704
 9878W        W12028  19.492   4.959  27.894  0.3370  0.1303  0.0202
 9879W        W12029  19.034   2.054  21.412 -0.1302  0.0497  0.0507
 9880W        W12030  21.266   2.507   7.346  0.0443 -0.4424  0.3152
 9881W        W12031  23.881   4.548   4.506  0.2146  0.0148  0.1397
 9882W        W12032  23.233   6.009   3.955  0.0171  0.0363 -0.1658
 9883W        W12033  14.272   6.506  18.554  0.0033  0.3756  0.0415
 9884W        W12034   1.111   5.019   4.589 -0.0646 -0.1696 -0.2321
 9885W        W12035  13.664   6.807   5.594  0.1681 -0.0327 -0.0020
 9886W        W12036   3.276   2.819   1.245 -0.1193 -0.2706  0.0617
 9887W        W12037  14.541   3.544   8.151 -0.1673 -0.0535 -0.0291
 9888W        W12038  13.876   3.210  16.867 -0.0748 -0.0920  0.0420
 9889W        W12039  15.432   5.431  28.026  0.0337 -0.2544  0.2058
 9890W        W12040  11.051   3.655  32.482  0.0513  0.0919  0.1182
 9891W        W12041  13.682   1.287  17.808 -0.0534  0.1044 -0.0691
 9892W        W12042  21.593   4.868  22.420  0.1285  0.1489  0.1582
 9893W        W12043  14.039   4.600   5.257 -0.0294 -0.0042  0.3123
 9894W        W12044  22.781   4.186  28.816 -0.0208  0.3339 -0.3178
 9895W        W12045  10.284   2.472  30.533  0.3557  0.0182 -0.1922
 9896W        W12046  19.017   6.625  29.776 -0.3381  0.1712 -0.2212
 9897W        W12047  22.670   3.365   9.046 -0.1128 -0.1880  0.2465
 9898W        W12048  11.785   3.493   7.636  0.1408 -0.1625  0.3308
 9899W        W12049   7.591   4.577   5.732 -0.3033 -0.0157 -0.2604
 9900W        W12050   9.404   0.807  24.179  0.0147  0.0252  0.0833
 9901W        W12051   7.381   7.651   5.543  0.2815 -0.2425 -0.1083
 9902W        W12052  20.396   7.591  21.328 -0.0172  0.1961  0.1313
 9903W        W12053  15.712   5.027   8.422 -0.1895 -0.0318  0.0811
 9904W        W12054  18.754   4.383  15.618  0.3599  0.1365  0.3273
 9905W        W12055   8.158   0.370   3.611 -0.1095  0.0443  0.3212
 9906W        W12056   1.782   1.156  25.510  0.0243  0.1796  0.3369
 9907W        W12057  23.785   3.344  28.298  0.0284 -0.0666  0.1193
 9908W        W12058  17.679   6.664  21.561 -0.0284 -0.1702  0.0781
 9909W        W12059  21.680   0.209  27.600  0.1846 -0.1088  0.0697
 9910W        W12060  23.724   7.108   6.263 -0.1572  0.0150  0.0676
 9911W        W12061  15.880   6.030  22.608  0.1365  0.0889  0.2416
 9912W        W12062  18.836   6.332  19.022 -0.0429 -0.0110  0.1873
 9913W        W12063   6.520   0.280  30.917  0.1341  0.1988 -0.0030
 9914W        W12064   9.336   0.425  30.135  0.2752  0.3447 -0.1344
 9915W        W12065   6.458   7.035   8.969 -0.2281 -0.1157  0.3943
 9916W        W12066  17.459   3.868   6.790 -0.0372  0.0626  0.3129
 9917W        W12067  24.068   6.866  25.900 -0.0459 -0.0392 -0.0851
 9918W        W12068  10.566   4.534  19.308  0.0542 -0.0410 -0.0879
 9919W        W12069   1.515   2.228   1.704 -0.2021  0.1816 -0.1229
 9920W        W12070   7.443   5.059  24.261 -0.2352 -0.3450 -0.0695
 9921W        W12071  22.091   5.331   2.547  0.1670  0.1541  0.2297
 9922W        W12072  11.228   3.283  31.821 -0.5501 -0.0099  0.2989
 9923W        W12073   3.397   4.998  28.758  0.2023  0.2206  0.1340
 9924W        W12074  23.432   2.772   1.490 -0.2104  0.1516 -0.1404
 9925W        W12075   1.294   4.319  25.796  0.0169  0.2103  0.0111
 9926W        W12076   2.534   3.190  29.120 -0.0779  0.0058 -0.4209
 9927W        W12077  22.193   6.234  12.853  0.1604  0.0208  0.2710
 9928W        W12078   2.480   3.469  17.708 -0.5787  0.2308 -0.0128
 9929W        W12079   9.527   2.731  25.377 -0.1161  0.0294 -0.2434
 9930W        W12080   9.041   3.596   3.064  0.1905 -0.1216  0.1704
 9931W        W12081  24.838   0.162  23.999  0.1208 -0.1969  0.0558
 9932W        W12082  23.315   6.083  24.529  0.0421 -0.1278  0.2137
 9933W        W12083   4.814   1.799  13.307 -0.1841 -0.2031 -0.1163
 9934W        W12084   8.624   4.647   5.007  0.1077  0.3200 -0.0244
 9935W        W12085   0.420   2.324  10.834 -0.0266 -0.0868 -0.0704
 9936W        W12086  22.566   0.711   3.659  0.2886  0.2374  0.3234
 9937W        W12087   6.861   3.430  28.177  0.2688  0.0858 -0.1172
 9938W        W12088  21.641   6.603  21.111 -0.0150 -0.1682  0.3481
 9939W        W12089  21.909   3.958   9.733 -0.0273 -0.2632 -0.4714
 9940W        W12090   1.219   0.573  14.426 -0.0768  0.1512 -0.0846
 9941W        W12091  19.027   5.089  23.123 -0.0564  0.1231  0.0007
 9942W        W12092   7.815   2.212  31.586  0.0694 -0.2292  0.0160
 9943W        W12093  21.966   2.538   3.992 -0.2675  0.0932  0.0325
 9944W        W12094  22.626   7.315  11.813 -0.2444  0.2348 -0.2678
 9945W        W12095   9.575   1.749   4.830 -0.1784  0.1455  0.1800
 9946W        W12096   9.809   1.357   8.394 -0.1312  0.0341 -0.1743
 9947W        W12097  23.531   2.035  26.406 -0.0511 -0.2733 -0.2880
 9948W        W12098   7.517   1.265   7.030  0.1600 -0.0901 -0.3117
 9949W        W12099  11.281   5.475   8.896  0.1062  0.4097 -0.0570
 9950W        W12100  15.837   1.422   3.887  0.0680 -0.0304  0.0055
 9951W        W12101  16.855   1.593   6.294  0.1118 -0.1933 -0.2742
 9952W        W12102   2.243   4.793   8.246  0.1894 -0.0676 -0.0905
 9953W        W12103  10.755   2.788   2.038  0.1549  0.3957  0.0623
 9954W        W12104   0.994   2.049  26.682 -0.1458 -0.0558  0.0608
 9955W        W12105   7.920   7.518  27.954 -0.3908 -0.2474 -0.2613
 9956W        W12106  20.545   3.532  10.323 -0.0422 -0.1285 -0.2155
 9957W        W12107  23.999   6.330   4.144 -0.1404  0.1355 -0.0044
 9958W        W12108  15.320   6.623  30.174 -0.0781 -0.0412 -0.1230
 9959W        W12109  11.377   6.905   5.481  0.0318 -0.1050 -0.3365
 9960W        W12110   2.067   0.087  29.432  0.0407 -0.0404  0.0611
 9961W        W12111   8.523   7.288  24.109 -0.1139  0.0200  0.1671
 9962W        W12112   3.235   4.007  24.756 -0.0993 -0.1769 -0.2975
 9963W        W12113  15.486   0.752  19.163 -0.0887 -0.2102 -0.0793
 9964W        W12114  23.630   0.809   1.394  0.0592  0.1368 -0.0600
 9965W        W12115  15.557   2.184  32.785  0.1323 -0.4161 -0.0001
 9966W        W12116   0.576   0.392   5.680 -0.0295 -0.2451 -0.2569
 9967W        W12117  15.433   0.061  23.294  0.0993  0.0478 -0.2264
 9968W        W12118  18.606   4.750  32.136  0.0724 -0.0124  0.0937
 9969W        W12119  11.775   6.276  18.862  0.0857  0.1057  0.0145
 9970W        W12120   4.309   7.473  26.565 -0.2748 -0.1363 -0.3375
 9971W        W12121  22.231   5.045   7.173 -0.1096  0.1509 -0.2131
 9972W        W12122  18.307   7.051   1.128  0.1584  0.2077  0.0034
 9973W        W12123   0.966   4.421   1.022 -0.0607  0.0744 -0.2890
 9974W        W12124  11.529   0.818   8.373 -0.0342 -0.1385 -0.0796
 9975W        W12125  24.871   3.205   3.430 -0.1075 -0.5217 -0.4492
 9976W        W12126  17.416   2.172  10.082 -0.2449  0.1412  0.0775
 9977W        W12127  24.681   6.956   3.232 -0.0241 -0.1911  0.1174
 9978W        W12128   1.767   0.088  26.523 -0.1326 -0.1603 -0.0980
 9979W        W12129  16.209   2.496  22.356 -0.1733  0.2300  0.0326
 9980W        W12130  11.398   5.265   9.807 -0.2881  0.3210  0.2690
 9981W        W12131  14.595   7.440   9.818 -0.0521  0.0598  0.1057
 9982W        W12132   6.416   1.848  28.687  0.0596 -0.0743  0.0436
 9983W        W12133   6.144   5.910  26.648  0.1545  0.0785 -0.3889
 9984W        W12134   2.396   0.815   1.972 -0.0723  0.0624  0.2284
 9985W        W12135  12.170   3.648  28.186 -0.1050 -0.0950 -0.0238
 9986W        W12136   2.283   0.349  25.254 -0.2274 -0.0811  0.0550
 9987W        W12137  12.570   4.712   4.383 -0.0574 -0.0698  0.2145
 9988W        W12138   4.473   1.151  17.354 -0.1144  0.2343 -0.2693
 9989W        W12139   5.727   3.261  24.657 -0.3929 -0.1416 -0.0433
 9990W        W12140  21.562   3.289   4.860 -0.0506 -0.3382 -0.0049
 9991W        W12141   6.432   3.635  15.997  0.0850  0.1289 -0.0637
 9992W        W12142   0.194   2.071  28.697  0.2147 -0.0817 -0.1472
 9993W        W12143  20.823   2.796  27.967  0.0626  0.1313  0.0560
 9994W        W12144  10.387   6.201  20.413  0.2987 -0.5573  0.5346
 9995W        W12145   5.707   0.091  23.626 -0.1454 -0.2726  0.0494
 9996W        W12146  21.485   2.583  20.368  0.0160 -0.0858  0.0860
 9997W        W12147   3.182   3.540  11.052 -0.1848  0.0261 -0.1632
 9998W        W12148  10.596   3.830  20.550  0.0231  0.2497  0.1712
 9999W        W12149  20.614   6.978   5.188  0.0133 -0.0481 -0.1463
10000W        W12150   4.678   1.334   9.460  0.0648 -0.0749 -0.4444
10001W        W12151   4.557   4.782   9.348  0.1602  0.1142  0.1942
10002W        W12152   5.630   7.793   0.801 -0.0968  0.0175 -0.1619
10003W        W12153   7.492   3.390   8.787  0.1770  0.3587 -0.2344
10004W        W12154   9.062   5.235  30.166  0.1686  0.2106  0.2690
10005W        W12155   9.349   2.148  32.880  0.2135 -0.2360 -0.0980
10006W        W12156   3.613   3.547  23.861 -0.2184 -0.0634 -0.3508
10007W        W12157   5.416   6.265  15.875 -0.3187  0.0838  0.0660
10008W        W12158  23.542   4.116  23.215  0.2473  0.0913 -0.2244
10009W        W12159  22.160   1.943  23.322  0.0089  0.0590 -0.3115
10010W        W12160   7.191   5.919   5.306 -0.1468  0.2243 -0.1056
10011W        W12161  14.257   7.344  25.266  0.0720  0.1040 -0.2027
10012W        W12162  22.053   4.304  29.385  0.0867 -0.0561  0.2000
10013W        W12163  12.776   3.393  16.419  0.0378 -0.0636  0.0409
10014W        W12164  10.323   7.370  28.438 -0.0456  0.0146  0.1187
10015W        W12165  13.125   4.500   1.806  0.0250  0.2857  0.0171
10016W        W12166   8.315   4.768  25.880 -0.0097 -0.0677  0.2741
10017W        W12167  19.852   3.101  31.194 -0.0053  0.0336 -0.0450
10018W        W12168   2.597   7.302   9.265 -0.1917  0.1683 -0.1760
10019W        W12169  18.290   1.612  16.175 -0.0392  0.1044  0.0423
10020W        W12170  22.696   3.684  13.367 -0.2094  0.1901  0.0146
10021W        W12171   4.938   2.368  23.863  0.2453  0.1264  0.0769
10022W        W12172   7.874   6.751   0.448 -0.2176 -0.0558 -0.0527
10023W        W12173  14.793   5.415  16.049 -0.0219  0.0013  0.1860
10024W        W12174  21.760   3.175   0.813  0.0024 -0.1859 -0.1574
10025W        W12175  24.654   6.451  30.746 -0.2010  0.1541  0.1585
10026W        W12176  15.517   1.140  25.295 -0.0346  0.1124 -0.2703
10027W        W12177   0.336   5.404   8.928 -0.0487 -0.0577  0.1973
10028W        W12178  22.946   1.946  30.670  0.0307  0.2237  0.0485
10029W        W12179  24.108   1.461  14.515 -0.2550  0.3812  0.2463
10030W        W12180   3.480   5.163   8.886 -0.3789  0.1918 -0.3570
10031W        W12181  15.195   5.265  19.293 -0.3887 -0.2627  0.0661
10032W        W12182  23.935   2.020  24.598 -0.1348 -0.0692 -0.2481
10033W        W12183   8.410   5.524  29.487  0.1078  0.1836 -0.0912
10034W        W12184  10.609   4.678   3.617 -0.0967 -0.1901 -0.0693
10035W        W12185  15.587   1.646   9.077  0.2034 -0.0534  0.0730
10036W        W12186   1.428   6.876  15.119 -0.0995  0.1511 -0.2017
10037W        W12187  13.791   4.326   8.434  0.2363  0.2755  0.1144
10038W        W12188   3.433   4.384  24.432 -0.1275  0.3254 -0.1664
10039W        W12189  19.655   6.277  29.507 -0.2311 -0.0518  0.0346
10040W        W12190  24.446   5.906  13.928 -0.1173 -0.0110 -0.1633
10041W        W12191   0.855   1.751   2.417 -0.1905  0.1673  0.0885
10042W        W12192   5.663   1.165   0.652  0.0497  0.2410  0.3912
10043W        W12193  18.290   1.404  24.755 -0.0727 -0.0676 -0.2838
10044W        W12194  12.569   1.456  17.850 -0.3925  0.1195  0.0226
10045W        W12195   6.853   4.322  28.003  0.0543 -0.0769 -0.0161
10046W        W12196   1.941   7.446  26.677  0.1344 -0.0949 -0.1311
10047W        W12197   7.895   5.121  11.301 -0.1705  0.0784 -0.2269
10048W        W12198  21.879   5.398  28.984 -0.2992  0.1104 -0.0517
10049W        W12199   2.000   2.684  13.687 -0.0218  0.5893  0.0521
10050W        W12200  24.457   5.520  29.150  0.0576  0.0971  0.1061
10051W        W12201   1.962   6.484  27.860 -0.2239 -0.1343  0.2173
10052W        W12202  10.036   3.663  28.745  0.0077 -0.1509 -0.0860
10053W        W12203  22.202   3.674  20.383 -0.0862 -0.2674  0.0327
10054W        W12204  17.388   4.206  29.191 -0.2636  0.1911  0.0149
10055W        W12205  16.043   0.236  21.647 -0.1569 -0.0123 -0.0398
10056W        W12206   6.835   5.483   7.310 -0.1556 -0.1493  0.0589
10057W        W12207   2.970   5.560  29.625 -0.0418 -0.0234  0.2600
10058W        W12208  10.345   6.559   1.357 -0.0528  0.4466 -0.0228
10059W        W12209  10.145   6.961   5.913 -0.2253 -0.0854  0.2543
10060W        W12210  24.832   2.806  25.492  0.2572 -0.1418 -0.1490
10061W        W12211   9.210   1.580  32.633 -0.3701 -0.0543 -0.0068
10062W        W12212  13.850   4.167  21.508 -0.1549 -0.0990  0.0515
10063W        W12213   6.074   6.856   4.703  0.1229  0.0281 -0.2042
10064W        W12214  20.635   4.872  22.748 -0.2114 -0.0460 -0.1421
10065W        W12215  23.879   4.356  30.159  0.3677  0.2192  0.0913
10066W        W12216  15.540   4.524  16.802 -0.3102  0.0317  0.0636
10067W        W12217  23.046   5.486  13.586  0.1304 -0.0157  0.1924
10068W        W12218   2.474   1.346   9.658 -0.0710 -0.1776 -0.2580
10069W        W12219  10.550   7.631  19.945  0.0741 -0.4935  0.0795
10070W        W12220  14.349   4.976  31.006  0.0177  0.0503 -0.0213
10071W        W12221  14.093   2.878   3.224 -0.2374 -0.3552  0.0443
10072W        W12222  14.654   6.720  28.765 -0.0019 -0.0950  0.0848
10073W        W12223  23.734   3.891  27.965  0.3322  0.0601  0.2853
10074W        W12224   1.514   7.043  14.405  0.5158  0.3353  0.1107
10075W        W12225   1.062   4.320  14.756 -0.1110 -0.0635  0.0369
10076W        W12226  12.178   2.657  22.764 -0.0656 -0.0940 -0.0230
10077W        W12227  11.303   1.726  22.886  0.2264 -0.2115  0.0868
10078W        W12228   4.409   6.139   6.049  0.2213 -0.5163  0.1370
10079W        W12229  10.501   6.479  32.785  0.0939  0.0035 -0.0480
10080W        W12230   1.395   1.493  22.822  0.1378  0.0451  0.1177
10081W        W12231  20.929   6.373   6.498  0.1389  0.0417 -0.1757
10082W        W12232   3.640   3.221  25.761  0.3571 -0.0386 -0.0767
10083W        W12233   2.979   2.715  16.670 -0.1461  0.0198  0.0754
10084W        W12234   1.636   0.941  27.592  0.0890  0.0313 -0.0001
10085W        W12235  14.223   7.553  23.614 -0.2679  0.0706 -0.1195
10086W        W12236  23.113   4.700  25.806 -0.1310  0.1083 -0.1135
10087W        W12237  17.376   3.902   5.256 -0.2312 -0.0028  0.0989
10088W        W12238   1.011   7.662  32.388 -0.1132  0.0598 -0.1785
10089W        W12239  17.523   5.919  17.201 -0.0711  0.1214  0.2583
10090W        W12240  17.484   2.560   0.041  0.2222  0.0649  0.1384
10091W        W12241  21.950   6.233   0.399 -0.4939  0.3721  0.3502
10092W        W12242  11.645   5.625  29.218 -0.1290 -0.0969  0.2925
10093W        W12243   9.111   4.322   8.844 -0.1053  0.2389 -0.0307
10094W        W12244   6.852   5.794   2.490 -0.2623 -0.2779  0.0384
10095W        W12245   3.481   7.689   9.758 -0.0003 -0.0993 -0.1981
10096W        W12246  19.260   0.422  32.400  0.0876  0.1618 -0.3028
10097W        W12247  17.000   5.639  14.488  0.0118  0.0614 -0.0469
10098W        W12248   9.995   5.230  10.534 -0.0521 -0.0890 -0.1210
10099W        W12249  24.489   0.598   5.901  0.0038  0.0472 -0.0991
10100W        W12250   7.151   0.842  32.422 -0.1972 -0.0748 -0.1323
10101W        W12251  13.282   0.664  22.521 -0.0027  0.1220  0.0404
10102W        W12252   8.427   6.074  29.619  0.1449 -0.0792  0.2311
10103W        W12253  14.704   5.250  18.181 -0.0197  0.0281  0.0615
10104W        W12254  14.472   4.993  28.017 -0.0481 -0.1757  0.3616
10105W        W12255   6.413   0.185  31.526  0.1801 -0.0328 -0.1216
10106W        W12256  23.556   0.200  23.447  0.0469 -0.0495 -0.1133
10107W        W12257  17.662   0.645   5.436  0.1649 -0.1442 -0.2079
10108W        W12258  13.413   0.863  29.885  0.0943 -0.1314 -0.3140
10109W        W12259  19.112   3.884  29.715 -0.0660 -0.0843  0.0303
10110W        W12260   1.526   5.123  25.687 -0.0103  0.1345 -0.0952
10111W        W12261  15.922   4.727   2.262 -0.1758  0.2305 -0.0694
10112W        W12262   3.201   1.393   1.027  0.0441  0.0659  0.2191
10113W        W12263  23.816   4.678   9.171 -0.0984  0.2134 -0.1470
10114W        W12264   4.122   5.582   7.567 -0.1329  0.0489  0.0897
10115W        W12265   2.318   4.894  16.711  0.4823  0.1275  0.1487
10116W        W12266  11.842   7.242   5.560 -0.3084 -0.1256  0.1851
10117W        W12267   5.740   1.016   6.686  0.0296  0.1302  0.0099
10118W        W12268   3.767   6.447   6.682  0.2348 -0.0448  0.0671
10119W        W12269  14.047   0.739  26.491  0.0545 -0.2385  0.1236
10120W        W12270   4.775   3.201   3.033  0.0327  0.0135 -0.1957
10121W        W12271  12.947   1.682  32.025  0.1131 -0.0784 -0.1137
10122W        W12272  14.053   5.911  30.560 -0.0301 -0.1327  0.1144
10123W        W12273   7.654   1.692  12.028 -0.0552 -0.1096  0.0965
10124W        W12274  14.950   4.853   4.593 -0.1214 -0.0419  0.1238
10125W        W12275  16.634   4.419  17.657 -0.0703 -0.3978 -0.1324
10126W        W12276  11.924   0.281  29.420  0.1658 -0.0676 -0.1976
10127W        W12277  16.807   2.453  15.817 -0.4025 -0.1810 -0.1293
10128W        W12278   3.238   7.359  10.442  0.2706  0.3343  0.0387
10129W        W12279   5.419   3.252  26.763 -0.0118 -0.2740 -0.0271
10130W        W12280  15.913   5.412  29.398  0.2861 -0.0862 -0.3637
10131W        W12281  19.757   6.041   6.095 -0.0008 -0.0182 -0.0823
10132W        W12282  12.090   0.829  17.793 -0.1229 -0.0756  0.1160
10133W        W12283   9.449   1.301  26.669  0.1966 -0.1869  0.2633
10134W        W12284  21.967   5.392   1.181 -0.2675 -0.1247  0.0650
10135W        W12285  23.834   4.238  29.049 -0.3863 -0.2174 -0.2950
10136W        W12286  19.445   4.430   3.840 -0.1162 -0.1576  0.1673
10137W        W12287  20.264   4.201  11.728  0.2204  0.2812  0.2572
10138W        W12288   2.214   6.740  29.149  0.1563  0.2893 -0.3486
10139W        W12289   1.494   0.987  15.133  0.0735 -0.0089  0.0345
10140W        W12290  14.438   4.003  26.996  0.0006 -0.2563 -0.0906
10141W        W12291   4.726   4.261  15.834  0.3667  0.2473  0.0165
10142W        W12292  14.876   7.082   2.036 -0.1972 -0.0698  0.0085
10143W        W12293  20.585   3.046  27.180 -0.3337 -0.1437  0.0419
10144W        W12294  14.414   5.557   3.247 -0.1053  0.1673  0.0681
10145W        W12295   9.602   1.792  11.558 -0.1176  0.0173  0.0994
10146W        W12296  17.147   7.282  32.220  0.5825  0.5736 -0.0524
10147W        W12297  20.183   4.596  27.321 -0.0485 -0.0431 -0.0857
10148W        W12298   5.500   6.451   6.072  0.0652  0.1680  0.1162
10149W        W12299   9.462   4.469  22.628 -0.3840 -0.0309  0.0114
10150W        W12300   9.371   2.056  29.305  0.0133  0.1831  0.3612
10151W        W12301  24.723   6.380  24.772 -0.0303  0.1585  0.0328
10152W        W12302   8.245   0.311  31.193 -0.1184  0.1200 -0.0608
10153W        W12303  24.836   2.750   0.077  0.1133 -0.1302 -0.2149
10154W        W12304  16.709   5.370  23.440 -0.1738  0.1298  0.0705
10155W        W12305  16.925   6.240   0.812 -0.0006 -0.1575  0.0643
10156W        W12306   2.557   4.510  16.376  0.1419  0.0157 -0.2198
10157W        W12307   5.367   6.830  14.718 -0.4342 -0.1050 -0.0012
10158W        W12308  21.393   3.981  20.824 -0.3045  0.4179 -0.0247
10159W        W12309  10.819   6.766   7.827 -0.3689 -0.0528  0.0349
10160W        W12310  22.415   2.208  30.000  0.0478  0.1042 -0.0768
10161W        W12311   8.684   6.315   0.870  0.0282  0.2848 -0.0678
10162W        W12312  11.679   4.834  20.587 -0.2067  0.0795 -0.3719
10163W        W12313   1.038   7.470  11.879  0.1265  0.3810  0.0620
10164W        W12314  13.251   3.057  27.961 -0.1278  0.0252  0.1986
10165W        W12315  24.744   1.355   3.225  0.0208  0.2187 -0.0834
10166W        W12316   5.543   5.236  31.851  0.0362  0.0716 -0.0634
10167W        W12317  20.800   3.751  20.590  0.0050 -0.1113  0.0256
10168W        W12318  22.472   0.512   4.191 -0.2375 -0.1931 -0.0363
10169W        W12319   7.989   1.539  28.984  0.4013 -0.2975  0.1918
10170W        W12320  11.288   2.030   1.649 -0.1865 -0.1326  0.2536
10171W        W12321   6.134   3.883   8.832 -0.2482  0.0461 -0.2623
10172W        W12322   0.013   5.839  15.438  0.3079 -0.1856 -0.0739
10173W        W12323  17.168   5.867   1.097 -0.0580 -0.0040 -0.0763
10174W        W12324  22.724   5.922  32.906 -0.2317 -0.0207 -0.1103
10175W        W12325  19.612   1.464   7.740 -0.1823 -0.0282  0.2558
10176W        W12326   0.198   4.029  31.596 -0.1047  0.0061  0.1981
10177W        W12327   7.319   7.401  24.579 -0.0833 -0.1053 -0.0996
10178W        W12328  15.593   0.559  17.422 -0.0923  0.1573  0.0229
10179W        W12329  10.565   0.016  31.450  0.0002 -0.3903 -0.1145
10180W        W12330   3.386   2.199  10.769 -0.3243  0.1625  0.0028
10181W        W12331  14.783   5.873   9.738  0.1637  0.1584 -0.0297
10182W        W12332   1.712   0.599   6.602  0.1379 -0.1304  0.0317
10183W        W12333   3.987   0.882  18.532 -0.0378  0.1930  0.0737
10184W        W12334   0.890   5.498  24.641  0.2195 -0.3300 -0.1592
10185W        W12335  10.323   5.870  10.269  0.0660 -0.3458  0.1393
10186W        W12336   0.454   1.054   1.351  0.1471  0.1222 -0.1569
10187W        W12337  20.787   6.775  29.661  0.1968 -0.1040  0.0136
10188W        W12338  12.007   4.838  32.081 -0.0214  0.5079 -0.1517
10189W        W12339  16.923   3.955  25.845  0.1809 -0.0803 -0.0949
10190W        W12340  10.813   1.592   6.576 -0.0693  0.1763 -0.2173
10191W        W12341   8.203   2.109  10.509 -0.2331  0.0473 -0.2070
10192W        W12342  23.934   3.935   2.800 -0.0083 -0.0761 -0.0805
10193W        W12343  15.941   3.371  22.329 -0.2576  0.1669 -0.2905
10194W        W12344  11.191   4.554  30.286 -0.0266  0.0025  0.1578
10195W        W12345  13.419   0.414  18.850  0.2335 -0.1483  0.1287
10196W        W12346  14.056   5.082   4.003  0.0659 -0.0253  0.0318
10197W        W12347  20.439   2.280   1.819  0.0878 -0.1162  0.0464
10198W        W12348   1.903   3.161   6.347 -0.0806  0.0638 -0.0920
10199W        W12349   2.338   6.429  24.014  0.2824 -0.0541  0.2179
10200W        W12350  24.141   3.736  10.630 -0.1908  0.1144  0.1570
10201W        W12351  14.154   4.638  26.359 -0.2402  0.2985 -0.1768
10202W        W12352  23.723   0.298   6.740  0.3390 -0.3056 -0.1774
10203W        W12353   3.497   4.952   1.635 -0.1825 -0.0516  0.0730
10204W        W12354   1.494   5.449   5.740 -0.0659 -0.0177 -0.1238
10205W        W12355   0.157   2.251  27.801 -0.0876  0.0315  0.0709
10206W        W12356  16.028   1.893  20.469 -0.2996  0.2784  0.0601
10207W        W12357   2.467   4.955  32.082 -0.2949  0.0000  0.1129
10208W        W12358  23.233   1.335   1.384 -0.0862 -0.0462 -0.2154
10209W        W12359  22.110   6.143  20.416 -0.2385 -0.2514 -0.0991
10210W        W12360   2.116   4.011   9.212 -0.0182  0.2273 -0.0180
10211W        W12361  17.790   7.599   1.450 -0.0976  0.1227 -0.2596
10212W        W12362  19.657   6.459  17.607 -0.1335  0.0140 -0.1175
10213W        W12363   8.297   0.744  22.673  0.0904 -0.0659  0.1267
10214W        W12364   9.981   0.914  28.991 -0.3632 -0.3236  0.1549
10215W        W12365  24.008   0.647  31.242  0.0282  0.1139  0.2595
10216W        W12366   6.248   4.664  32.490  0.0186  0.0268 -0.0029
10217W        W12367   4.493   3.319   4.816  0.0674  0.0959 -0.1543
10218W        W12368   3.082   7.129  13.344  0.1586 -0.1480  0.1355
10219W        W12369   9.614   2.822  11.828  0.0225 -0.3425 -0.2590
10220W        W12370  12.994   5.100   9.753 -0.2178 -0.2997 -0.2019
10221W        W12371  22.674   3.848  12.425 -0.0664 -0.1597  0.0901
10222W        W12372  17.346   0.648   3.226 -0.0113 -0.1139  0.0424
10223W        W12373   5.543   6.906  15.205 -0.0523  0.1345 -0.0779
10224W        W12374   3.876   6.717  18.203 -0.0432  0.1155  0.1715
10225W        W12375  24.144   0.080  29.929 -0.0959  0.0994 -0.1348
10226W        W12376  13.720   5.540   6.427 -0.0957  0.1364 -0.0768
10227W        W12377  15.183   1.327  15.254 -0.0838  0.3453  0.0699
10228W        W12378   3.099   1.266  13.198 -0.0444 -0.3675 -0.2345
10229W        W12379  12.046   6.692  20.110  0.0120  0.2195  0.1389
10230W        W12380   6.609   0.831   5.440 -0.2341  0.3653 -0.2132
10231W        W12381  15.755   6.617  31.150  0.0880 -0.1695  0.0068
10232W        W12382  14.817   6.607  18.739  0.2763  0.1387  0.1085
10233W        W12383  18.124   2.436  29.830 -0.0338  0.0600 -0.2485
10234W        W12384   7.588   6.274  22.616  0.0119  0.0329  0.0910
10235W        W12385   7.718   6.195  14.224  0.1320  0.2931 -0.2408
10236W        W12386  18.837   3.860  31.553 -0.0592  0.2031 -0.0934
10237W        W12387   6.800   0.031  17.323 -0.0324 -0.2009 -0.1234
10238W        W12388   5.438   0.245   6.061 -0.0754 -0.0077  0.0436
10239W        W12389  24.644   2.061  28.737  0.1392 -0.1300  0.1378
10240W        W12390  13.839   2.105  27.090 -0.0894  0.0618  0.1231
10241W        W12391  20.796   7.791  28.130  0.3275 -0.0904 -0.0361
10242W        W12392  13.916   3.205   1.493  0.1171  0.0921 -0.4080
10243W        W12393  12.673   6.519  21.318  0.0013 -0.2423 -0.1513
10244W        W12394  16.928   3.027  15.370 -0.1493 -0.2125  0.1956
10245W        W12395   0.283   6.712  23.334  0.1574 -0.0783  0.2677
10246W        W12396  12.530   5.265  19.204 -0.1614 -0.0046  0.2570
10247W        W12397   5.654   4.658  25.533 -0.0158  0.1496  0.0680
10248W        W12398  13.003   5.086   6.434 -0.1366  0.1212 -0.0225
10249W        W12399   5.998   5.833   6.923 -0.0673  0.3519  0.0592
10250W        W12400  18.629   2.578  15.853  0.1133  0.0581 -0.1303
10251W        W12401  15.359   4.448  22.707  0.1768  0.2155  0.1676
10252W        W12402  24.924   3.607  31.380  0.0122 -0.1720  0.2285
10253W        W12403   1.749   2.880  14.023  0.0816  0.0499  0.1705
10254W        W12404  18.262   1.144  15.693  0.1039 -0.0376 -0.3862
10255W        W12405   5.758   6.659  10.024  0.0621  0.3958  0.1802
10256W        W12406   5.695   5.456   9.526  0.1422 -0.0851  0.2263
10257W        W12407   1.854   7.272   8.816 -0.0709 -0.1011  0.3003
10258W        W12408  19.955   5.582  27.441  0.1967  0.2362  0.0617
10259W        W12409  16.587   6.270  18.828  0.2417  0.4036 -0.0205
10260W        W12410  15.938   1.005  23.714 -0.1415 -0.4248  0.1965
10261W        W12411  23.415   6.632   2.357  0.0484  0.0321 -0.0481
10262W        W12412  16.193   4.646   6.982  0.2752 -0.0962  0.1390
10263W        W12413  16.490   4.541   4.511  0.0060  0.1204 -0.1418
10264W        W12414   9.913   6.085  30.548  0.2416 -0.0267  0.3405
10265W        W12415  17.435   6.310  14.936  0.2099  0.1767  0.2355
10266W        W12416  20.734   4.729  30.479  0.1133 -0.2281 -0.0904
10267W        W12417  13.349   5.122  28.068  0.2748 -0.1868 -0.0997
10268W        W12418  21.453   4.286   0.625 -0.2216  0.4401 -0.0278
10269W        W12419  18.765   6.787   4.896  0.1992 -0.1361  0.0254
10270W        W12420  19.573   1.420  23.047  0.0330 -0.0375  0.1370
10271W        W12421   1.131   7.650  22.790 -0.1822  0.1442 -0.0143
10272W        W12422   4.878   2.300   5.956  0.0551 -0.0316  0.0736
10273W        W12423  14.293   3.511  27.168 -0.0733 -0.1929  0.1801
10274W        W12424   9.228   1.034  26.194  0.1939 -0.2650  0.3197
10275W        W12425   1.316   3.629  30.934  0.0611  0.0335 -0.0284
10276W        W12426   0.982   5.812  31.845  0.2391 -0.1294  0.4968
10277W        W12427   4.043   3.361  27.829 -0.0361  0.1892  0.1355
10278W        W12428   3.564   1.619   0.125  0.3550 -0.0051 -0.1750
10279W        W12429  15.847   2.996   7.978 -0.1143  0.1406 -0.2314
10280W        W12430   3.019   5.496  17.701  0.4682  0.1188  0.0243
10281W        W12431   9.737   3.292  24.732 -0.0232 -0.1405 -0.0617
10282W        W12432  13.633   2.802  21.972  0.0679  0.0793  0.2655
10283W        W12433   5.148   6.151  25.051 -0.0756 -0.1286  0.1069
10284W        W12434  16.446   6.742   5.100  0.1494  0.1341 -0.0769
10285W        W12435  10.041   5.684  29.353  0.1443  0.1725  0.0404
10286W        W12436   7.641   7.045  24.496  0.0153  0.1650  0.2560
10287W        W12437  16.118   4.282  22.910  0.1327 -0.0669 -0.0250
10288W        W12438  20.371   1.302   3.262  0.1058 -0.0657  0.1512
10289W        W12439  16.456   6.203  31.520 -0.1151  0.0109 -0.2362
10290W        W12440  21.285   3.805   0.386  0.0232  0.3270 -0.0059
10291W        W12441   5.628   1.652  32.645 -0.2950  0.1592  0.0482
10292W        W12442  23.746   3.441  29.739 -0.0245 -0.0323 -0.1096
10293W        W12443   1.352   5.457   4.317 -0.3276  0.3242 -0.3498
10294W        W12444  11.744   7.473  19.043 -0.2201  0.0114 -0.0521
10295W        W12445  24.125   3.197   4.153 -0.2324 -0.1824 -0.2423
10296W        W12446  10.029   3.003  24.454 -0.0401  0.2642  0.1588
10297W        W12447   8.809   6.680   8.779 -0.2002 -0.1945  0.2228
10298W        W12448   1.932   3.120  13.385 -0.2573 -0.0547 -0.1114
10299W        W12449  20.267   6.235   5.341 -0.0869  0.2532  0.0421
10300W        W12450  16.165   2.580  30.806  0.0957 -0.2764 -0.0648
10301W        W12451  21.336   6.488  24.899  0.0662 -0.0270 -0.3735
10302W        W12452  22.248   5.933  13.608 -0.2001 -0.0443 -0.0039
10303W        W12453  16.733   6.537  28.837  0.1747 -0.1230  0.1272
10304W        W12454  16.204   6.128  20.015  0.0712  0.2162  0.0549
10305W        W12455   3.155   2.374   0.452  0.0119  0.1657 -0.2662
10306W        W12456   1.550   1.844  23.220 -0.1857  0.0765 -0.0203
10307W        W12457  15.108   5.851  15.679 -0.0977  0.0715 -0.0836
10308W        W12458   4.102   1.572  15.616 -0.1813 -0.2254 -0.1060
10309W        W12459   6.676   0.814  28.201  0.1652 -0.2688  0.0391
10310W        W12460  24.143   1.925   3.846 -0.1322  0.2984 -0.0110
10311W        W12461   1.254   4.151   2.222  0.3135  0.1806  0.0820
10312W        W12462  20.528   5.652  28.280 -0.0050  0.0200 -0.0171
10313W        W12463  23.832   3.150   3.594  0.1779  0.0486  0.2414
10314W        W12464  10.967   3.291  26.750  0.0278 -0.1836  0.0957
10315W        W12465  14.899   6.184  18.028 -0.0167 -0.0331 -0.0460
10316W        W12466   0.932   5.507  21.938  0.0058  0.1622 -0.0861
10317W        W12467   1.394   4.350  10.463  0.1394 -0.0575 -0.0361
10318W        W12468  14.923   1.248  17.301  0.1376  0.0919  0.1405
10319W        W12469   1.813   3.540   8.493  0.3669  0.0500  0.2895
10320W        W12470  13.449   0.281  30.693  0.3615 -0.2715 -0.0768
10321W        W12471  15.009   2.728  17.758  0.1727  0.2160 -0.1221
10322W        W12472  17.894   7.429  32.509 -0.0864  0.0619 -0.0866
10323W        W12473  17.937   7.649  29.482 -0.1613  0.0595 -0.1218
10324W        W12474  17.380   1.119  22.881 -0.0525 -0.1326  0.0976
10325W        W12475   5.475   7.464   4.461  0.4495  0.1018 -0.2238
10326W        W12476  22.296   3.839   6.237  0.0748 -0.3165  0.0784
10327W        W12477  13.093   3.123  31.134  0.0191  0.0491  0.1411
10328W        W12478   4.908   3.142   7.753  0.4515 -0.0596  0.1486
10329W        W12479   1.934   0.978  25.934 -0.0098  0.3056  0.0553
10330W        W12480  16.002   5.096  20.177 -0.1004 -0.2059 -0.0339
10331W        W12481  23.331   2.952   3.385 -0.0058 -0.1008 -0.0652
10332W        W12482   5.998   7.691   3.496 -0.0482  0.2858 -0.2166
10333W        W12483   8.565   6.230   3.715 -0.0818  0.0891 -0.0452
10334W        W12484  12.086   2.571   0.870 -0.1777  0.0365 -0.2006
10335W        W12485  16.404   5.821  29.134 -0.0975 -0.1919  0.1189
10336W        W12486  13.151   4.912   5.417 -0.1771 -0.1738 -0.1670
10337W        W12487  10.481   1.461  29.709  0.2436 -0.1716  0.1191
10338W        W12488  19.747   4.856  23.463 -0.0157 -0.1739  0.0645
10339W        W12489  10.552   4.186   6.676  0.0771 -0.2837  0.0785
10340W        W12490  23.173   7.259   9.396  0.1158 -0.1429  0.0356
10341W        W12491   8.576   1.156   2.370 -0.0784  0.4473 -0.0384
10342W        W12492   9.339   6.585  22.067 -0.3273  0.3784 -0.2402
10343W        W12493  11.326   7.535  12.001  0.1875 -0.2573 -0.0491
10344W        W12494  22.546   3.730   1.322 -0.1194 -0.1155  0.0447
10345W        W12495   2.353   2.441  11.773  0.0896 -0.0780 -0.0637
10346W        W12496  19.092   6.517   6.152  0.0418  0.0801  0.3677
10347W        W12497   3.922   2.237  10.138 -0.3575  0.0760 -0.1560
10348W        W12498   0.309   2.506  29.393  0.1138 -0.2718  0.1500
10349W        W12499   7.407   4.850   0.068 -0.1255  0.1910 -0.0698
10350W        W12500  20.282   6.790   2.384  0.1617  0.0520  0.1948
10351W        W12501   6.318   2.895  12.152  0.2619  0.1898 -0.0165
10352W        W12502   4.957   6.224  24.205 -0.2772 -0.2623  0.0853
10353W        W12503  21.297   3.502  20.116  0.0046  0.0656  0.0552
10354W        W12504   1.852   4.752  11.565  0.0725 -0.2569  0.0103
10355W        W12505   8.004   7.167  16.464  0.0055 -0.2925  0.1735
10356W        W12506   1.334   7.791   0.760  0.2081  0.0969  0.3702
10357W        W12507  13.362   4.948  26.277 -0.3082 -0.1549  0.0433
10358W        W12508  11.028   4.786  24.798 -0.0824 -0.0192 -0.0281
10359W        W12509   3.328   2.442  11.843  0.0417 -0.2579 -0.0410
10360W        W12510  24.589   2.726  29.637 -0.1182  0.0775 -0.0179
10361W        W12511  18.272   4.087  18.163 -0.0753 -0.0784  0.2758
10362W        W12512  18.833   3.224  19.618  0.1936 -0.4771  0.0706
10363W        W12513   8.970   3.637  32.433 -0.3157 -0.0822 -0.3844
10364W        W12514   2.157   1.649  27.076  0.0244  0.1470  0.0226
10365W        W12515   2.982   7.098  24.370  0.0192  0.2058 -0.1996
10366W        W12516   5.568   6.094   7.028  0.0162 -0.1569 -0.0779
10367W        W12517   2.109   6.174  30.002  0.0907  0.2243 -0.1740
10368W        W12518  12.235   7.723   4.882  0.1131 -0.0652  0.1902
10369W        W12519   4.862   0.892  18.184  0.1548 -0.1104  0.1443
10370W        W12520   7.774   7.729  22.813 -0.0566 -0.0190  0.1045
10371W        W12521   4.688   6.197  25.246  0.0870  0.1866  0.0634
10372W        W12522   1.084   5.226  23.294  0.0552  0.3902 -0.2293
10373W        W12523   6.031   3.512   8.342  0.5211 -0.0628  0.0020
10374W        W12524  23.019   6.333  21.616  0.2950 -0.0802 -0.0348
10375W        W12525  21.530   3.104   5.707  0.1706 -0.0881 -0.2142
10376W        W12526  20.560   3.110  17.734  0.2535  0.1983 -0.3823
10377W        W12527   2.132   2.327   6.436 -0.0365  0.1286 -0.0705
10378W        W12528   7.030   1.698   6.113  0.1271 -0.0013 -0.6141
10379W        W12529  22.612   4.328  30.296  0.0931 -0.1304 -0.2151
10380W        W12530  12.981   7.336  21.817  0.1224  0.0348 -0.1547
10381W        W12531  20.477   1.734   2.611 -0.1157  0.3583 -0.0583
10382W        W12532  13.394   7.757  33.023  0.0375 -0.0018  0.1229
10383W        W12533  21.135   0.495  23.251  0.3305  0.0321  0.0897
10384W        W12534   5.214   1.820  16.614 -0.0543 -0.2706 -0.1374
10385W        W12535  15.310   6.107  16.753  0.1513  0.0483  0.0486
10386W        W12536   6.086   5.653  22.117  0.1705  0.1027 -0.0495
10387W        W12537  17.822   0.310  10.575  0.3513  0.0444 -0.1773
10388W        W12538  11.476   4.930   8.559 -0.1752  0.0772  0.3442
10389W        W12539  18.295   6.708   8.185  0.0207 -0.0130  0.4183
10390W        W12540  10.385   6.637  23.632 -0.3545  0.1527  0.0512
10391W        W12541   6.202   1.822  18.504 -0.0550  0.0035  0.2227
10392W        W12542  14.948   2.984   3.972 -0.1237 -0.0945  0.0412
10393W        W12543  13.425   0.766  24.753 -0.3305  0.0363 -0.0050
10394W        W12544  17.428   1.404  23.812  0.0414  0.3003 -0.0326
10395W        W12545  12.492   0.830  31.631 -0.1217 -0.0504  0.0757
10396W        W12546  11.408   4.697  27.915 -0.0197 -0.3141 -0.1956
10397W        W12547  15.150   3.217   0.813 -0.0703 -0.2003 -0.1008
10398W        W12548   9.755   2.604  10.395 -0.0466  0.1534  0.0745
10399W        W12549  15.870   5.335  20.995  0.1033  0.3090  0.0141
10400W        W12550   4.115   5.895   5.252 -0.0268 -0.3209 -0.2305
10401W        W12551  17.582   1.426   8.961 -0.0441  0.2284  0.1781
10402W        W12552  12.278   4.808  30.912 -0.0593 -0.2104  0.0224
10403W        W12553  17.879   4.077   8.155  0.0052  0.2959 -0.0782
10404W        W12554   7.426   0.036  24.019 -0.0725 -0.0748 -0.0896
10405W        W12555   4.277   5.575  16.867  0.1823  0.0886  0.2223
10406W        W12556  17.453   3.310  19.819 -0.0239 -0.2587 -0.0667
10407W        W12557   9.486   6.017  12.929 -0.1633 -0.0924 -0.0891
10408W        W12558  20.699   2.982   5.141 -0.1196  0.0186 -0.3434
10409W        W12559  20.768   4.872   0.494 -0.3144 -0.1805 -0.0827
10410W        W12560  24.748   5.146  27.161  0.1111  0.5579 -0.0845
10411W        W12561   7.042   3.577  23.430  0.1272  0.1903 -0.3659
10412W        W12562   3.885   1.483  18.514 -0.1443  0.2529 -0.2203
10413W        W12563   8.960   3.536  27.113  0.3893 -0.0530  0.1060
10414W        W12564  12.023   7.734   9.455 -0.1250  0.0482  0.0261
10415W        W12565   4.132   1.798  31.846 -0.0351  0.1346 -0.1997
10416W        W12566  17.207   2.680  23.679 -0.2095  0.0121 -0.0355
10417W        W12567   8.327   0.968   0.614 -0.1463 -0.0985  0.2189
10418W        W12568  13.955   5.273  23.832 -0.1433 -0.2889 -0.1426
10419W        W12569  20.097   6.045   3.987  0.1030 -0.1650  0.0488
10420W        W12570  18.201   6.457   4.595  0.1340  0.0210 -0.0340
10421W        W12571   6.301   6.605  14.005 -0.2209  0.0916  0.3368
10422W        W12572  22.533   6.443  31.684  0.1656  0.0921 -0.1529
10423W        W12573   7.970   3.085   1.844 -0.0665 -0.1416 -0.1014
10424W        W12574  12.554   3.332  27.982 -0.0779 -0.1281 -0.1670
10425W        W12575   7.075   0.048  14.895 -0.2754  0.0048 -0.0069
10426W        W12576  15.787   2.372  20.640  0.1870 -0.2322 -0.2441
10427W        W12577   2.353   1.406  17.295 -0.1643  0.1787  0.0325
10428W        W12578   2.603   3.999  31.739 -0.0018 -0.0673  0.0988
10429W        W12579  21.589   0.850   9.161 -0.0279 -0.0019  0.0904
10430W        W12580   4.322   0.570  26.503 -0.1935  0.1542 -0.0282
10431W        W12581  18.849   4.367  21.445  0.2162  0.0817 -0.1641
10432W        W12582   8.323   2.100  14.734  0.0519 -0.2196  0.1449
10433W        W12583   1.366   6.019  10.160 -0.0398  0.2761 -0.1522
10434W        W12584  23.520   3.900   5.382 -0.1377  0.1161  0.0243
10435W        W12585   6.476   7.116  11.990 -0.1091 -0.3016  0.1622
10436W        W12586  13.874   7.638   0.246  0.1348  0.0602 -0.1998
10437W        W12587  22.571   4.586  32.929 -0.1581  0.2319  0.1430
10438W        W12588  24.358   5.844   2.314  0.1421  0.0935  0.0358
10439W        W12589  18.346   1.830   9.074  0.1714 -0.0135  0.0223
10440W        W12590  14.150   1.211  27.808 -0.0427  0.1112  0.1235
10441W        W12591  11.731   2.747  24.575 -0.0673  0.1907  0.2851
10442W        W12592  17.267   5.919   2.448 -0.0792  0.2884 -0.1324
10443W        W12593  24.846   2.922   1.293  0.1541  0.2417  0.0646
10444W        W12594   4.105   0.136   5.357 -0.2055 -0.0950  0.2043
10445W        W12595  14.454   1.627   9.320 -0.1071 -0.0640  0.0806
10446W        W12596  18.081   7.668   9.404  0.0802  0.1733  0.1625
10447W        W12597  19.697   1.244   3.603  0.0626 -0.1614 -0.2206
10448W        W12598   0.025   5.471  23.965  0.1071 -0.0383  0.2581
10449W        W12599   2.633   2.527   6.803  0.0604 -0.2348 -0.1142
10450W        W12600  19.681   4.029   2.481 -0.1925 -0.1044 -0.2669
10451W        W12601   5.642   3.839   1.148  0.1288  0.3375 -0.0912
10452W        W12602  20.634   6.455  23.560  0.0056 -0.0633 -0.0878
10453W        W12603  14.726   1.349  10.286 -0.1134 -0.1445 -0.1176
10454W        W12604  20.212   7.600   0.789  0.2235  0.0310  0.1604
10455W        W12605   7.787   3.159   5.392  0.0806 -0.0565  0.1796
10456W        W12606   9.188   7.758   3.872  0.0531 -0.0533  0.1705
10457W        W12607  18.354   0.834  23.875 -0.3108  0.1975 -0.1023
10458W        W12608   5.357   1.332  24.195 -0.0648  0.0416  0.1835
10459W        W12609  18.075   6.730   6.945  0.0480  0.0378 -0.1775
10460W        W12610  14.637   0.637   0.439  0.1248  0.1562  0.1815
10461W        W12611  10.158   0.238  29.713 -0.1371  0.0398 -0.4754
10462W        W12612  22.725   4.190   9.222  0.0533  0.0264 -0.0639
10463W        W12613  17.568   5.250  18.199  0.0324  0.2008 -0.0679
10464W        W12614   1.351   6.209  29.431  0.3527 -0.1841  0.1485
10465W        W12615  24.158   6.385  24.806  0.0580  0.0734  0.2921
10466W        W12616  24.055   2.974  13.941  0.0825 -0.3799 -0.0455
10467W        W12617  16.817   5.763   9.409 -0.1052 -0.0118 -0.1505
10468W        W12618  23.142   7.264  12.726  0.1100 -0.0357  0.1030
10469W        W12619  24.810   3.303  12.909  0.0982  0.0558 -0.0719
10470W        W12620   3.883   7.553  29.289 -0.1363  0.0239 -0.1048
10471W        W12621  18.118   6.311   9.453  0.0548  0.1577 -0.2479
10472W        W12622  19.929   2.124   4.390  0.0004 -0.0496  0.2944
10473W        W12623  19.915   7.739  25.681  0.0086 -0.0961 -0.1566
10474W        W12624   2.903   3.412  10.095  0.4628  0.1180 -0.1726
10475W        W12625   2.900   7.692  11.231  0.1248 -0.1672  0.0966
10476W        W12626   3.143   2.263  10.039  0.1633 -0.0505 -0.1677
10477W        W12627   9.482   3.832  32.281 -0.2009  0.1967  0.1568
10478W        W12628   8.513   5.128  15.824  0.6099  0.1669  0.0447
10479W        W12629  13.556   0.377  23.416  0.1479 -0.0749  0.1547
10480W        W12630  21.687   0.815  20.157 -0.1800 -0.0050  0.1914
10481W        W12631  21.755   6.853  26.884 -0.0944 -0.0132 -0.1923
10482W        W12632   6.126   3.301   9.636  0.2021  0.1693  0.2423
10483W        W12633   4.147   4.192   6.016  0.3069 -0.3343  0.1359
10484W        W12634   6.592   1.902   5.200 -0.0095 -0.1115  0.1185
10485W        W12635   3.258   0.359  30.155 -0.5646  0.1475 -0.4151
10486W        W12636  21.663   6.615   8.963 -0.0677  0.0777 -0.1425
10487W        W12637  16.366   2.297  24.080 -0.1560  0.2352 -0.1906
10488W        W12638  14.394   5.378   7.738  0.1973 -0.0516 -0.0510
10489W        W12639  20.683   0.906  23.852 -0.1588  0.1637  0.0666
10490W        W12640  21.443   5.051  10.440  0.1187  0.0309  0.1102
10491W        W12641   5.980   5.878  12.402  0.0493 -0.1585 -0.0463
10492W        W12642   1.564   5.488   6.536  0.0517  0.0726 -0.3522
10493W        W12643  11.671   4.284  22.083 -0.1147 -0.1672  0.0227
10494W        W12644  23.749   4.734  27.586  0.2154  0.1748  0.0532
10495W        W12645   6.019   6.536  32.375 -0.0697 -0.2414  0.1818
10496W        W12646  14.189   1.824  28.844  0.2900  0.2663 -0.0774
10497W        W12647   1.112   2.743   8.376  0.3321 -0.1817  0.1206
10498W        W12648  22.812   0.174   2.217 -0.0505  0.0454  0.1404
10499W        W12649  23.595   2.651  13.269 -0.1762 -0.1337 -0.1377
10500W        W12650  14.410   3.879  32.173  0.0229 -0.1730  0.1553
10501W        W12651  13.689   1.513   0.211  0.1777 -0.2337  0.0548
10502W        W12652  15.397   4.082  27.609  0.2586  0.0882  0.0298
10503W        W12653  17.760   2.037  29.758  0.2281  0.0054  0.1812
10504W        W12654  23.384   5.715  32.647 -0.1114  0.1131 -0.2845
10505W        W12655   4.351   7.152   6.434  0.2165 -0.1359 -0.0977
10506W        W12656  15.501   6.892   5.567  0.4812 -0.1798 -0.1364
10507W        W12657  22.075   7.342  31.511  0.1072  0.0574 -0.0815
10508W        W12658  11.308   4.958   5.429 -0.0062 -0.1520 -0.1107
10509W        W12659  23.386   1.034   9.696 -0.0234  0.2824  0.1828
10510W        W12660   2.240   3.630  14.073  0.2935  0.0136  0.4789
10511W        W12661  13.753   1.556   6.992  0.3811 -0.2755 -0.1900
10512W        W12662   6.261   2.396   6.065 -0.1568  0.1496  0.0927
10513W        W12663  20.738   0.773  18.677  0.0773  0.0028 -0.2624
10514W        W12664  14.486   3.825  21.369  0.0337 -0.1392 -0.0606
10515W        W12665  22.817   5.665  10.432 -0.0145 -0.1426 -0.0931
10516W        W12666  23.117   5.703  12.645  0.1148 -0.3857  0.0451
10517W        W12667  20.153   1.224  30.921 -0.0055  0.3884  0.0679
10518W        W12668   7.247   3.934   9.934 -0.1593  0.0444  0.0373
10519W        W12669   9.981   6.303  10.703  0.3900 -0.4468 -0.0828
10520W        W12670  12.151   7.203   8.771  0.3633  0.2526  0.0563
10521W        W12671   3.319   1.405   4.777 -0.2534 -0.1301 -0.1421
10522W        W12672   8.756   5.947  13.457  0.2972 -0.0095  0.2270
10523W        W12673  21.833   1.022  19.580  0.0883 -0.5261 -0.2232
10524W        W12674  14.299   5.561  16.584 -0.0462  0.1806 -0.0371
10525W        W12675  24.005   3.788   4.140  0.1244 -0.0933 -0.0556
10526W        W12676  21.431   3.539  23.753  0.0062 -0.1956  0.1978
10527W        W12677  17.987   2.683   3.070  0.1122  0.1310 -0.1545
10528W        W12678  21.995   1.986   1.059 -0.0555  0.1296  0.2125
10529W        W12679  11.068   2.562  24.896  0.0111 -0.2502  0.2373
10530W        W12680  22.557   6.288   2.407 -0.1320 -0.2308 -0.1936
10531W        W12681   0.441   0.058  12.986  0.2123  0.0634 -0.0118
10532W        W12682  11.790   6.774   5.246 -0.1518 -0.1099  0.0569
10533W        W12683   8.557   4.427  11.395 -0.3890  0.2379  0.2011
10534W        W12684  13.793   5.577  23.502 -0.2629  0.1376 -0.0536
10535W        W12685   0.637   2.001  13.480  0.1651 -0.0918 -0.0985
10536W        W12686  15.636   5.823  18.857 -0.3662 -0.0251 -0.0402
10537W        W12687  15.976   7.269  31.122 -0.0302  0.0450  0.2286
10538W        W12688  17.654   6.168  15.345  0.5521  0.1991 -0.0070
10539W        W12689  15.502   6.535  29.008  0.2602 -0.1116  0.0979
10540W        W12690  15.640   6.231  26.995  0.2000 -0.2754 -0.1993
10541W        W12691   3.179   4.033  25.972  0.4155  0.3921 -0.0013
10542W        W12692   6.913   2.931  22.777  0.1776 -0.2553  0.0512
10543W        W12693  17.796   7.233   5.652  0.0032 -0.2597 -0.0134
10544W        W12694  22.936   2.649  20.633 -0.0415 -0.3729 -0.1449
10545W        W12695  11.765   7.763  25.069  0.1886  0.1070  0.0345
10546W        W12696   3.233   4.409  16.076  0.2348  0.2034  0.0944
10547W        W12697  20.973   6.193  10.415  0.1562 -0.1101  0.0796
10548W        W12698   4.864   2.319  32.091  0.1916 -0.1015 -0.1434
10549W        W12699   6.022   7.021   3.345 -0.0513  0.1300 -0.4166
10550W        W12700   7.924   0.537   2.034  0.0293  0.1210 -0.2088
10551W        W12701  16.053   1.722   8.829 -0.1808 -0.1805 -0.0705
10552W        W12702  13.718   2.180  18.860  0.1766 -0.0652 -0.0164
10553W        W12703  14.938   5.747  18.391 -0.1752  0.1576  0.3037
10554W        W12704  21.686   7.354  31.958 -0.2971 -0.0425  0.0151
10555W        W12705  20.894   2.363  29.531  0.0646  0.1631  0.1016
10556W        W12706   7.081   5.761  31.613 -0.0919  0.1659  0.1003
10557W        W12707   1.217   1.540  16.426  0.1483  0.1320  0.1091
10558W        W12708  11.589   5.887  10.353 -0.0605  0.2541 -0.1167
10559W        W12709  13.566   2.339  23.693 -0.1292 -0.1088  0.3801
10560W        W12710  17.664   6.579  17.677 -0.1185 -0.4342  0.0865
10561W        W12711  10.554   5.342  26.539  0.2727 -0.0604 -0.1357
10562W        W12712  14.503   4.041   0.458  0.0404  0.0157  0.0197
10563W        W12713  16.156   1.679   9.330  0.3066 -0.0947  0.1025
10564W        W12714   7.496   0.543  23.735  0.1187  0.0740  0.0751
10565W        W12715  12.270   6.064   4.714 -0.1105  0.0728  0.1093
10566W        W12716  24.773   5.987  14.964 -0.1423 -0.0240 -0.1260
10567W        W12717  13.062   0.744   0.102  0.0322  0.1302 -0.0082
10568W        W12718   3.999   2.533  13.824  0.3236 -0.3016  0.1973
10569W        W12719  19.799   0.364   3.505 -0.0903  0.1915 -0.0829
10570W        W12720   1.938   7.592  11.649 -0.4362 -0.3528  0.2784
10571W        W12721  24.810   0.425  31.286 -0.1608 -0.4162 -0.4859
10572W        W12722   3.005   3.870  13.704 -0.0551  0.1384  0.0627
10573W        W12723  17.093   5.086  18.227 -0.2115 -0.1964 -0.0652
10574W        W12724  17.535   4.930  26.516  0.2943  0.2357  0.0433
10575W        W12725  16.029   6.488  26.238  0.0547 -0.5358 -0.0103
10576W        W12726   3.132   3.023  17.726 -0.0994  0.1339  0.1721
10577W        W12727   9.047   6.979  26.388  0.3320  0.0369 -0.1473
10578W        W12728  10.209   7.573   7.547  0.0793 -0.0639  0.1448
10579W        W12729  20.123   0.257  23.574  0.0262 -0.0735  0.0248
10580W        W12730   2.844   1.753   3.661  0.1836 -0.2516  0.0372
10581W        W12731  20.952   4.097   9.255  0.1101 -0.3819 -0.0878
10582W        W12732   4.679   2.951   6.494  0.1766 -0.0699  0.1759
10583W        W12733  24.935   0.359  12.899  0.1038 -0.0408  0.0434
10584W        W12734  13.106   7.548   7.920 -0.0798 -0.0301 -0.0994
10585W        W12735   8.985   1.101   1.268  0.0081 -0.2025 -0.2304
10586W        W12736   5.093   4.056   1.394 -0.2547  0.1090  0.2578
10587W        W12737  15.598   7.628  30.965  0.0764  0.0162 -0.1973
10588W        W12738  14.494   0.112  23.397  0.0234  0.2496 -0.0181
10589W        W12739   9.416   1.422  27.953  0.2962 -0.1145  0.0766
10590W        W12740  21.233   3.023  24.953  0.0255 -0.1983 -0.3535
10591W        W12741   9.534   1.817  32.288  0.3073  0.1871  0.2386
10592W        W12742  18.038   1.783  26.677 -0.2142  0.1306  0.1162
10593W        W12743   5.670   3.740   1.643 -0.1463 -0.0651  0.0958
10594W        W12744   6.376   5.829  30.890  0.1314  0.0155  0.0265
10595W        W12745   4.843   0.119   9.422 -0.0712  0.0824 -0.1592
10596W        W12746  12.742   6.149   5.077 -0.0430 -0.2071 -0.1139
10597W        W12747   1.769   0.732  31.336  0.0926 -0.1757 -0.2983
10598W        W12748   7.521   2.354   4.396  0.1655 -0.0572 -0.3227
10599W        W12749  14.115   0.667   0.610  0.0767 -0.0277  0.0288
10600W        W12750  21.595   5.232  21.258  0.0079  0.0806 -0.0208
10601W        W12751   2.916   5.851  25.856 -0.0720 -0.2269 -0.0543
10602W        W12752   3.068   6.333  16.122 -0.0186 -0.0297 -0.2168
10603W        W12753   2.774   4.207  11.588 -0.0956  0.1779  0.0552
10604W        W12754  19.012   3.726  27.903  0.3131  0.1310 -0.0813
10605W        W12755   7.728   7.768  11.678  0.0600  0.1480  0.1938
10606W        W12756  15.007   6.566   3.508 -0.2494  0.1966 -0.4403
10607W        W12757   3.254   2.328  31.970 -0.0269 -0.0670 -0.3683
10608W        W12758   6.753   2.377  25.886 -0.3549 -0.0561 -0.0964
10609W        W12759   4.491   3.221   6.049 -0.1681  0.0130 -0.2407
10610W        W12760   8.068   5.904  10.731 -0.1192  0.1641 -0.0272
10611W        W12761   9.771   6.278  31.773 -0.1532 -0.1450  0.1203
10612W        W12762   6.862   1.171   2.710 -0.0340 -0.1141  0.1811
10613W        W12763   5.751   1.851  14.413 -0.0184 -0.0589 -0.2779
10614W        W12764   0.731   4.614   9.168 -0.2196  0.0806  0.0701
10615W        W12765  21.543   6.724  30.088  0.0401  0.2165  0.0302
10616W        W12766  24.385   6.786  20.650 -0.2677 -0.1132 -0.1769
10617W        W12767  10.739   6.447  13.204 -0.0111 -0.0342  0.1024
10618W        W12768   3.588   4.755   5.289  0.0080 -0.0846 -0.2473
10619W        W12769   0.106   0.576  21.057  0.1071 -0.2435 -0.0759
10620W        W12770   8.128   0.633   2.472  0.1280 -0.0465  0.0376
10621W        W12771   0.263   5.964  30.947  0.0292  0.3874 -0.1604
10622W        W12772   7.688   7.492   2.649  0.0634 -0.0200  0.0541
10623W        W12773  22.255   2.115  30.759 -0.0732 -0.1607 -0.2128
10624W        W12774  10.656   2.421  23.810  0.2308  0.0561  0.0390
10625W        W12775   8.981   2.663  10.044 -0.1152  0.2738 -0.0605
10626W        W12776  14.954   4.573  31.451 -0.1348 -0.1510  0.3901
10627W        W12777  18.807   1.195   1.837  0.1917  0.1396  0.1255
10628W        W12778  15.411   4.821  29.471 -0.3156  0.1479 -0.0784
10629W        W12779   7.681   6.193   2.148  0.0146  0.0051  0.2198
10630W        W12780   5.204   5.859   6.723  0.2991  0.0869 -0.2455
10631W        W12781   3.723   3.891  10.893  0.2795  0.1433  0.0502
10632W        W12782  10.900   5.555   3.178  0.4045  0.1379  0.0571
10633W        W12783   2.845   3.831  23.482 -0.1605  0.2560 -0.1341
10634W        W12784   4.196   5.567   3.465  0.0762 -0.1380  0.2228
10635W        W12785  14.602   4.526  22.123 -0.1332  0.1010  0.2126
10636W        W12786  11.620   6.332   9.996 -0.2067  0.2709 -0.2951
10637W        W12787  23.962   6.873  11.161 -0.1982 -0.3289 -0.0969
10638W        W12788   6.233   2.714  22.999 -0.0194 -0.2212  0.2066
10639W        W12789  19.913   5.608   4.133 -0.1547  0.0271  0.1986
10640W        W12790   9.533   6.978  10.492  0.2367  0.0195 -0.0688
10641W        W12791   5.198   1.630  29.166  0.0869  0.1331  0.0414
10642W        W12792  18.849   7.668  31.426 -0.0279  0.2154  0.1480
10643W        W12793  15.332   1.268   7.480  0.1343 -0.0346 -0.0973
10644W        W12794   5.247   0.725  11.154  0.1166 -0.0319  0.0061
10645W        W12795   9.376   0.471  23.323  0.1557  0.2551 -0.0506
10646W        W12796   5.732   1.135  26.218  0.0320  0.0207  0.0411
10647W        W12797   7.653   2.337  14.697 -0.0112  0.1384 -0.0697
10648W        W12798   7.150   4.815  27.534 -0.0028  0.1916  0.2571
10649W        W12799  11.030   0.443  27.301  0.0196  0.1880  0.0220
10650W        W12800   5.684   5.791  24.390 -0.1713  0.0668  0.1332
10651W        W12801  23.141   4.431  23.166 -0.0048 -0.1529  0.1772
10652W        W12802   9.583   0.721  20.710 -0.1688  0.0955 -0.0920
10653W        W12803   6.216   5.891   6.204  0.2705  0.0741 -0.0315
10654W        W12804   5.750   0.440  18.082  0.0625 -0.0008 -0.4335
10655W        W12805   1.898   2.887  31.677 -0.1211 -0.1432  0.0439
10656W        W12806  22.890   5.846  28.863  0.1668 -0.2348  0.0508
10657W        W12807  13.139   7.006   7.052  0.2850  0.1041 -0.1978
10658W        W12808   7.516   0.459  32.612 -0.0188  0.0353  0.5395
10659W        W12809  12.384   7.107  20.433 -0.0651 -0.1254 -0.4330
10660W        W12810  14.461   3.095  25.259  0.2404  0.0189  0.1727
10661W        W12811   2.451   0.708  10.855 -0.2811 -0.1561 -0.0607
10662W        W12812  14.074   2.836  19.446  0.1669  0.1112  0.0823
10663W        W12813  24.774   0.526   2.754 -0.1389 -0.0031 -0.3134
10664W        W12814   7.681   4.009  22.482 -0.0920  0.1220  0.1797
10665W        W12815  14.419   5.732  22.040 -0.3257 -0.0361  0.0412
10666W        W12816  15.832   4.003  23.825  0.1682 -0.0647  0.2947
10667W        W12817  20.749   2.429  28.304  0.0054  0.0600  0.2076
10668W        W12818   9.847   7.354  10.972  0.2536 -0.0619  0.0856
10669W        W12819  22.445   5.684  23.009 -0.1190  0.1212  0.4209
10670W        W12820   4.948   1.124   2.123  0.4454  0.2831 -0.3330
10671W        W12821  10.792   6.041  24.377 -0.0769  0.1216 -0.0425
10672W        W12822  20.510   1.076  23.337 -0.1329 -0.0910  0.0385
10673W        W12823   1.338   6.548   5.020 -0.3087 -0.0301  0.2096
10674W        W12824   9.687   6.534   2.096 -0.3912  0.0802  0.2560
10675W        W12825  12.012   1.150  21.321 -0.0939  0.2323 -0.0337
10676W        W12826  11.931   4.177  25.261 -0.1498 -0.1743 -0.0091
10677W        W12827  11.968   6.319  19.686 -0.3898 -0.2062  0.0714
10678W        W12828   8.530   3.945   7.432 -0.0716 -0.2537 -0.0675
10679W        W12829   3.383   3.636  26.829  0.1075  0.0080 -0.1242
10680W        W12830   8.801   0.877  12.178  0.0619 -0.1092 -0.1300
10681W        W12831  15.793   0.877  21.905 -0.1132 -0.3098  0.0084
10682W        W12832   8.664   0.916   5.849 -0.4372  0.0679 -0.0125
10683W        W12833   1.032   5.001  14.370  0.0519  0.2396 -0.3132
10684W        W12834  10.407   4.253  27.078  0.1203 -0.1593  0.0131
10685W        W12835  23.443   1.612  19.907 -0.3908 -0.1561  0.0670
10686W        W12836  18.710   7.479  22.014 -0.0399  0.0278  0.0711
10687W        W12837  22.506   0.789  21.167  0.1300 -0.1311 -0.1398
10688W        W12838  16.989   2.603  32.859  0.0286 -0.0731 -0.0599
10689W        W12839  20.462   6.277   6.665  0.0985 -0.3220 -0.0028
10690W        W12840   7.241   4.502  31.184 -0.1195 -0.1818  0.0474
10691W        W12841   4.309   0.492  14.155 -0.0499  0.2160 -0.0699
10692W        W12842   0.494   1.871  15.897  0.1287 -0.0606  0.1007
10693W        W12843   8.908   2.032   3.304 -0.0330  0.3927  0.2980
10694W        W12844   2.750   0.901   9.608 -0.1298 -0.0774 -0.0848
10695W        W12845  19.422   4.390   5.556  0.0566  0.1179 -0.0106
10696W        W12846   1.937   4.602   9.331  0.0932  0.0718  0.0544
10697W        W12847   3.739   5.168  27.274 -0.0727 -0.0413 -0.0862
10698W        W12848   5.185   1.268  29.879  0.2530  0.0698 -0.1572
10699W        W12849   9.136   0.666  30.493 -0.1574 -0.1255  0.1022
10700W        W12850   7.406   4.634   9.437  0.3464  0.0829 -0.0719
10701W        W12851   8.400   0.599  15.026 -0.2635  0.0379 -0.2623
10702W        W12852  20.868   5.666   1.759 -0.0406  0.1463  0.2371
10703W        W12853   6.344   2.292  16.076 -0.2265 -0.0463 -0.3722
10704W        W12854   8.187   3.825  14.795  0.1959 -0.2786 -0.0498
10705W        W12855   9.792   5.189   1.649 -0.2505  0.2673  0.0952
10706W        W12856  21.378   2.043  24.735  0.1939 -0.0387 -0.1767
10707W        W12857  19.384   2.174  29.079 -0.2433 -0.4808  0.2863
10708W        W12858  20.953   1.468  31.549  0.0536  0.0533  0.1413
10709W        W12859   4.838   3.308  26.139  0.3444 -0.0704  0.1093
10710W        W12860   5.137   4.925  26.663  0.0053  0.2135 -0.0020
10711W        W12861  13.318   4.528  10.263  0.2180 -0.0074  0.1298
10712W        W12862  15.434   5.295  30.342  0.0561 -0.2191 -0.1312
10713W        W12863  19.618   3.021  18.433 -0.1974  0.1918 -0.0609
10714W        W12864   1.393   3.393  12.077  0.1435  0.1061 -0.2815
10715W        W12865  12.279   2.666  23.334  0.2429  0.0009 -0.0142
10716W        W12866  19.115   7.526  17.710 -0.2199 -0.0072  0.2842
10717W        W12867  13.138   0.894  32.616 -0.0122 -0.1569  0.3319
10718W        W12868  17.840   4.269  21.455  0.1101 -0.2085  0.0408
10719W        W12869   3.142   2.711  13.943  0.0020  0.3652  0.2278
10720W        W12870  24.038   2.140  21.726 -0.1943  0.0070  0.0141
10721W        W12871   4.576   0.473   0.088  0.1894  0.4360  0.3121
10722W        W12872   0.791   2.582   5.763 -0.1805  0.0156  0.0321
10723W        W12873  19.529   5.719  29.264  0.0956  0.0788 -0.0738
10724W        W12874   6.613   6.586   7.992  0.1456 -0.2058 -0.2656
10725W        W12875   5.144   5.991   3.331  0.0155 -0.4131  0.2211
10726W        W12876  23.914   3.681  22.998  0.2072  0.0800  0.2387
10727W        W12877   8.506   6.094   6.615  0.1500  0.2416 -0.1508
10728W        W12878  19.767   1.621   0.610 -0.2000  0.0248  0.3571
10729W        W12879   4.892   5.169   7.221 -0.0041  0.0664  0.2768
10730W        W12880   2.770   4.416  14.427  0.2944  0.1852  0.0047
10731W        W12881  11.524   4.728  21.788 -0.1627  0.2780  0.1950
10732W        W12882   5.190   2.369  30.041 -0.0381  0.1808 -0.0961
10733W        W12883   5.374   0.753  18.296  0.4107  0.3583 -0.2172
10734W        W12884  16.332   0.805   9.000 -0.0959  0.1290 -0.2580
10735W        W12885   4.694   2.955   7.229 -0.0106 -0.0895 -0.2128
10736W        W12886  12.551   1.790   4.000 -0.0158 -0.4545  0.1037
10737W        W12887  21.963   5.774   4.446 -0.0407 -0.0306  0.0115
10738W        W12888  22.235   4.451  11.963 -0.0711  0.0046 -0.1515
10739W        W12889  10.486   2.952   4.499 -0.0043  0.2371  0.1115
10740W        W12890  13.929   2.274  23.246  0.0635  0.1531 -0.4630
10741W        W12891   6.896   2.057  32.008  0.1577 -0.1945 -0.1366
10742W        W12892  14.995   4.017  32.680 -0.1009  0.1797  0.0810
10743W        W12893   9.473   0.218  13.975 -0.1752 -0.1634  0.1427
10744W        W12894   4.042   6.186  23.358  0.3228 -0.2318 -0.0324
10745W        W12895  17.289   7.586  21.309  0.2610 -0.1669 -0.0666
10746W        W12896   2.654   0.821  28.007  0.0423 -0.2695 -0.3369
10747W        W12897  18.604   5.547  31.087  0.3267  0.2635 -0.0915
10748W        W12898   4.979   5.927   1.910 -0.2200 -0.1157  0.0504
10749W        W12899   3.824   3.773  15.228  0.1560 -0.0164  0.0925
10750W        W12900  16.814   7.022  21.978 -0.1481 -0.1639  0.4515
10751W        W12901  18.433   2.200  25.994  0.2539  0.1132  0.2723
10752W        W12902  19.306   2.214   7.465  0.0476 -0.1812  0.0156
10753W        W12903  18.647   4.868  20.326  0.3052 -0.0031  0.4775
10754W        W12904   0.680   2.537   0.354  0.0184 -0.0406 -0.0112
10755W        W12905  21.210   4.676   0.934  0.0982  0.0936  0.1714
10756W        W12906   6.916   4.309   4.330 -0.0785  0.0757 -0.4592
10757W        W12907   9.993   7.274   2.727 -0.0445 -0.1415  0.2897
10758W        W12908   8.215   4.526  21.609 -0.0631  0.1134  0.4435
10759W        W12909   3.632   0.971  25.641 -0.2149 -0.2070 -0.1108
10760W        W12910  12.267   0.519   3.150 -0.0015 -0.1925  0.0905
10761W        W12911  17.097   6.139  30.120  0.2965  0.0114 -0.1720
10762W        W12912   0.550   5.993  32.000  0.3751  0.0097  0.0414
10763W        W12913   6.275   0.044  28.892  0.0612 -0.0780 -0.1777
10764W        W12914   0.445   0.432  29.844 -0.2099 -0.1260 -0.0366
10765W        W12915   5.795   4.798  23.845  0.0421 -0.2858 -0.2521
10766W        W12916  18.966   1.484  29.748 -0.1211  0.1904 -0.1073
10767W        W12917  13.701   7.602  19.873 -0.0118  0.5175 -0.1025
10768W        W12918   9.410   2.583  11.247  0.0204  0.0250 -0.0014
10769W        W12919   4.984   1.005  15.207  0.1076 -0.0239  0.0078
10770W        W12920  11.936   3.213  32.493 -0.1172  0.0987 -0.0525
10771W        W12921  23.119   2.568   4.987 -0.0569  0.1524  0.0815
10772W        W12922  10.456   0.769   8.842  0.1135 -0.4630  0.0448
10773W        W12923  12.480   4.387  20.190  0.4932 -0.0060  0.0288
10774W        W12924   1.727   7.594   7.207 -0.1275  0.0608  0.1214
10775W        W12925   4.745   4.444  29.066 -0.0631  0.0560  0.0616
10776W        W12926  22.648   6.266  12.537  0.0500 -0.0625 -0.0316
10777W        W12927   1.044   1.204  27.692  0.2652 -0.1777 -0.1010
10778W        W12928   2.186   6.857  26.717 -0.2626  0.1089 -0.4146
10779W        W12929  10.354   5.617   5.010 -0.0125  0.3700  0.0409
10780W        W12930   0.383   0.849   0.461 -0.0249 -0.0289 -0.2178
10781W        W12931   0.068   5.804  13.974 -0.0232 -0.1479  0.1165
10782W        W12932   3.604   0.423   2.687  0.1167  0.1148  0.3387
10783W        W12933  22.149   6.614  28.351 -0.0176 -0.0744  0.1284
10784W        W12934  12.238   5.461  21.758  0.0810 -0.0541  0.0465
10785W        W12935  13.639   7.722   3.031 -0.1786 -0.1315 -0.0152
10786W        W12936   6.856   2.764   7.790  0.0149  0.0871  0.0295
10787W        W12937   5.020   6.787   1.683 -0.0450  0.1636 -0.0229
10788W        W12938  19.961   5.927  18.939 -0.0096 -0.1397 -0.1914
10789W        W12939  11.042   6.313  26.887 -0.0044  0.0493  0.0435
10790W        W12940   5.900   3.628  30.399 -0.0018 -0.0153 -0.0574
10791W        W12941   3.767   6.109   8.741  0.0353 -0.2158 -0.5196
10792W        W12942  17.378   7.788  30.772  0.0535 -0.0538 -0.0524
10793W        W12943  11.194   3.985  10.155  0.2513  0.0005  0.0737
10794W        W12944  16.303   6.732   6.152  0.0634  0.2735  0.1104
10795W        W12945   9.195   3.505  10.145 -0.1097  0.2186  0.0851
10796W        W12946  23.746   1.593  10.533  0.2667  0.0500 -0.0184
10797W        W12947  12.354   4.768   5.529 -0.0667 -0.1643 -0.1152
10798W        W12948  14.984   0.569   0.136 -0.1647  0.2059  0.0159
10799W        W12949  18.289   3.891  29.033  0.0235 -0.1759  0.2465
10800W        W12950   0.191   3.983   8.820  0.0686 -0.1186  0.0175
10801W        W12951   5.630   4.461  32.506 -0.0869  0.1432  0.1199
10802W        W12952  13.415   3.721  15.202 -0.2438 -0.1331  0.3696
10803W        W12953  20.423   0.993  25.248 -0.2352 -0.2744 -0.1074
10804W        W12954   8.365   3.171  28.561 -0.0161  0.0216  0.1164
10805W        W12955  16.453   2.863   8.720 -0.2861  0.0902  0.0434
10806W        W12956  14.606   7.353  16.562  0.0666 -0.0157 -0.0156
10807W        W12957   6.959   7.504   1.199  0.0022  0.1205 -0.0340
10808W        W12958  24.338   1.149   4.530 -0.2346 -0.0604 -0.1653
10809W        W12959  12.081   5.306  10.541 -0.0636 -0.2567 -0.1987
10810W        W12960  21.800   1.622   3.459 -0.2325  0.0011 -0.4951
10811W        W12961  11.313   2.474   3.468  0.3135 -0.0381  0.1627
10812W        W12962  15.820   2.333  18.128 -0.1388  0.3041 -0.0907
10813W        W12963  20.212   0.226  29.503 -0.3469  0.0058 -0.0452
10814W        W12964   0.512   5.257   7.254  0.1940 -0.0569 -0.2098
10815W        W12965  15.668   5.124   0.587  0.1073 -0.1253 -0.0789
10816W        W12966  13.142   5.164  22.680 -0.0458  0.1281 -0.1247
10817W        W12967  23.295   1.315   2.801  0.1737 -0.0699  0.0436
10818W        W12968  17.178   1.477   6.629  0.0440 -0.0885 -0.1749
10819W        W12969  18.677   1.954   7.845 -0.0385 -0.0733  0.0074
10820W        W12970  19.493   2.239   8.365 -0.1523 -0.0925 -0.2442
10821W        W12971   5.222   5.524  32.117  0.2688 -0.0498  0.1159
10822W        W12972   4.680   1.944   1.743  0.2620 -0.0276  0.0805
10823W        W12973   7.814   0.202  27.770 -0.1253 -0.1895  0.1507
10824W        W12974  14.516   0.341  19.002 -0.3344 -0.1655  0.1658
10825W        W12975   3.021   0.477  32.060 -0.1131  0.0819  0.0753
10826W        W12976   6.638   3.537   2.724 -0.0496 -0.2076  0.2261
10827W        W12977  16.713   1.364  20.751  0.2446  0.0561  0.0577
10828W        W12978  23.924   4.983   0.110  0.2091  0.0654 -0.1076
10829W        W12979   5.486   1.307  13.145 -0.2864  0.2445 -0.0393
10830W        W12980  22.378   0.787   1.795 -0.1143 -0.0608  0.1146
10831W        W12981   0.059   1.433   4.575 -0.0663 -0.1939  0.0529
10832W        W12982  15.005   1.151  19.251  0.3091 -0.1200  0.2056
10833W        W12983   0.709   6.768   0.087 -0.0358 -0.0936 -0.2096
10834W        W12984  16.412   0.429  30.686  0.3585 -0.0108 -0.0274
10835W        W12985  10.829   7.619  25.432  0.0172  0.5158  0.1904
10836W        W12986  11.965   3.469  10.696 -0.1233  0.0886  0.2026
10837W        W12987  21.803   0.277   3.154  0.1813 -0.2122 -0.1816
10838W        W12988  19.373   7.250   0.658  0.0660  0.0015  0.3273
10839W        W12989   7.720   6.696  32.997 -0.1688 -0.0131 -0.0364
10840W        W12990   7.396   1.039  30.964 -0.0876 -0.0756 -0.0254
10841W        W12991  14.705   3.581   2.436 -0.0997 -0.1037 -0.1684
10842W        W12992  21.751   6.870   4.376  0.1057  0.1760  0.0924
10843W        W12993   3.899   6.269  15.087  0.1976  0.0907 -0.1353
10844W        W12994  19.992   3.670  17.038  0.0832  0.0203  0.1216
10845W        W12995  24.016   1.585   4.767  0.0254 -0.1046  0.1063
10846W        W12996  14.350   6.462   8.459 -0.1533 -0.1936  0.0913
10847W        W12997  11.233   7.691   2.955  0.0495  0.1385 -0.1475
10848W        W12998  13.722   7.502  10.782 -0.2292 -0.0080  0.0121
10849W        W12999  20.454   6.030  23.392  0.0840 -0.4684 -0.4142
10850W        W13000  10.358   1.319  21.061  0.2845 -0.1025 -0.1222
10851W        W13001  23.062   2.164  24.436  0.0636 -0.5991 -0.1274
10852W        W13002  10.455   6.477  29.813 -0.0776 -0.0462 -0.3217
10853W        W13003   4.135   7.613  12.241 -0.1491  0.1015  0.1182
10854W        W13004  14.851   6.125  32.595  0.0877 -0.1176 -0.0549
10855W        W13005   2.451   4.469   5.143  0.0001  0.2908 -0.0944
10856W        W13006  20.008   0.519  31.683 -0.3049  0.1773  0.1281
10857W        W13007  20.544   2.319   6.670 -0.1501 -0.1402 -0.3852
10858W        W13008  22.704   2.329  27.740 -0.2248  0.0001 -0.1744
10859W        W13009  22.651   3.124   6.723 -0.2416  0.3462 -0.6702
10860W        W13010   0.924   7.064  10.286  0.0903 -0.2467 -0.1063
10861W        W13011   0.883   4.693  29.875  0.1883 -0.2323  0.0195
10862W        W13012   6.801   6.173  15.896 -0.0069 -0.1793  0.0093
10863W        W13013  16.333   4.598  29.371  0.0269 -0.0308  0.1230
10864W        W13014  12.141   4.275   9.033 -0.0631  0.1750  0.0330
10865W        W13015  15.438   3.058  29.099 -0.1022 -0.1102 -0.4302
10866W        W13016  14.733   5.495  19.114 -0.1352 -0.2039  0.0004
10867W        W13017  22.364   2.076   6.090  0.0288  0.0045  0.0203
10868W        W13018  15.666   1.324   7.029  0.0483  0.0548 -0.3352
10869W        W13019   2.414   7.721   5.901  0.0135 -0.1080 -0.2674
10870W        W13020   4.197   5.018  33.007 -0.0519  0.2034  0.4352
10871W        W13021   0.607   4.975   8.744 -0.1002  0.4637  0.0240
10872W        W13022  15.661   2.297  30.265  0.1594  0.0363 -0.0034
10873W        W13023  12.136   1.005  19.162  0.1678 -0.2772 -0.1361
10874W        W13024  13.331   5.754  29.850  0.0550  0.3456 -0.0951
10875W        W13025   2.362   1.146  26.353  0.0737 -0.2348  0.1179
10876W        W13026   8.693   6.632  12.155 -0.1732  0.4013 -0.1710
10877W        W13027  11.355   1.180   7.541 -0.0404 -0.0055 -0.0933
10878W        W13028   3.174   1.712  24.696 -0.1871  0.3126 -0.0466
10879W        W13029   1.879   7.743   2.045  0.0864 -0.0777  0.0458
10880W        W13030   3.451   3.134  17.261 -0.1856 -0.0400 -0.0594
10881W        W13031   2.465   6.885  23.817 -0.1140  0.1341 -0.1010
10882W        W13032  22.552   1.560   2.991 -0.0525  0.3953  0.1602
10883W        W13033  24.571   2.702  26.000 -0.2113 -0.3201  0.0293
10884W        W13034   8.851   5.277  25.401  0.0128  0.4259  0.0598
10885W        W13035   6.850   0.720   6.086  0.0458  0.2736  0.1077
10886W        W13036  24.759   3.073  10.917  0.1863  0.0316  0.2117
10887W        W13037   9.054   2.181  13.539 -0.1578  0.0097  0.2004
10888W        W13038  18.527   1.169  16.294  0.1641  0.1754  0.1811
10889W        W13039   6.106   6.217  25.367  0.1049 -0.0576 -0.0378
10890W        W13040   0.557   0.329  21.634  0.2438 -0.1054  0.1958
10891W        W13041  16.018   1.598  26.587  0.1107 -0.3023  0.1499
10892W        W13042   5.136   6.949  28.154 -0.0204 -0.0856 -0.1824
10893W        W13043   7.353   6.923   9.609 -0.1020 -0.2242 -0.0137
10894W        W13044   5.772   3.465   5.603  0.0446 -0.2676  0.0983
10895W        W13045  24.461   5.272   1.610  0.0367  0.0600  0.0869
10896W        W13046  19.451   6.378   2.061 -0.0272 -0.0141 -0.1695
10897W        W13047   3.058   6.557  28.609 -0.1958 -0.4363 -0.1915
10898W        W13048   3.897   0.388  18.234  0.1072 -0.2084  0.1386
10899W        W13049   4.216   7.740  17.562 -0.1436  0.1776 -0.0187
10900W        W13050  12.821   7.354   7.089  0.1827 -0.2254  0.1076
10901W        W13051  15.644   7.137   8.231  0.1203 -0.0061 -0.1512
10902W        W13052   3.371   1.566  29.181 -0.2651 -0.0545  0.0820
10903W        W13053  15.395   5.582  20.890 -0.0343 -0.0259  0.3840
10904W        W13054  19.427   3.321   8.232 -0.2659 -0.1779  0.0775
10905W        W13055  18.068   4.123  19.413  0.1624  0.5227  0.6536
10906W        W13056  19.354   4.075   2.080  0.1929 -0.3031  0.1410
10907W        W13057  12.463   0.899   2.349 -0.0862  0.2664  0.0751
10908W        W13058   8.172   2.549  23.807  0.0862 -0.0044  0.0637
10909W        W13059   0.109   4.813  21.145  0.1218 -0.2349 -0.1153
10910W        W13060  12.265   6.831  32.984  0.2389 -0.4200 -0.1039
10911W        W13061  16.444   3.448   6.789 -0.0100  0.0090  0.0802
10912W        W13062   4.069   1.343   7.157  0.1512 -0.2577  0.4069
10913W        W13063  20.000   0.970  32.477 -0.4571  0.0207  0.1388
10914W        W13064   1.287   4.525   4.557 -0.2316  0.0972 -0.2759
10915W        W13065   5.731   5.222  24.257  0.1465  0.4428  0.0100
10916W        W13066  11.125   4.235   9.695  0.1675 -0.2592  0.3886
10917W        W13067   0.782   4.597   5.301 -0.0333 -0.2264  0.1313
10918W        W13068  23.037   1.308  22.228  0.0596 -0.1629 -0.1149
10919W        W13069   6.075   2.050   4.027  0.2485 -0.2824  0.0354
10920W        W13070  24.123   0.904  30.834 -0.1153  0.0371 -0.2904
10921W        W13071  21.299   0.836   5.760 -0.3638  0.0612  0.2690
10922W        W13072  12.287   5.758  23.596 -0.1098 -0.1750 -0.4092
10923W        W13073  23.807   7.218   7.808 -0.1071 -0.3204  0.0055
10924W        W13074   3.479   6.256  15.670  0.1225 -0.0944 -0.0556
10925W        W13075  11.562   2.407  24.884  0.1408 -0.0024  0.2068
10926W        W13076  18.568   3.593  27.747 -0.1334  0.2726  0.2516
10927W        W13077   5.996   3.040   0.044 -0.3258 -0.0517 -0.1816
10928W        W13078  20.174   5.353  16.864  0.0264 -0.0668 -0.0074
10929W        W13079   4.934   3.312  28.833 -0.1699  0.1725 -0.1531
10930W        W13080  17.662   0.651   0.014 -0.0668 -0.0460  0.2308
10931W        W13081  12.352   4.804   6.482 -0.0083  0.3823 -0.0720
10932W        W13082  19.819   1.978  29.298  0.0666  0.1450 -0.0725
10933W        W13083   2.818   1.945   4.665 -0.3839  0.2830  0.1233
10934W        W13084  23.646   7.249  29.977 -0.0083  0.1198 -0.2681
10935W        W13085  18.070   4.950   9.603  0.1949  0.1011  0.1434
10936W        W13086  13.786   7.570  15.762 -0.2165 -0.0546  0.0036
10937W        W13087  12.358   1.484   6.336  0.2292 -0.2266  0.0699
10938W        W13088   4.538   7.670   5.190 -0.2446  0.0937 -0.0188
10939W        W13089  12.458   6.107  24.803  0.0171  0.0283 -0.1088
10940W        W13090   5.100   6.578  32.099 -0.1026  0.1234 -0.2139
10941W        W13091   7.163   5.349  26.509  0.0638 -0.2694  0.0219
10942W        W13092  10.711   5.923  32.134 -0.0519  0.3822  0.1093
10943W        W13093  10.699   7.050   9.866  0.2570 -0.1676  0.0131
10944W        W13094   3.431   5.524  26.993  0.2860 -0.1560 -0.1351
10945W        W13095  12.731   0.004  26.563  0.1196  0.1703 -0.1549
10946W        W13096   6.150   2.146  27.084 -0.0493 -0.1373  0.1958
10947W        W13097  13.264   0.675  16.400 -0.0088  0.1553  0.0595
10948W        W13098  24.551   2.183   3.982 -0.1401  0.2424  0.5175
10949W        W13099  17.881   1.482  32.648  0.1331  0.0734  0.0548
10950W        W13100  24.579   0.019   2.734  0.2743 -0.0182  0.0996
10951W        W13101  14.706   6.811   3.092 -0.1694  0.0276 -0.1435
10952W        W13102  11.075   4.208  31.787 -0.2047 -0.0325  0.2927
10953W        W13103  10.647   2.490  30.845 -0.0813  0.2494  0.0625
10954W        W13104   1.701   5.520   8.172  0.1152 -0.0215  0.1524
10955W        W13105  14.685   6.659   0.415  0.1313  0.0404 -0.0612
10956W        W13106   5.744   2.725   2.048  0.0746 -0.3059 -0.0111
10957W        W13107  24.805   6.961   4.191  0.1494  0.2108  0.1075
10958W        W13108   4.726   5.756  28.727 -0.2686 -0.3503 -0.0985
10959W        W13109  18.360   2.653  27.680  0.0138 -0.0407  0.1661
10960W        W13110  14.467   4.618  21.403  0.1353 -0.3908 -0.1121
10961W        W13111   9.299   6.431  29.687  0.0556 -0.0088 -0.1401
10962W        W13112   1.945   7.102  22.504 -0.2489 -0.2790  0.2202
10963W        W13113  24.295   1.631  28.071 -0.2068  0.0751 -0.1251
10964W        W13114  14.680   4.629  16.844  0.0036 -0.0415  0.0973
10965W        W13115   1.591   2.401  15.560  0.1592 -0.0588 -0.2777
10966W        W13116  11.915   6.012  26.477  0.1460  0.1798  0.2344
10967W        W13117  20.355   4.234  31.010  0.1064  0.1092 -0.1529
10968W        W13118  19.155   5.499  28.400 -0.1012  0.2134 -0.1616
10969W        W13119   1.997   0.656  15.061 -0.1005 -0.0190 -0.2493
10970W        W13120  17.802   5.152   8.795  0.3049 -0.0747  0.0071
10971W        W13121  24.567   3.309   1.095  0.0702 -0.2322 -0.1118
10972W        W13122  24.444   1.328  11.004  0.1011  0.3936 -0.0460
10973W        W13123  22.488   6.019  28.581  0.1502  0.0531 -0.1275
10974W        W13124   0.347   2.836   5.524 -0.2569  0.3591 -0.3957
10975W        W13125  17.749   5.291  19.622 -0.2812 -0.4715  0.0060
10976W        W13126  15.303   0.501   8.537  0.1912  0.0984 -0.1853
10977W        W13127   3.276   6.390   3.129  0.0935  0.1030 -0.1365
10978W        W13128  24.283   0.655   5.056  0.1644 -0.0449  0.0289
10979W        W13129  16.121   1.867  18.824 -0.1782 -0.4493 -0.0036
10980W        W13130   5.435   5.507  13.450  0.1161  0.0266  0.3252
10981W        W13131   2.680   1.308  13.615  0.3126  0.1426  0.1205
10982W        W13132  19.752   1.644   1.121 -0.0885 -0.1258  0.1780
10983W        W13133  11.672   2.509  29.397  0.0218 -0.0363  0.0179
10984W        W13134   4.299   4.549   4.348  0.1145 -0.0097  0.1369
10985W        W13135   5.994   0.484  28.624 -0.1089  0.4664 -0.2391
10986W        W13136  14.657   1.099  27.679  0.3903  0.2203 -0.1111
10987W        W13137   4.976   2.440   3.876  0.3058  0.1958 -0.0133
10988W        W13138   7.133   7.667  32.335  0.2101  0.1570 -0.1577
10989W        W13139  10.408   1.073  27.600 -0.0493  0.0589 -0.3132
10990W        W13140   4.035   7.684   5.790  0.3392  0.0846  0.0410
10991W        W13141   2.980   6.718   5.567 -0.2605 -0.2722  0.3589
10992W        W13142  16.606   2.164   1.017  0.0452 -0.0586  0.0630
10993W        W13143  11.846   4.494   4.979 -0.0149 -0.0941 -0.1569
10994W        W13144  24.853   5.359   3.814  0.2463 -0.5749  0.0118
10995W        W13145  13.128   2.021   2.946  0.1098 -0.0786  0.0742
10996W        W13146  22.251   1.198   8.869  0.0741 -0.0051 -0.1233
10997W        W13147  12.338   5.254   2.901 -0.0889  0.1245 -0.1062
10998W        W13148   4.784   1.582  12.127  0.2047 -0.3605  0.1652
10999W        W13149   8.149   4.880  28.998 -0.2948 -0.2343  0.1871
11000W        W13150   1.716   6.431   6.314 -0.2059 -0.0295 -0.0660
11001W        W13151  22.448   5.095   5.930  0.0797 -0.0153  0.0587
11002W        W13152  20.595   7.002  10.184  0.2338 -0.0749  0.2039
11003W        W13153  17.824   6.590   4.957  0.1762 -0.0118 -0.1684
11004W        W13154   8.077   4.091   3.033 -0.1524  0.0776 -0.2789
11005W        W13155  15.955   1.205  14.722  0.0584 -0.0501 -0.0855
11006W        W13156  19.606   1.383  20.992  0.1429  0.1418 -0.2203
11007W        W13157  23.841   6.384  22.074  0.0585  0.1746 -0.1444
11008W        W13158  11.159   5.656   9.457 -0.1304  0.3249  0.0531
11009W        W13159  23.081   2.328  20.955 -0.0174 -0.2319 -0.0661
11010W        W13160  16.848   7.197  16.267  0.3525  0.1670 -0.0071
11011W        W13161  13.366   7.766  20.711 -0.1222 -0.1935 -0.1285
11012W        W13162  17.756   5.142  28.954 -0.0913 -0.2972  0.1662
11013W        W13163  15.843   4.226   2.387 -0.3076  0.0436 -0.3205
11014W        W13164  12.647   6.411  31.034 -0.0581  0.2448  0.0746
11015W        W13165  12.929   4.729   9.380  0.1332  0.2638 -0.1825
11016W        W13166   1.717   7.344   4.623  0.0834 -0.0295  0.1025
11017W        W13167  12.060   3.391   3.655 -0.2004  0.0872 -0.0390
11018W        W13168  17.020   6.258   2.134  0.1414  0.1131  0.3815
11019W        W13169  16.365   2.057  22.615 -0.0885 -0.0208 -0.0807
11020W        W13170  19.913   3.468  28.629  0.4283 -0.0867  0.1478
11021W        W13171  16.124   1.891  17.872  0.4099  0.1498  0.0742
11022W        W13172   9.745   3.741  32.670  0.1411  0.2789  0.0470
11023W        W13173  24.587   3.709  12.555  0.0420 -0.0648 -0.0436
11024W        W13174   8.515   5.518  11.179 -0.1227 -0.0163 -0.0397
11025W        W13175  23.209   0.178  12.646  0.0832  0.1173  0.0843
11026W        W13176   8.367   3.578  10.778 -0.2307 -0.0836 -0.2544
11027W        W13177  13.183   5.841   5.891 -0.1455 -0.1818 -0.1979
11028W        W13178   5.272   7.440   0.759  0.1553  0.1164  0.0422
11029W        W13179  24.555   1.380  22.267 -0.3227 -0.3038 -0.0611
11030W        W13180   4.289   5.793  11.399  0.0544  0.2547 -0.0869
11031W        W13181  24.786   5.426   8.236 -0.1899  0.0506 -0.1315
11032W        W13182  19.425   5.972   5.063 -0.0684  0.2480  0.1596
11033W        W13183   5.483   6.059   1.894  0.0511 -0.0245 -0.0275
11034W        W13184  24.057   7.206  10.812  0.2849  0.2303 -0.1906
11035W        W13185   3.592   4.922  18.358 -0.0004  0.0396 -0.3152
11036W        W13186  13.144   6.067  26.942 -0.0342  0.0191  0.2934
11037W        W13187  19.810   3.951   7.557  0.1278  0.2242 -0.0638
11038W        W13188  23.170   1.882   4.334  0.0140 -0.0728 -0.4160
11039W        W13189  24.084   2.405  11.739 -0.2097 -0.1015  0.1049
11040W        W13190  11.801   0.718   6.012 -0.2652  0.0377 -0.2204
11041W        W13191  16.099   0.285  30.285 -0.0351 -0.0072 -0.4062
11042W        W13192   7.190   1.301  27.406  0.0101 -0.0891  0.0318
11043W        W13193   5.693   6.085  29.874 -0.3249 -0.1402  0.1244
11044W        W13194   3.810   4.090   1.083  0.1228 -0.1493 -0.2885
11045W        W13195   5.776   6.004   5.886  0.1359  0.1827 -0.2623
11046W        W13196  18.823   1.714  31.579 -0.0142  0.0729  0.1527
11047W        W13197  17.197   6.252  26.799 -0.2463  0.1728  0.1768
11048W        W13198   4.527   6.551  12.584  0.4630 -0.0435 -0.0829
11049W        W13199  22.136   1.186  32.201 -0.3463 -0.0001  0.1489
11050W        W13200   1.756   7.076   5.686 -0.0024  0.1432 -0.0649
11051W        W13201   7.397   7.725   1.270 -0.2605  0.1038  0.0087
11052W        W13202   1.616   1.861   5.386  0.0024  0.0750  0.1781
11053W        W13203  12.132   4.084  23.219 -0.1391 -0.0725 -0.2771
11054W        W13204   5.986   1.676   9.438 -0.1493  0.3306 -0.0859
11055W        W13205   3.532   5.789   1.871 -0.3943  0.0185  0.0321
11056W        W13206  16.057   0.947  10.713 -0.1415 -0.0780 -0.2173
11057W        W13207  21.038   0.570  22.762  0.1466  0.1112  0.0334
11058W        W13208  23.501   7.599  12.865 -0.0814  0.1420 -0.0603
11059W        W13209  13.935   2.975   5.857  0.0636 -0.3661 -0.0453
11060W        W13210  20.171   0.964  20.592 -0.0043  0.1849 -0.1157
11061W        W13211   0.581   4.471  14.696  0.1638 -0.1199  0.0432
11062W        W13212  22.840   3.303  10.411 -0.2657 -0.4177  0.1332
11063W        W13213  12.654   3.459  29.996 -0.1135 -0.1071 -0.1764
11064W        W13214  19.961   2.867  29.300  0.0516 -0.2463 -0.0965
11065W        W13215   9.432   7.170   3.935  0.0960 -0.2916  0.0568
11066W        W13216  22.629   3.993  31.498  0.1094 -0.0015 -0.0184
11067W        W13217  20.053   1.455   5.448  0.1533 -0.0664 -0.0188
11068W        W13218   0.665   1.703  32.400  0.0618  0.0214 -0.0991
11069W        W13219   9.931   6.981   9.389 -0.0507  0.0450  0.1001
11070W        W13220  14.144   6.999  18.443 -0.2174 -0.2697 -0.1761
11071W        W13221  24.957   6.325   0.521 -0.0545  0.0638 -0.2627
11072W        W13222  22.971   3.910  23.964  0.1807  0.1901  0.3523
11073W        W13223  16.286   1.613  16.909 -0.1803 -0.2945 -0.2309
11074W        W13224  14.515   6.873   6.457  0.3938 -0.2468  0.0220
11075W        W13225  23.868   1.160   8.770 -0.2322 -0.1946  0.1103
11076W        W13226   9.018   1.661   1.009 -0.2488 -0.0206 -0.1129
11077W        W13227  10.009   7.276   6.318 -0.0741  0.0444 -0.3511
11078W        W13228  14.411   7.044  32.419 -0.2029 -0.0716 -0.1540
11079W        W13229  20.661   2.104  26.079 -0.3805 -0.1785 -0.0452
11080W        W13230  16.909   6.949  32.593  0.2080 -0.1021 -0.1055
11081W        W13231   1.398   7.587   6.747  0.1828  0.2674  0.1478
11082W        W13232  21.423   3.880   1.574 -0.1779  0.1359 -0.1562
11083W        W13233  13.749   0.358  17.969  0.3357  0.0477 -0.0148
11084W        W13234   3.072   6.638  25.111 -0.0585 -0.3949  0.0313
11085W        W13235  24.898   4.451   8.974  0.0936  0.3673  0.1868
11086W        W13236   2.410   2.615   5.696  0.2424 -0.3500  0.1430
11087W        W13237   1.959   7.318   9.303  0.1987 -0.4348  0.0432
11088W        W13238  16.691   5.883  23.289  0.2080  0.0070 -0.0753
11089W        W13239  13.771   7.214  28.540 -0.0263  0.2134 -0.1314
11090W        W13240  16.458   1.850  31.984  0.1697  0.0932  0.1080
11091W        W13241  16.621   5.298  28.298 -0.2189 -0.0700 -0.1603
11092W        W13242   5.497   1.280  25.366 -0.0238 -0.0820 -0.0842
11093W        W13243  22.016   1.359  28.361  0.0844 -0.2873  0.0221
11094W        W13244  18.990   2.812   6.101 -0.0139  0.2358  0.0562
11095W        W13245   5.590   0.896  23.866 -0.2031  0.1423 -0.0117
11096W        W13246  11.449   2.560  30.331 -0.0404 -0.1365 -0.1420
11097W        W13247  12.186   5.328  21.248  0.2603 -0.1677 -0.0148
11098W        W13248   8.136   5.901  27.300 -0.0255 -0.0681  0.0290
11099W        W13249  20.067   5.380   0.823 -0.1585  0.1223  0.0516
11100W        W13250  12.425   2.843   8.096  0.1222 -0.1880  0.0290
11101W        W13251  24.496   2.286  21.209 -0.0246 -0.1618 -0.0743
11102W        W13252  20.728   6.125   5.481  0.2568 -0.0291 -0.4279
11103W        W13253  19.670   0.181   8.515 -0.0593 -0.1623  0.1497
11104W        W13254  22.749   6.999   6.516 -0.0639 -0.1132  0.1710
11105W        W13255  20.566   3.088  23.796 -0.0010  0.0069  0.0092
11106W        W13256  15.251   1.184  16.872 -0.0540  0.1056  0.2406
11107W        W13257   1.869   5.693   1.708 -0.0430  0.0643 -0.1099
11108W        W13258   1.117   7.467   5.235  0.0391 -0.0372 -0.1309
11109W        W13259  19.033   1.904  20.443 -0.1227 -0.2045  0.0066
11110W        W13260   5.161   6.054  11.598 -0.1403 -0.2285 -0.1831
11111W        W13261   6.240   4.946  14.361 -0.1371 -0.0974 -0.3170
11112W        W13262   7.976   4.900  12.883  0.0110  0.0307 -0.0974
11113W        W13263   9.462   3.403  24.275  0.1496  0.0744  0.0281
11114W        W13264   5.575   5.782  28.191  0.0059  0.0571  0.2637
11115W        W13265  16.605   0.241  25.152  0.1188 -0.1684 -0.0131
11116W        W13266   3.179   0.473  32.551 -0.0497 -0.0466  0.2439
11117W        W13267   9.531   5.502  13.774  0.3581 -0.2920 -0.1080
11118W        W13268   4.356   2.618   7.182  0.2659  0.0133  0.1534
11119W        W13269   4.225   6.852  12.910  0.0786 -0.0727  0.1106
11120W        W13270  16.620   5.464  26.013  0.2383  0.0790  0.0305
11121W        W13271   9.324   4.971   9.400  0.1678  0.3283 -0.4245
11122W        W13272   5.097   6.204  32.517 -0.0162  0.1765  0.0683
11123W        W13273   1.448   6.691   9.687 -0.1078  0.2167 -0.0703
11124W        W13274  19.926   6.792  22.653  0.0362  0.0237 -0.2128
11125W        W13275   3.853   3.751   3.076 -0.2479 -0.0802 -0.0911
11126W        W13276  21.293   4.444   5.145  0.3270 -0.0834  0.1801
11127W        W13277   8.304   2.429   3.616  0.1002  0.2875 -0.0648
11128W        W13278  24.271   7.010   7.745 -0.1511  0.0451  0.2146
11129W        W13279   8.663   1.084  13.476 -0.2131 -0.1362 -0.0085
11130W        W13280  11.965   3.314  11.752 -0.2639 -0.2525  0.2101
11131W        W13281   8.268   3.410   0.383 -0.0311 -0.2541  0.1094
11132W        W13282  16.502   0.328   2.590  0.0570  0.2673 -0.2824
11133W        W13283  15.733   4.212   5.813  0.0255  0.1139 -0.1639
11134W        W13284   6.111   1.572  32.054 -0.0653  0.2816  0.1952
11135W        W13285  14.573   1.782   6.097  0.0162  0.0868  0.1568
11136W        W13286  11.756   5.341  31.004  0.0020 -0.2471  0.0998
11137W        W13287   6.389   4.958   0.322 -0.1539  0.0399 -0.1436
11138W        W13288  24.781   7.339  23.981 -0.1732  0.2546 -0.0284
11139W        W13289   5.747   1.764  12.316  0.1061 -0.1493  0.3420
11140W        W13290   4.482   1.891   8.734  0.2154  0.0304 -0.1272
11141W        W13291  23.044   1.232   7.902 -0.1226  0.2366 -0.2683
11142W        W13292  15.223   2.299   5.656 -0.0611  0.1976 -0.0920
11143W        W13293   5.473   0.860  12.946  0.0030  0.1027  0.2024
11144W        W13294   8.030   2.585   2.492 -0.2388  0.2165  0.0006
11145W        W13295  10.473   6.848   3.508  0.0677 -0.0139 -0.0364
11146W        W13296  21.599   2.940  18.967  0.0026  0.1086 -0.1812
11147W        W13297  14.861   0.489  29.487 -0.1194 -0.1946 -0.2926
11148W        W13298   0.154   1.847  23.968 -0.0031  0.1442 -0.0278
11149W        W13299   4.791   2.077  30.319 -0.2760 -0.0007 -0.2712
11150W        W13300   2.819   0.158  30.228 -0.0765 -0.2073  0.0685
11151W        W13301  16.287   4.481   9.739 -0.1871 -0.0148 -0.1740
11152W        W13302  14.171   3.717  26.709  0.3254 -0.4003 -0.0971
11153W        W13303  13.422   5.348  26.653 -0.0627  0.0933  0.0707
11154W        W13304   4.867   3.390  24.173  0.1078  0.2001  0.0067
11155W        W13305  24.613   1.361   0.271  0.0566  0.0996 -0.2415
11156W        W13306   9.704   5.908  20.989 -0.0998 -0.4307 -0.3398
11157W        W13307   0.354   3.259   1.958  0.0610  0.2779  0.1166
11158W        W13308  15.415   0.225  27.575 -0.0129 -0.2495 -0.2000
11159W        W13309   9.233   5.708  14.199  0.0565 -0.0471  0.1812
11160W        W13310   3.135   6.783  27.088  0.1219 -0.0695  0.0686
11161W        W13311  23.782   0.236   9.771  0.2577  0.3164  0.0927
11162W        W13312  12.484   5.249   4.735 -0.2049 -0.1780  0.0409
11163W        W13313  23.206   6.039  13.600  0.3831  0.0465 -0.0891
11164W        W13314   0.104   4.328  26.693  0.0122 -0.1234 -0.0725
11165W        W13315   3.225   0.583  25.740 -0.0000  0.0480  0.0644
11166W        W13316   1.082   6.610  25.393 -0.0365  0.1797 -0.1279
11167W        W13317  14.310   7.427  10.342  0.3438 -0.2173  0.0385
11168W        W13318  16.410   3.125  28.119  0.0164  0.3617  0.3304
11169W        W13319  12.379   1.650   9.518  0.2475  0.1394 -0.1106
11170W        W13320  23.282   3.945  11.533  0.0040 -0.2686 -0.1116
11171W        W13321   7.892   0.191  14.073  0.1807  0.0113 -0.1338
11172W        W13322  15.528   3.380  20.669 -0.1799 -0.3509  0.1624
11173W        W13323  16.641   4.856  21.062 -0.1757  0.1551 -0.0072
11174W        W13324   8.931   3.909  22.146 -0.2108  0.2281  0.3634
11175W        W13325  18.842   2.130  16.199  0.0225  0.1144  0.3299
11176W        W13326  13.322   7.008  25.199  0.0894  0.0074  0.2538
11177W        W13327   1.855   1.360   5.158 -0.0607 -0.3697  0.1169
11178W        W13328   0.839   1.968  14.415 -0.4570  0.0097  0.1742
11179W        W13329   8.220   0.689   6.801 -0.1124  0.2160  0.1518
11180W        W13330   2.331   5.663  28.378 -0.0135 -0.0190 -0.2682
11181W        W13331   2.508   1.656  23.997 -0.1658 -0.3005  0.1837
11182W        W13332  22.763   1.854  13.817 -0.0016 -0.1324  0.3826
11183W        W13333  15.487   3.196  24.948  0.2292 -0.1732  0.2731
11184W        W13334   0.101   7.628  27.600 -0.3024 -0.0174  0.1858
11185W        W13335   0.206   1.961  23.472 -0.2466  0.0603 -0.1141
11186W        W13336  22.866   2.293  12.848 -0.0071 -0.1067 -0.2630
11187W        W13337   7.795   0.033  29.298  0.0551  0.1913  0.0390
11188W        W13338   5.141   6.436   6.923 -0.0553  0.0879  0.1512
11189W        W13339  21.961   6.621  12.185 -0.0645 -0.0079 -0.2191
11190W        W13340  11.737   2.683   6.765  0.1756 -0.0372  0.0977
11191W        W13341  11.365   5.469  25.985  0.1408 -0.0354  0.1644
11192W        W13342  20.485   6.855  22.043 -0.0477  0.1275  0.3146
11193W        W13343  16.858   2.710   8.993  0.3502  0.0197  0.1916
11194W        W13344  21.190   3.765  28.117  0.0658 -0.1554  0.2574
11195W        W13345   1.851   2.476  26.896  0.0091 -0.1226  0.0117
11196W        W13346  13.376   7.059   5.058 -0.0106 -0.1731 -0.1777
11197W        W13347  21.804   4.179   1.795 -0.1105 -0.1492  0.0947
11198W        W13348  13.226   5.756  18.827 -0.0555  0.1889  0.1229
11199W        W13349  10.011   1.382  28.864  0.0200  0.0646 -0.0169
11200W        W13350  24.295   0.985  11.330  0.2524 -0.0716 -0.0280
11201W        W13351  12.092   2.023  24.504  0.0567  0.1558  0.0248
11202W        W13352  15.846   0.733   5.187 -0.3902 -0.3363 -0.0619
11203W        W13353  13.520   1.078  22.697 -0.1785 -0.2155  0.2642
11204W        W13354   7.558   4.988   1.467  0.2449 -0.1128  0.0271
11205W        W13355   9.411   2.270   2.204  0.1004 -0.1102  0.1089
11206W        W13356   3.900   0.531  28.146 -0.0421  0.1008 -0.1077
11207W        W13357  14.939   1.854  23.848  0.0834  0.0583  0.0745
11208W        W13358  10.207   6.507   1.841 -0.1402  0.0127 -0.0731
11209W        W13359  10.130   6.134  27.210  0.0812 -0.0398  0.2331
11210W        W13360   7.519   4.092   5.954 -0.0291 -0.1344  0.2793
11211W        W13361   4.293   5.466  24.650  0.1143  0.1232  0.0488
11212W        W13362  14.472   1.933   4.973 -0.3575  0.3080  0.1044
11213W        W13363  19.570   1.287  27.656 -0.2792  0.1291  0.0228
11214W        W13364  19.205   1.416   9.611  0.3045 -0.2615  0.0666
11215W        W13365  13.321   7.445  24.513  0.0408  0.1556  0.1393
11216W        W13366  13.707   1.306  30.896 -0.2991 -0.1120  0.0521
11217W        W13367  13.756   7.535  32.726  0.0875 -0.1854  0.2395
11218W        W13368   4.154   5.917   8.032 -0.0896  0.2608 -0.1721
11219W        W13369  10.379   6.187   5.169 -0.1595 -0.0112 -0.1024
11220W        W13370   1.631   1.550  28.447  0.0186  0.1419 -0.1362
11221W        W13371  10.847   5.202   1.870  0.0047 -0.1635  0.4429
11222W        W13372   9.370   5.985  25.525 -0.1631 -0.0527 -0.0417
11223W        W13373   5.315   6.599  25.401  0.3182 -0.0728 -0.0936
11224W        W13374  19.307   3.019   6.392  0.1124 -0.1921 -0.3479
11225W        W13375  18.689   0.715  18.168  0.0239  0.1291  0.2821
11226W        W13376  11.821   4.012   7.676  0.1283  0.0993 -0.2651
11227W        W13377  16.481   3.349  19.013 -0.0225 -0.1292  0.1893
11228W        W13378   0.610   0.124  30.823 -0.2457  0.1100 -0.0769
11229W        W13379  15.453   1.949  30.491 -0.2521  0.2456 -0.1524
11230W        W13380   6.174   1.464  28.910 -0.0294  0.0969 -0.1018
11231W        W13381  22.719   1.176  30.013  0.1697 -0.1530  0.1185
11232W        W13382  23.340   4.647   7.731 -0.0029  0.0163  0.2533
11233W        W13383  10.832   6.243  32.486  0.1326  0.1787 -0.0099
11234W        W13384  11.354   5.536   8.352 -0.1511  0.3025 -0.0640
11235W        W13385  18.982   2.084  22.137  0.1082 -0.1035 -0.1341
11236W        W13386   0.886   1.237  23.396 -0.2315 -0.2098 -0.1257
11237W        W13387  15.239   5.707   4.384 -0.2252  0.1258 -0.1703
11238W        W13388  20.595   2.452   7.188 -0.2567 -0.1616 -0.0391
11239W        W13389  18.230   6.123  24.919 -0.1686 -0.0891 -0.0337
11240W        W13390  16.106   3.708  27.991 -0.1472 -0.1084  0.1870
11241W        W13391  22.754   5.931  21.293 -0.1797  0.0139 -0.1076
11242W        W13392  12.938   6.325  28.312  0.0237  0.2813  0.1258
11243W        W13393  18.210   3.396  25.273  0.0391  0.2281 -0.0666
11244W        W13394   8.322   2.149  25.286 -0.0434  0.0309  0.0906
11245W        W13395   3.696   2.496  11.100 -0.1359  0.0311  0.0804
11246W        W13396  11.776   6.487   1.807  0.0552  0.1232 -0.1202
11247W        W13397  19.711   7.284   8.928  0.1443 -0.1158 -0.3886
11248W        W13398  19.436   7.018  20.732 -0.3448  0.0094  0.1379
11249W        W13399  11.861   5.266   3.818  0.0363  0.0808  0.0273
11250W        W13400  17.016   7.407  30.836 -0.1544 -0.3588  0.4239
11251W        W13401  22.590   7.470   0.923  0.2059  0.2556  0.0365
11252W        W13402  23.868   5.488  24.587  0.2794  0.0735 -0.0081
11253W        W13403   1.636   4.352   4.846 -0.0954  0.1114 -0.1655
11254W        W13404  23.745   6.556   2.779 -0.0667  0.2916  0.3689
11255W        W13405  19.074   5.734  31.043  0.0700 -0.2391  0.4729
11256W        W13406   5.601   5.243  17.342 -0.0598  0.1309 -0.1600
11257W        W13407   5.907   3.801   2.516  0.0557 -0.1468 -0.0254
11258W        W13408  21.860   4.111  26.809 -0.0181 -0.1540  0.3376
11259W        W13409  12.412   4.628   7.547 -0.2268 -0.3511 -0.0724
11260W        W13410  13.807   1.744  29.715 -0.0295 -0.3494  0.1826
11261W        W13411  18.880   2.146   3.176  0.0606  0.1241  0.1653
11262W        W13412   5.388   5.563  15.183  0.2740 -0.0005  0.4997
11263W        W13413   9.133   7.114   1.323 -0.0640  0.0478 -0.2316
11264W        W13414  16.456   4.327   5.023 -0.1726  0.0330 -0.3155
11265W        W13415  23.357   5.872  30.672 -0.0122 -0.2871  0.0238
11266W        W13416  24.183   4.047   0.010  0.0540 -0.1275 -0.2035
11267W        W13417  11.293   3.415   2.657  0.1337 -0.0842  0.1265
11268W        W13418   4.827   0.445   3.897  0.0560  0.0642 -0.3065
11269W        W13419  21.622   6.639  32.930  0.3532  0.0307 -0.1066
11270W        W13420  22.808   5.653  29.328  0.2071 -0.1225 -0.0476
11271W        W13421  13.373   0.556  27.767  0.0678  0.1327 -0.1864
11272W        W13422  15.907   5.035   7.172  0.0840  0.0871  0.4730
11273W        W13423   1.798   5.438  13.237 -0.1609  0.0052 -0.0374
11274W        W13424  23.513   6.386  13.282 -0.1227 -0.0359  0.1406
11275W        W13425   0.233   7.552  25.240 -0.1728 -0.1343 -0.1924
11276W        W13426  11.068   3.985   2.675 -0.0004  0.1391 -0.2890
11277W        W13427  21.250   4.151   1.190 -0.1029 -0.1934 -0.1919
11278W        W13428  15.407   1.913  20.561 -0.1574 -0.2770 -0.3060
11279W        W13429  18.765   4.085   2.274 -0.1005  0.3864 -0.0880
11280W        W13430  18.975   3.137   7.419 -0.1403 -0.1095 -0.0135
11281W        W13431   4.370   5.886  17.816  0.3715  0.2140 -0.0158
11282W        W13432  10.605   5.978   4.790 -0.0389  0.2797  0.1291
11283W        W13433  23.725   2.138   6.089  0.0442  0.1621 -0.0197
11284W        W13434  14.674   4.661  18.163 -0.0889  0.2188  0.2072
11285W        W13435  12.077   2.062   9.481 -0.0455  0.2132 -0.0581
11286W        W13436  15.382   6.783  19.187  0.1239 -0.1011  0.3436
11287W        W13437  18.378   4.451   2.192 -0.3106  0.1374 -0.2082
11288W        W13438  16.841   2.164   3.534  0.0685 -0.0456 -0.1768
11289W        W13439  24.641   5.152  10.528 -0.0648  0.1045  0.0362
11290W        W13440   3.518   2.744  31.056  0.2008 -0.2950 -0.1234
11291W        W13441  10.455   0.918  12.888 -0.1235 -0.3759  0.0056
11292W        W13442   4.823   2.235  27.996  0.1664 -0.2943  0.0177
11293W        W13443   3.889   0.231  31.911  0.2826  0.0496 -0.1177
11294W        W13444   0.601   1.004  12.630  0.1438  0.1050 -0.1303
11295W        W13445  15.150   7.611   1.752  0.0239  0.0237  0.3732
11296W        W13446  13.383   2.128   2.295  0.2304  0.2628  0.3097
11297W        W13447   8.420   4.278  24.175  0.1296  0.4865  0.0997
11298W        W13448  14.196   7.476  32.473 -0.0961 -0.1333 -0.0127
11299W        W13449  10.861   0.770   6.060  0.1840  0.1951  0.1022
11300W        W13450   2.147   0.772   4.578  0.0103 -0.0208 -0.1719
11301W        W13451  10.320   5.662  32.402  0.1089 -0.2644  0.2405
11302W        W13452   1.894   6.206  15.421 -0.2154 -0.2644 -0.0864
11303W        W13453  10.338   4.428  27.964  0.1987 -0.1437 -0.2099
11304W        W13454  11.855   0.062  30.423 -0.0963 -0.1773  0.1960
11305W        W13455   8.951   6.989  26.864 -0.0733  0.0866  0.1089
11306W        W13456  23.695   0.856  28.884  0.1131  0.0157 -0.0778
11307W        W13457   0.837   0.515  23.663  0.1187  0.1023 -0.1324
11308W        W13458  20.687   2.988  18.787 -0.1686  0.1376 -0.2264
11309W        W13459  21.102   6.430  31.470  0.0699  0.2929  0.2560
11310W        W13460  23.799   7.711  25.250  0.2694 -0.2355  0.1615
11311W        W13461  16.294   0.522  19.072  0.1525  0.1347  0.3495
11312W        W13462  21.725   2.674  27.281  0.1914  0.0730  0.0503
11313W        W13463  17.655   2.398  16.979  0.1734 -0.2055 -0.2692
11314W        W13464  10.022   3.243   0.272 -0.1868 -0.2283  0.1918
11315W        W13465  10.586   5.810  25.795  0.0930 -0.0288 -0.0596
11316W        W13466   8.058   2.623   5.955  0.0827 -0.1405  0.1076
11317W        W13467   5.523   2.100  17.980 -0.2200  0.1633 -0.0041
11318W        W13468   5.571   2.231   8.118 -0.0262  0.3849  0.2972
11319W        W13469   5.241   2.099  12.486  0.1729 -0.2110 -0.0230
11320W        W13470  22.770   0.060  22.132  0.0705 -0.0779 -0.3289
11321W        W13471  13.038   6.064   0.396 -0.2040 -0.0306 -0.0515
11322W        W13472  12.158   4.975  18.285 -0.1670 -0.2371  0.0314
11323W        W13473   9.058   0.407  31.737  0.0018  0.0880 -0.3590
11324W        W13474   5.582   6.367  15.397  0.1608  0.2711 -0.0410
11325W        W13475  19.706   5.365  23.860 -0.1204  0.0359  0.0498
11326W        W13476   7.816   0.364  15.090 -0.1553 -0.0168 -0.3340
11327W        W13477   2.485   3.343  11.353 -0.1275  0.0188 -0.0836
11328W        W13478   0.595   3.966  12.989 -0.0859 -0.0436  0.0304
11329W        W13479   3.261   3.595  16.257 -0.0569  0.0664 -0.1229
11330W        W13480  21.776   3.002   8.831  0.4038  0.1291 -0.1784
11331W        W13481   4.207   2.256  13.375 -0.2030 -0.0822 -0.0920
11332W        W13482  12.056   5.167   1.880  0.0767 -0.1278 -0.2303
11333W        W13483  14.446   6.395  24.502 -0.2016  0.0138 -0.2200
11334W        W13484   1.392   7.114  13.236 -0.0742  0.1062  0.2550
11335W        W13485  17.050   6.005   5.002  0.0000 -0.2266  0.0175
11336W        W13486   0.577   2.023  30.675 -0.1480 -0.2359  0.1032
11337W        W13487  19.984   1.958  21.103  0.1344 -0.0838  0.0887
11338W        W13488  13.335   7.753  18.128 -0.2693 -0.2381  0.0106
11339W        W13489  23.643   0.897   9.201 -0.0595  0.1676  0.1949
11340W        W13490  16.912   1.015  28.368  0.3100 -0.2167 -0.2605
11341W        W13491  19.542   0.023  18.246  0.1183 -0.2530  0.2077
11342W        W13492   6.720   2.921   6.363 -0.1585 -0.1369 -0.0461
11343W        W13493   5.859   2.936   9.888 -0.0003  0.0406  0.2793
11344W        W13494  10.155   6.464  11.129  0.2065  0.0389 -0.2662
11345W        W13495  15.691   4.570  20.157 -0.1421 -0.0116  0.3007
11346W        W13496   7.706   1.343   8.127 -0.2277  0.1213  0.0686
11347W        W13497  11.466   1.834   4.596  0.5131 -0.3743 -0.0994
11348W        W13498  22.881   1.918  25.984  0.0132  0.0769  0.1051
11349W        W13499  20.737   2.180  18.424 -0.0503 -0.0911  0.0301
11350W        W13500  21.433   4.914  18.363 -0.1830 -0.2228 -0.0597
11351W        W13501   0.594   1.012  12.016  0.0849 -0.0875  0.1150
11352W        W13502   7.301   4.153   2.541 -0.0454 -0.0556 -0.1878
11353W        W13503  12.656   3.244  28.771  0.1423 -0.1762  0.2388
11354W        W13504  20.096   2.297   2.216 -0.0531  0.1352 -0.0963
11355W        W13505  11.903   2.742   4.219  0.1450  0.0534 -0.1696
11356W        W13506  12.067   7.045   2.784  0.2696 -0.0791 -0.2717
11357W        W13507   5.921   5.406  10.007 -0.3200 -0.1160  0.0761
11358W        W13508  23.268   1.387   9.321 -0.1011  0.2514 -0.2057
11359W        W13509  11.925   2.824  25.591  0.0471  0.0153 -0.2292
11360W        W13510   6.299   2.869  30.082 -0.0002  0.1616  0.2626
11361W        W13511  24.839   6.277  28.352 -0.2544 -0.0027  0.2119
11362W        W13512   8.898   0.258   6.747  0.2721  0.0828  0.0029
11363W        W13513  18.581   1.632  26.736 -0.0096  0.0412  0.2842
11364W        W13514  10.503   6.430   2.426  0.0193 -0.1160  0.2567
11365W        W13515   7.178   1.748  26.137 -0.0489 -0.0051 -0.3963
11366W        W13516  20.457   1.207  32.349 -0.1335  0.0662 -0.2755
11367W        W13517   2.549   4.893  27.717  0.0377  0.1907 -0.0411
11368W        W13518  24.669   5.933  30.829 -0.0153  0.2372 -0.2933
11369W        W13519  10.982   6.244  32.993  0.1076  0.3038  0.0358
11370W        W13520  21.234   1.344   2.970  0.0988 -0.0452  0.2051
11371W        W13521   7.568   6.050  29.998  0.1909 -0.2313  0.1447
11372W        W13522  10.111   6.211  12.023  0.1813  0.0131 -0.1532
11373W        W13523  23.344   6.244  31.032 -0.0632 -0.1073  0.1248
11374W        W13524  19.270   0.813  20.844  0.0201  0.0424 -0.2624
11375W        W13525  19.949   7.478  30.622  0.1179 -0.3612 -0.1056
11376W        W13526  23.287   1.729  31.809  0.4868  0.1810  0.2260
11377W        W13527  22.559   7.184  10.444  0.0833  0.0679 -0.2991
11378W        W13528  23.475   1.040   8.383  0.1037 -0.0915 -0.3260
11379W        W13529  14.250   3.713   2.182 -0.0692 -0.2335 -0.1121
11380W        W13530   7.010   1.185   3.216 -0.1361 -0.1644 -0.2697
11381W        W13531  18.336   0.100   5.017 -0.1122 -0.2849  0.0362
11382W        W13532   5.979   5.902  32.336  0.4457 -0.1358  0.2106
11383W        W13533  11.555   2.499  32.369  0.2780 -0.0795 -0.0804
11384W        W13534  23.354   2.428   4.494  0.0721 -0.1346  0.0908
11385W        W13535   3.135   0.729   3.109  0.1604  0.1646  0.2089
11386W        W13536  23.157   2.043  29.066  0.3766 -0.1407 -0.0769
11387W        W13537  16.124   6.464   1.930 -0.0754  0.2613 -0.0725
11388W        W13538  14.666   3.710  20.391 -0.0362  0.0239 -0.0036
11389W        W13539  20.636   2.537   2.424  0.1063 -0.1822 -0.0466
11390W        W13540   7.616   0.366  13.349 -0.0376 -0.0049  0.1065
11391W        W13541  10.280   2.589   2.268  0.1780 -0.1651 -0.1927
11392W        W13542  10.012   1.170  23.483 -0.1995  0.1545  0.1869
11393W        W13543   9.987   3.938   7.589  0.2875  0.0488 -0.1651
11394W        W13544  16.053   1.996  24.380  0.0232  0.0031  0.1175
11395W        W13545   5.661   7.737  26.637  0.1927  0.0049  0.2425
11396W        W13546  21.444   7.701  21.966  0.1377 -0.2681  0.3199
11397W        W13547  14.939   3.803  17.501 -0.1357  0.0070 -0.1951
11398W        W13548  18.185   3.183  31.248 -0.0959  0.1161  0.1624
11399W        W13549  22.291   2.692  29.760  0.3386 -0.0154 -0.0382
11400W        W13550  17.718   3.717   9.903 -0.1912 -0.1452  0.0265
11401W        W13551   2.751   5.999   6.473 -0.0659 -0.1828  0.1343
11402W        W13552  13.989   2.968   9.036 -0.0169 -0.0034 -0.0206
11403W        W13553  16.368   4.693  19.517 -0.0005 -0.1023  0.1253
11404W        W13554   7.330   4.973   2.986  0.0363 -0.2069  0.1506
11405W        W13555  17.667   4.407   3.129 -0.0518 -0.2224  0.0331
11406W        W13556   6.541   1.632  31.865 -0.0561  0.3989 -0.2178
11407W        W13557  12.890   3.164  27.578 -0.0668  0.1978 -0.0569
11408W        W13558   4.956   6.285   7.682 -0.1760 -0.4264 -0.1847
11409W        W13559  15.261   0.737  30.433  0.1902  0.0775 -0.1186
11410W        W13560   9.393   6.696   0.057 -0.0237 -0.1694  0.1031
11411W        W13561  15.765   5.724  29.805 -0.0934  0.0032  0.0610
11412W        W13562  14.943   0.988  29.689 -0.1216 -0.0435  0.1513
11413W        W13563   7.498   5.015   6.269  0.2401  0.1727  0.3127
11414W        W13564  12.260   1.020   0.592  0.1665 -0.1215 -0.4242
11415W        W13565  17.007   3.746  17.887  0.1975 -0.1094  0.1436
11416W        W13566  12.174   5.048   4.410 -0.2711  0.0093 -0.2651
11417W        W13567  15.339   3.103  30.771  0.2984  0.0164 -0.0589
11418W        W13568   3.892   3.496   8.831  0.2260 -0.0707  0.2817
11419W        W13569   3.849   1.093  26.922  0.0483  0.1635 -0.0073
11420W        W13570  22.744   1.901   5.385 -0.1755 -0.0767 -0.4311
11421W        W13571  24.725   7.182   6.331  0.0649  0.3991 -0.0063
11422W        W13572  13.792   6.633   0.176 -0.0419 -0.0217  0.3408
11423W        W13573  14.197   0.058  19.877 -0.1897 -0.0334 -0.2713
11424W        W13574   4.401   6.326  24.109 -0.2718  0.2675  0.0847
11425W        W13575   0.384   5.956  15.094 -0.2721 -0.0879 -0.0404
11426W        W13576   6.070   1.476   5.872  0.0525 -0.1040 -0.0664
11427W        W13577  22.893   7.461   2.300  0.0940 -0.2001 -0.2355
11428W        W13578  15.296   6.245  19.536 -0.0062 -0.1441  0.5445
11429W        W13579   1.680   4.210   0.495 -0.0699  0.1555  0.0983
11430W        W13580   2.300   2.568  24.241  0.0834  0.1995  0.0738
11431W        W13581   1.479   1.236  12.118 -0.1687 -0.1127  0.1069
11432W        W13582  20.395   5.470   3.249  0.0296 -0.1792 -0.0240
11433W        W13583  21.378   7.240  26.740 -0.0506 -0.2343 -0.2386
11434W        W13584  24.309   0.961  12.841 -0.0176 -0.1802 -0.1230
11435W        W13585   6.020   3.800   9.925 -0.0820  0.0379 -0.1079
11436W        W13586   1.352   2.402   8.713  0.5340  0.1907  0.0618
11437W        W13587  23.400   2.711   7.392 -0.0665  0.0336 -0.0186
11438W        W13588   8.660   0.110   6.166 -0.0517  0.1537 -0.1175
11439W        W13589  11.375   1.201  32.516  0.1957 -0.1430  0.0394
11440W        W13590  18.623   2.864   0.066  0.3028 -0.5085 -0.2989
11441W        W13591  21.478   7.728  28.745 -0.2128 -0.1103  0.1443
11442W        W13592  20.354   4.870  20.000 -0.1919 -0.1834 -0.2470
11443W        W13593   0.950   0.456  30.058  0.2465 -0.1727 -0.2939
11444W        W13594  16.930   2.108   4.094 -0.0013  0.1314  0.1506
11445W        W13595  16.884   7.069   9.001 -0.1599  0.0733 -0.1186
11446W        W13596  15.545   2.852  17.100 -0.0329 -0.0097  0.2518
11447W        W13597  23.416   1.707   6.036 -0.2643  0.1700 -0.2467
11448W        W13598   6.228   6.302  31.051  0.1365 -0.0607 -0.2064
11449W        W13599  18.603   5.319   7.969  0.0723  0.1524 -0.0966
11450W        W13600  14.123   1.667   5.254  0.4111  0.3289  0.6128
11451W        W13601  24.910   2.649  14.912  0.0940 -0.3881  0.0593
11452W        W13602  14.773   5.546   7.076  0.0534  0.0033  0.1573
11453W        W13603   0.787   7.266   0.594  0.1620 -0.1118 -0.0381
11454W        W13604   9.073   5.567  25.020 -0.0086  0.3798  0.1293
11455W        W13605   0.873   1.912   4.195 -0.0182  0.1376 -0.0650
11456W        W13606   6.281   4.398  25.622 -0.0089  0.0926  0.1386
11457W        W13607  13.930   1.100  15.848  0.0805  0.3929  0.1436
11458W        W13608  13.699   6.737   6.979  0.1925  0.1533  0.0187
11459W        W13609  11.549   4.753  30.665 -0.1583  0.1124  0.0795
11460W        W13610  22.200   6.150   0.887 -0.0013  0.0347 -0.0036
11461W        W13611   2.835   2.805   9.796 -0.1859  0.3653 -0.2014
11462W        W13612  10.537   4.346   8.175  0.4740  0.0133  0.3588
11463W        W13613   9.528   3.955  13.094  0.1059 -0.1583 -0.0320
11464W        W13614  18.341   5.214  30.141 -0.1317  0.0816 -0.1282
11465W        W13615  12.015   6.538   8.016 -0.1548 -0.0691 -0.2079
11466W        W13616   9.285   3.258   6.636  0.1530  0.5155  0.0513
11467W        W13617   3.530   2.305  13.846 -0.0778  0.0925  0.0959
11468W        W13618  12.850   6.916   0.970 -0.1004  0.0473 -0.1466
11469W        W13619  19.616   1.674  24.241 -0.0425 -0.1908  0.1377
11470W        W13620  12.141   6.353  31.861 -0.1367 -0.0510 -0.2863
11471W        W13621   2.185   0.465  24.814  0.2701  0.0411 -0.1384
11472W        W13622   6.875   0.175   3.805 -0.0086  0.0610 -0.2462
11473W        W13623   4.806   5.410  24.566  0.0428 -0.0087 -0.1462
11474W        W13624  24.288   7.176   6.855  0.1045  0.0420  0.0127
11475W        W13625   0.549   6.741  13.507  0.2066  0.0932 -0.0975
11476W        W13626   9.109   1.780  23.408 -0.0409 -0.1530  0.0452
11477W        W13627  10.049   0.241  29.228 -0.1680  0.2091 -0.2467
11478W        W13628   6.344   6.580  14.543 -0.2153 -0.0747  0.1123
11479W        W13629  16.018   6.500  30.069  0.0993  0.0655  0.0487
11480W        W13630  15.666   2.448   0.451 -0.0546  0.1120 -0.2102
11481W        W13631  13.553   4.298   0.491  0.1635  0.0411  0.1414
11482W        W13632  23.978   5.082  14.343 -0.3715  0.2066  0.1818
11483W        W13633  10.346   2.556   8.870 -0.1156  0.0793  0.0370
11484W        W13634   9.070   4.254  24.690  0.2389  0.3006 -0.5915
11485W        W13635  23.797   5.972   1.182  0.0190  0.0368  0.0687
11486W        W13636  12.766   5.782  25.033  0.1643  0.2991 -0.0654
11487W        W13637  24.669   0.691  21.322 -0.1909  0.1740 -0.0211
11488W        W13638   4.358   0.755   4.064 -0.1472 -0.0497  0.0049
11489W        W13639   9.387   2.260  13.082  0.2708 -0.1943  0.1104
11490W        W13640   2.007   3.308  29.160  0.0746  0.1206  0.2307
11491W        W13641  13.524   0.354  30.157  0.0430  0.0606  0.0289
11492W        W13642  16.402   3.353   7.481  0.0248 -0.2231 -0.0972
11493W        W13643  20.723   2.363   9.312 -0.2576  0.2211  0.1531
11494W        W13644   7.298   5.709   0.938 -0.0253  0.0497 -0.0779
11495W        W13645   3.906   7.700  18.037 -0.1796  0.0849 -0.2752
11496W        W13646  21.497   6.866  12.152  0.2265 -0.1536  0.0956
11497W        W13647  23.110   6.515  19.748 -0.0758  0.2860  0.0790
11498W        W13648  20.954   3.734  24.588  0.0070  0.0907 -0.2963
11499W        W13649  20.740   6.353  27.705  0.0533 -0.0308 -0.0126
11500W        W13650  13.789   3.816   8.750 -0.0691  0.1052 -0.1001
11501W        W13651  16.634   1.437  23.883  0.2802  0.1379  0.0727
11502W        W13652   5.347   4.792  13.798 -0.0569  0.0366  0.0818
11503W        W13653  19.355   4.028  31.350 -0.0689 -0.2133 -0.1030
11504W        W13654  18.910   5.215  25.063 -0.2124  0.1047 -0.1835
11505W        W13655  24.653   3.254  10.078 -0.0989 -0.2751 -0.2752
11506W        W13656  10.272   0.229   4.873 -0.0360 -0.2313 -0.0147
11507W        W13657  10.597   2.514  22.420  0.0265  0.2777 -0.0997
11508W        W13658  20.252   1.163  19.020 -0.2348  0.0456  0.3379
11509W        W13659   8.982   7.515  25.821  0.2139 -0.3102 -0.0495
11510W        W13660  22.978   3.994  23.260  0.0643  0.1579  0.2110
11511W        W13661  12.153   1.394  26.644 -0.0288 -0.4104  0.0053
11512W        W13662   4.921   0.122   5.315 -0.0174  0.0142 -0.0674
11513W        W13663  13.750   2.007  27.570 -0.0510 -0.3866  0.0712
11514W        W13664   4.880   7.109  18.117  0.1607 -0.1453  0.1604
11515W        W13665  19.025   3.515   7.897 -0.1354  0.0422  0.0075
11516W        W13666   7.923   0.760  29.076 -0.1553  0.2173  0.2628
11517W        W13667  20.532   7.759   2.458  0.1561 -0.0592  0.0362
11518W        W13668   3.248   6.242   5.125  0.0491  0.0140  0.4152
11519W        W13669   4.091   2.616   1.952 -0.0346  0.0192 -0.2008
11520W        W13670   9.441   3.707  31.653 -0.1232 -0.1379  0.2372
11521W        W13671  12.936   2.192   5.124 -0.3676  0.1837 -0.1439
11522W        W13672  24.628   3.039  30.302  0.0357  0.0103  0.0315
11523W        W13673   5.258   2.351  11.932 -0.0393  0.2179 -0.3612
11524W        W13674  17.860   6.810  32.931 -0.0552  0.0507  0.0905
11525W        W13675   8.790   0.674  14.739 -0.5427 -0.1210  0.1993
11526W        W13676  10.133   7.131  27.960 -0.1896 -0.1501  0.0609
11527W        W13677   6.261   1.603   3.822 -0.2868 -0.0285  0.2973
11528W        W13678  24.594   5.446  10.080  0.0765  0.2493  0.2404
11529W        W13679   6.163   1.798  14.698 -0.0797 -0.2639  0.1785
11530W        W13680   4.441   1.997  31.305  0.0606  0.0302  0.0148
11531W        W13681  16.022   5.668  28.858 -0.2634 -0.3752 -0.1211
11532W        W13682  10.878   7.040  24.842  0.0604  0.0250  0.1488
11533W        W13683  10.792   1.641   2.694  0.0275 -0.0533  0.2698
11534W        W13684   9.176   7.788   9.898  0.1165 -0.2002 -0.1585
11535W        W13685   9.810   4.787   3.062 -0.3250 -0.1734 -0.1829
11536W        W13686  12.187   4.486  32.720  0.0391 -0.0590 -0.2376
11537W        W13687   4.144   5.609   2.316  0.0620 -0.0165 -0.0944
11538W        W13688   5.781   5.010  27.951  0.2317  0.2655  0.1789
11539W        W13689   8.698   7.493   1.618  0.2228  0.0226 -0.1009
11540W        W13690  13.536   0.125   8.003  0.0408 -0.0519 -0.0272
11541W        W13691   0.065   1.962  30.913  0.1519 -0.3370  0.0382
11542W        W13692  24.569   4.149   1.198  0.1127 -0.1079 -0.0308
11543W        W13693  20.626   5.640  30.142 -0.3390  0.2551 -0.0273
11544W        W13694   1.563   6.428   8.968  0.1992  0.0781 -0.0722
11545W        W13695  13.778   0.612   8.367 -0.2660 -0.3863  0.1270
11546W        W13696  15.068   2.649  31.595 -0.2102 -0.1196 -0.0533
11547W        W13697  19.547   2.932  17.409  0.2034 -0.0523 -0.1047
11548W        W13698   8.406   3.701   2.973 -0.3278 -0.2293 -0.0585
11549W        W13699  19.374   4.551  10.045  0.2066 -0.5347  0.2572
11550W        W13700  17.490   2.938  25.326  0.2811  0.2863  0.0496
11551W        W13701  10.523   7.486  32.845  0.1769  0.1492 -0.1971
11552W        W13702  12.902   3.399   8.537  0.0744  0.1352  0.2560
11553W        W13703   6.282   5.778  27.176  0.0067  0.2712 -0.1247
11554W        W13704  17.008   6.498  31.190 -0.0495  0.0113 -0.1206
11555W        W13705  10.181   2.331   7.597  0.0798  0.0122 -0.1282
11556W        W13706  19.075   3.420  27.366  0.2317 -0.0201 -0.1083
11557W        W13707   6.449   5.472   2.833 -0.0890  0.0943 -0.2024
11558W        W13708   3.179   7.056  30.370 -0.0294 -0.1832  0.3870
11559W        W13709  20.421   0.046   8.740 -0.1340  0.1270  0.1616
11560W        W13710   6.425   5.858  13.374 -0.1203  0.0656 -0.1062
11561W        W13711  22.665   2.831  13.145  0.0351  0.0497 -0.0998
11562W        W13712   3.392   7.738   4.915  0.1449  0.1765 -0.1177
11563W        W13713   8.260   5.954  12.462  0.2575 -0.1742  0.2029
11564W        W13714   3.898   5.257   2.650  0.4618 -0.3717  0.1126
11565W        W13715   1.696   5.447   2.334 -0.1408 -0.0767  0.1168
11566W        W13716   9.718   0.839   6.964  0.1053  0.0526 -0.0035
11567W        W13717   9.987   1.880   5.097 -0.0996 -0.2124 -0.0588
11568W        W13718  24.924   4.941  12.122  0.0410  0.0362 -0.1130
11569W        W13719   6.772   5.743  27.672  0.5032 -0.1089 -0.1798
11570W        W13720   2.571   6.721   5.274  0.0253 -0.2846 -0.0477
11571W        W13721  22.351   5.655  28.300 -0.3936  0.1551 -0.2223
11572W        W13722   3.302   6.167  16.564 -0.1397 -0.1392  0.2875
11573W        W13723  11.887   4.807   5.418  0.0105  0.0536  0.1850
11574W        W13724   2.250   2.277  32.687  0.0205 -0.2004  0.3607
11575W        W13725  12.299   2.198  28.981  0.0507 -0.2629 -0.0172
11576W        W13726   7.243   3.090  25.916  0.1593  0.1631  0.2791
11577W        W13727   0.918   3.729  30.315 -0.6083  0.0040  0.0381
11578W        W13728  20.773   0.489  25.266  0.0120 -0.0425 -0.3716
11579W        W13729  20.879   6.006  22.269 -0.0265 -0.1643  0.1714
11580W        W13730   7.928   6.796  25.356 -0.0241 -0.2029 -0.1084
11581W        W13731   3.595   3.072  31.407  0.0713  0.1673 -0.0452
11582W        W13732  10.459   6.885  24.600 -0.0949 -0.0290  0.4630
11583W        W13733  23.488   4.219  20.495  0.1804  0.1198 -0.0337
11584W        W13734  16.361   3.763  22.867  0.2383  0.1057  0.1965
11585W        W13735  17.912   6.065   4.763  0.1186  0.3189  0.0800
11586W        W13736   6.517   4.698  24.904 -0.4591  0.0763  0.0634
11587W        W13737  24.635   5.486  28.518  0.0620  0.0779 -0.0952
11588W        W13738  14.532   5.768  30.408  0.0863 -0.0324  0.0361
11589W        W13739  16.802   0.314   5.282 -0.1432 -0.1237  0.2226
11590W        W13740  24.364   7.611  21.441 -0.0361 -0.0121  0.2962
11591W        W13741   5.150   2.883   8.611  0.0973  0.0603 -0.0445
11592W        W13742   1.714   3.471   3.292  0.0211  0.2119  0.2360
11593W        W13743   9.175   7.417  31.154  0.1309  0.3941  0.2436
11594W        W13744   5.242   7.028  18.473 -0.0639 -0.0012 -0.1022
11595W        W13745  13.304   1.473   4.327 -0.1807  0.1615 -0.0629
11596W        W13746  22.203   3.459  31.179 -0.1834 -0.1338 -0.1370
11597W        W13747   2.136   3.023  23.860 -0.2780  0.1752 -0.0998
11598W        W13748   3.568   5.333  31.363  0.0554  0.1338 -0.3136
11599W        W13749  14.939   1.925  20.204  0.2139 -0.0023 -0.0113
11600W        W13750   6.551   4.466   9.426  0.1370 -0.2208  0.0393
11601W        W13751   5.944   3.184  22.810 -0.1964 -0.2016 -0.1866
11602W        W13752  10.694   7.799  11.042  0.0019 -0.1081 -0.0312
11603W        W13753  11.493   1.203  23.037  0.0375  0.2285  0.2459
11604W        W13754  13.875   0.952  29.181 -0.2889 -0.3588 -0.0295
11605W        W13755   3.025   0.321  11.492  0.0791  0.1563  0.1655
11606W        W13756   9.648   0.246  10.642  0.2312  0.1598  0.1077
11607W        W13757   0.288   2.936   7.727 -0.2894 -0.0526  0.0929
11608W        W13758  24.070   4.330   1.272 -0.1818  0.2816 -0.2245
11609W        W13759   6.117   5.118  22.193  0.0051  0.1725  0.0066
11610W        W13760  23.487   1.474  32.203  0.2291  0.0391  0.1815
11611W        W13761   6.815   4.462  23.595  0.1061  0.0476 -0.0016
11612W        W13762   1.654   4.734   5.341  0.0116 -0.3845 -0.1403
11613W        W13763   1.163   1.023   3.640 -0.1631 -0.0219  0.0711
11614W        W13764  12.856   3.908  20.732 -0.0647  0.0217 -0.0771
11615W        W13765   6.229   6.047  13.856  0.0520  0.0612  0.0807
11616W        W13766  22.223   2.610  12.860  0.0585 -0.0362  0.0925
11617W        W13767   0.798   1.649  27.795 -0.0195 -0.0607 -0.0568
11618W        W13768  17.438   7.143   2.884 -0.0397 -0.1276  0.1581
11619W        W13769  14.253   3.010   8.379 -0.1161  0.1501  0.2204
11620W        W13770   4.581   4.073  12.165  0.0281  0.2762 -0.0184
11621W        W13771  23.141   5.296   3.608  0.0158  0.1534  0.4354
11622W        W13772   9.842   1.407   8.910  0.0710  0.0525 -0.1194
11623W        W13773   8.969   4.419  30.393  0.0984 -0.1785  0.1360
11624W        W13774   4.934   6.756  26.678  0.1456 -0.5656 -0.0255
11625W        W13775  24.217   1.191   3.260 -0.4159  0.1858  0.2681
11626W        W13776   9.545   4.936  23.516  0.2254  0.0595 -0.2102
11627W        W13777  22.981   3.290   7.352  0.2269 -0.2688 -0.2128
11628W        W13778  17.932   1.740   6.959  0.3031  0.0004  0.2003
11629W        W13779  15.375   4.965   7.131 -0.1415 -0.0593 -0.5537
11630W        W13780  11.910   2.140   3.561 -0.1979  0.0722  0.0132
11631W        W13781   0.285   3.030   3.884 -0.2167  0.2061 -0.1594
11632W        W13782   6.863   7.457  11.211 -0.3018  0.0647 -0.1325
11633W        W13783  15.023   6.889   5.548  0.1406 -0.0555  0.0031
11634W        W13784  11.709   1.864  17.662  0.0996 -0.0980  0.1469
11635W        W13785   3.790   2.431   2.889 -0.0396 -0.3167 -0.3772
11636W        W13786  19.457   6.263   1.556  0.1792 -0.0813  0.0773
11637W        W13787  12.223   5.408  17.968  0.0924 -0.1093  0.1404
11638W        W13788  11.674   0.241  31.657  0.3237  0.1307  0.3944
11639W        W13789  14.187   6.157  25.661 -0.1159  0.2250 -0.0291
11640W        W13790  18.675   4.907   3.059 -0.0847  0.0005  0.0875
11641W        W13791  10.095   0.932   7.758  0.2055  0.1323  0.0082
11642W        W13792   5.399   7.137  22.927 -0.4467 -0.0944 -0.0031
11643W        W13793   7.673   2.476   8.617  0.0291  0.1167  0.1450
11644W        W13794  17.629   4.526  27.360  0.0200 -0.0569 -0.0742
11645W        W13795  13.905   5.796  31.012  0.0614  0.1799 -0.0401
11646W        W13796   5.052   5.781   4.404 -0.0058  0.1993 -0.2093
11647W        W13797   7.006   3.109   8.707 -0.1937 -0.1616  0.0403
11648W        W13798   6.864   7.598  15.341 -0.2528  0.0703  0.0657
11649W        W13799  18.678   7.483  25.615 -0.1146 -0.0574  0.1221
11650W        W13800   9.375   4.461  12.977  0.1044 -0.1093 -0.0475
11651W        W13801   5.935   7.346   4.707  0.1152 -0.0775  0.1599
11652W        W13802   0.975   1.069  16.098 -0.0780 -0.3194  0.3390
11653W        W13803   7.261   6.601  16.690 -0.1335 -0.0924  0.2089
11654W        W13804   0.187   1.076  11.752  0.0087  0.0905  0.0876
11655W        W13805  23.851   6.629  31.639  0.4511 -0.1160  0.0090
11656W        W13806  15.904   5.239   1.777 -0.2276 -0.0402 -0.1576
11657W        W13807  16.563   5.894   9.877  0.1559 -0.1663 -0.3208
11658W        W13808   1.360   7.144  13.911 -0.1874  0.1278  0.0814
11659W        W13809  23.914   0.410  25.477 -0.0722  0.1309 -0.1652
11660W        W13810   7.121   5.792   3.979 -0.0599 -0.0898  0.0567
11661W        W13811  10.862   0.693   0.653 -0.1988  0.1517  0.0858
11662W        W13812  24.716   7.505   6.648  0.2681  0.1109 -0.0833
11663W        W13813  21.778   6.420  24.237 -0.1584 -0.1238 -0.0352
11664W        W13814   4.172   4.386  13.802  0.0768 -0.1428 -0.2474
11665W        W13815  13.822   2.701  21.524 -0.1473  0.0086 -0.4829
11666W        W13816  22.566   3.541  11.037  0.0210 -0.0675 -0.0982
11667W        W13817  18.132   6.069  21.053 -0.1256 -0.1294  0.0808
11668W        W13818   7.386   2.985  32.016 -0.0014 -0.0371  0.0395
11669W        W13819  14.275   5.378  19.994 -0.1968  0.1085 -0.0788
11670W        W13820  23.700   0.269  32.429 -0.0168 -0.1557 -0.0242
11671W        W13821  11.666   5.748  17.976 -0.2004 -0.1055  0.1547
11672W        W13822   1.772   0.032  12.588  0.1700  0.1545 -0.0828
11673W        W13823   2.261   1.133   5.840  0.1985 -0.2735  0.0477
11674W        W13824   1.298   2.042   3.938  0.2246  0.1011  0.0060
11675W        W13825  10.234   1.191   9.066 -0.0453 -0.0301  0.3149
11676W        W13826   1.696   1.432   4.189 -0.1268 -0.0608 -0.2010
11677W        W13827   1.492   3.717  14.353 -0.1405  0.1500 -0.0439
11678W        W13828  13.173   4.014  21.449  0.1961  0.0225  0.0956
11679W        W13829   0.223   2.606   3.105 -0.3880  0.0290 -0.1023
11680W        W13830   4.712   6.241  15.272 -0.1608  0.1842  0.1012
11681W        W13831   9.287   3.989  10.523  0.1733 -0.2784 -0.0015
11682W        W13832  10.752   7.175  28.504  0.2166 -0.0494 -0.3852
11683W        W13833  20.156   1.700   4.652 -0.0463  0.2417  0.2470
11684W        W13834  12.573   5.835  19.976  0.1744  0.2830 -0.0472
11685W        W13835  14.334   1.082  21.115  0.0227 -0.2719  0.0002
11686W        W13836   6.373   1.132  17.355  0.0605  0.2376 -0.3924
11687W        W13837   5.233   3.589   1.436  0.0561  0.1923  0.1504
11688W        W13838  13.593   2.626   4.064 -0.0380  0.1062  0.1376
11689W        W13839  21.212   2.637   2.007  0.4909  0.1294 -0.0666
11690W        W13840   6.894   5.325  17.426 -0.0325  0.0654  0.1817
11691W        W13841  14.407   3.099   0.640 -0.0321  0.0041  0.1050
11692W        W13842  10.090   4.602  11.737  0.1480 -0.1556  0.0180
11693W        W13843  19.777   3.599  30.022 -0.0402  0.0750  0.3210
11694W        W13844  11.855   4.654   8.342 -0.1365  0.4186  0.0602
11695W        W13845  15.074   2.583  32.070 -0.1595  0.0785 -0.3414
11696W        W13846   3.270   3.167   4.380  0.0743 -0.1070  0.2181
11697W        W13847   4.087   0.000  28.335 -0.2058 -0.2127 -0.1563
11698W        W13848   4.697   3.793   6.561  0.0159  0.1000  0.0905
11699W        W13849  22.847   5.837   7.460  0.1047 -0.1439 -0.1237
11700W        W13850  20.762   4.824  28.748 -0.4007 -0.1922  0.0536
11701W        W13851  11.436   6.346  11.590  0.1799 -0.5216 -0.0893
11702W        W13852  20.145   5.181   3.951  0.1627 -0.5366  0.0600
11703W        W13853  15.091   3.159  21.984 -0.0794 -0.2598 -0.0371
11704W        W13854   2.987   5.824  31.981 -0.1050  0.3683 -0.0140
11705W        W13855  24.053   3.834   6.787  0.3384 -0.3542 -0.0789
11706W        W13856  22.515   1.353  11.812  0.1305 -0.0959 -0.1799
11707W        W13857  24.527   7.797  31.381 -0.2319 -0.0316  0.3346
11708W        W13858  16.832   2.345  29.079  0.1449 -0.3366  0.0086
11709W        W13859  16.404   6.958  21.641  0.3865 -0.1144  0.1455
11710W        W13860   8.283   7.055  23.314  0.0061 -0.1463  0.1820
11711W        W13861   0.215   5.855  27.760  0.1852 -0.1241 -0.0854
11712W        W13862   7.481   7.558  28.234  0.0040 -0.2336 -0.0178
11713W        W13863  21.792   1.152   3.936  0.2777 -0.1211  0.3727
11714W        W13864   6.124   4.174  13.004  0.0212  0.1615 -0.0986
11715W        W13865   1.263   6.417  15.251  0.0608 -0.0668  0.0257
11716W        W13866   6.275   7.153   5.032 -0.3026 -0.1502  0.0712
11717W        W13867  12.215   5.254  27.845 -0.1395 -0.0366 -0.0815
11718W        W13868  14.551   6.657   9.771  0.2491 -0.0056 -0.1753
11719W        W13869  23.074   4.205  26.375 -0.2553  0.2362 -0.1596
11720W        W13870   8.461   7.521   0.605  0.0040  0.0162  0.0756
11721W        W13871  20.061   5.939  32.871  0.0316  0.3847  0.0131
11722W        W13872   2.004   1.844  11.163  0.4012 -0.0763  0.0900
11723W        W13873   1.648   0.010  23.120 -0.0716 -0.1528  0.0569
11724W        W13874   5.516   7.362  11.880  0.0425 -0.4123 -0.0563
11725W        W13875   4.890   6.189   9.363 -0.0875 -0.3092 -0.1705
11726W        W13876  16.231   3.121   4.927 -0.1399 -0.0614  0.0718
11727W        W13877  16.118   0.292  27.764 -0.1190 -0.0054  0.1614
11728W        W13878  24.152   4.129  29.670  0.5921  0.0707  0.0026
11729W        W13879   0.004   2.800  29.995 -0.1589  0.0252 -0.0278
11730W        W13880   8.451   3.856  26.181  0.2532  0.0460  0.1857
11731W        W13881  10.802   3.611  28.358  0.0160 -0.2738  0.1760
11732W        W13882  22.572   5.385  27.965  0.1696 -0.1685 -0.2530
11733W        W13883  15.967   2.910  25.697  0.0606  0.2105  0.1793
11734W        W13884   2.611   5.243  13.321 -0.0249  0.0784 -0.2347
11735W        W13885   2.382   7.268  15.617  0.0395  0.2517  0.1039
11736W        W13886  14.649   4.014  25.601  0.1011 -0.0848 -0.3257
11737W        W13887  10.155   6.542  26.952  0.1917  0.0671 -0.1437
11738W        W13888  23.783   5.762  30.870 -0.2619 -0.2271  0.1448
11739W        W13889  11.726   5.150  23.247 -0.2387  0.0584  0.2016
11740W        W13890   6.876   0.061   8.941 -0.1650  0.3405  0.2972
11741W        W13891   6.768   0.329  29.583  0.3578  0.1492 -0.2086
11742W        W13892  18.714   4.233  23.730 -0.0588 -0.1289  0.0793
11743ION     NA13893  16.396   1.852  30.338  0.2934  0.5122  0.0608
11744ION     NA13894  18.445   6.856   4.645 -0.0948 -0.3613  0.2147
11745ION     NA13895   4.930   2.495   0.681  0.1830 -0.0419 -0.2387
11746ION     NA13896  14.520   0.920  21.909  0.5090  0.1706 -0.3786
11747ION     NA13897  15.719   4.409  22.939  0.2772 -0.1581  0.3675
11748ION     NA13898  15.504   2.042  26.134 -0.2027 -0.2547  0.0220
11749ION     NA13899  24.261   4.913  13.007  0.2163  0.1130 -0.2375
11750ION     NA13900   8.401   1.100  31.758  0.2644 -0.0586 -0.1663
11751ION     NA13901  22.997   2.501   3.961  0.0320  0.0788 -0.0556
11752ION     NA13902   3.455   1.283   9.491  0.1708  0.1148  0.5125
11753ION     NA13903  21.736   6.895  27.291 -0.0849  0.2341 -0.4641
11754ION     NA13904   9.992   2.396   5.446  0.0945  0.2692  0.5173
11755ION     NA13905  20.789   2.963  19.205 -0.0914 -0.0731  0.0737
11756ION     NA13906  15.076   0.901  22.225 -0.0781 -0.3867 -0.1969
11757ION     NA13907   3.674   0.521   1.143  0.3034 -0.1549 -0.3862
11758ION     NA13908  13.778   7.428  22.975 -0.0783 -0.1885  0.1619
11759ION     NA13909  23.919   7.306   1.369 -0.0616 -0.0744 -0.2765
11760ION     NA13910  19.025   4.686   0.381 -0.4173 -0.2766  0.2298
11761ION     NA13911  16.481   3.668  32.085 -0.1960 -0.0747  0.1441
11762ION     NA13912  12.964   0.317  16.806 -0.3073 -0.4039  0.1456
11763ION     NA13913   9.682   3.491  23.421  0.2851 -0.1560 -0.4457
11764ION     NA13914  23.964   0.868  21.202  0.0158  0.1516 -0.2670
11765ION     NA13915  18.381   7.205  28.710 -0.2767 -0.0637  0.6964
11766ION     NA13916  14.110   1.460  30.781 -0.2158 -0.0557  0.0355
11767ION     NA13917   8.548   5.175  31.450  0.1324 -0.4374 -0.0167
11768ION     NA13918  15.175   2.735   6.840  0.3553 -0.0813  0.0263
11769ION     NA13919  15.321   3.102  29.955 -0.1745 -0.0749 -0.1986
11770ION     NA13920  21.774   2.314   0.936  0.0911  0.1034  0.2806
11771ION     NA13921  13.677   3.926  20.673 -0.1365  0.0750 -0.0645
11772ION     NA13922   6.945   2.485  29.972  0.1976 -0.0219 -0.2527
11773ION     NA13923  21.915   3.469   4.902 -0.3984  0.1826 -0.0757
11774ION     NA13924  13.880   5.491  19.836 -0.1205 -0.2957  0.0643
11775ION     NA13925  14.328   4.972  21.232 -0.1331 -0.1474 -0.3750
11776ION     NA13926  18.016   6.339  29.009  0.0258  0.0443 -0.5292
11777ION     NA13927  23.933   3.118  32.103  0.1871 -0.0373  0.2597
11778ION     NA13928   1.107   2.213   1.085  0.0175  0.5172 -0.2760
11779ION     NA13929  15.116   6.873  15.185  0.1299 -0.1754  0.3146
11780ION     NA13930  24.334   2.678  11.563  0.1801  0.6419 -0.0151
11781ION     NA13931  24.523   3.014   0.318 -0.3290  0.2935  0.1583
11782ION     NA13932  24.627   5.705  15.242  0.5926 -0.1664  0.0388
11783ION     NA13933  23.781   6.694  11.787 -0.4862  0.1886  0.0038
11784ION     NA13934   4.332   0.310   2.787 -0.0699  0.2272 -0.2463
11785ION     NA13935  23.199   4.971   7.083 -0.2589 -0.0611  0.0649
11786ION     NA13936   8.547   1.150   8.656  0.4803 -0.1213 -0.3081
11787ION     NA13937   9.460   1.735   1.086  0.0116 -0.2384  0.1762
11788ION     NA13938   8.368   6.752  13.412  0.2515 -0.0051 -0.4865
11789ION     NA13939  15.026   5.833  16.646 -0.0658 -0.0792 -0.0163
11790ION     NA13940   5.647   6.590  10.494  0.0913  0.1945  0.2237
11791ION     NA13941  16.806   4.831  21.804 -0.3136 -0.1999  0.0419
11792ION     NA13942  24.546   5.501   2.182  0.0336  0.3513  0.0643
11793ION     NA13943   6.748   2.392  26.297  0.0551  0.1180  0.2074
11794ION     NA13944   7.452   1.476   4.338 -0.0876 -0.0565 -0.3661
11795ION     NA13945   5.518   0.856  17.314  0.0156  0.1439  0.0686
11796ION     NA13946  15.326   4.866  14.633 -0.0880 -0.4524  0.1718
11797ION     NA13947  24.317   7.283  13.323  0.1400 -0.2158  0.2588
11798ION     NA13948   3.684   5.725  31.149 -0.1757  0.1389 -0.2386
11799ION     NA13949  17.063   7.373   3.176 -0.0312 -0.1964 -0.2785
11800ION     NA13950   1.656   0.392  32.036  0.0955  0.2972 -0.4145
11801ION     NA13951  23.565   5.145  24.476  0.2700  0.3385  0.1530
11802ION     NA13952   8.638   0.253   9.071  0.1093 -0.3167 -0.1278
11803ION     NA13953  10.567   3.301   0.669 -0.2666  0.0183  0.0501
11804ION     NA13954  10.748   3.427   7.036  0.3006 -0.0663 -0.2088
11805ION     NA13955   3.159   3.064  12.186  0.0725  0.1325  0.0846
11806ION     NA13956  13.722   6.612  19.778  0.0659 -0.1383 -0.5462
11807ION     NA13957  24.680   3.527   4.571  0.0369  0.0303  0.3620
11808ION     NA13958  20.786   1.276  32.719  0.0711 -0.1689 -0.2619
11809ION     NA13959   1.483   4.614  11.565  0.1832  0.0127 -0.1537
11810ION     NA13960  16.720   6.499   9.838  0.0100  0.3958  0.0684
11811ION     NA13961  19.671   5.481  30.375  0.3454 -0.4071 -0.1400
11812ION     NA13962  12.240   3.111   5.839  0.0980  0.6282  0.0685
11813ION     NA13963  21.484   0.702  21.991 -0.1325 -0.0452  0.7385
11814ION     NA13964  20.126   0.963  17.681 -0.1311 -0.1950  0.0154
11815ION     NA13965   9.330   3.769  32.683 -0.2628  0.0562  0.2526
11816ION     NA13966   0.578   2.015   1.754 -0.2859  0.4253 -0.1667
11817ION     NA13967  23.760   3.343   9.689  0.3959  0.1210 -0.1372
11818ION     NA13968   0.808   4.422  12.511  0.1796  0.2923 -0.3087
11819ION     NA13969  11.887   5.909  23.450  0.1399 -0.1529 -0.3087
11820ION     NA13970   5.498   3.152  16.377  0.0523 -0.0295  0.0732
11821ION     NA13971  15.329   5.538  31.551  0.3860 -0.3375  0.2662
11822ION     NA13972   9.326   1.235  22.966 -0.2255  0.1512 -0.0443
11823ION     NA13973   1.447   1.217  30.424  0.0270  0.2993  0.3788
11824ION     NA13974   3.741   2.434   5.992  0.3008 -0.0414  0.4859
11825ION     NA13975  17.846   4.327  28.591  0.0085  0.0578 -0.4329
11826ION     NA13976   6.695   2.348  12.467  0.1936  0.3883  0.0990
11827ION     NA13977   0.631   7.156  21.932  0.1751 -0.2132  0.4023
11828ION     NA13978   2.937   2.918  25.819  0.1047 -0.0474  0.4781
11829ION     NA13979  18.014   7.165   8.690 -0.1116  0.0352 -0.1222
11830ION     NA13980  22.549   3.018  29.936  0.0834  0.1000  0.1025
11831ION     NA13981  17.906   0.255   0.209 -0.0209  0.1627 -0.2659
11832ION     NA13982  18.483   6.225  21.373  0.1426  0.4382 -0.2760
11833ION     NA13983   6.244   2.591   4.374  0.6124 -0.0208  0.1176
11834ION     NA13984  18.051   7.507  32.953 -0.0454  0.1177  0.1634
11835ION     NA13985  17.686   4.199  19.535 -0.3241 -0.0323  0.1791
11836ION     NA13986  16.516   6.865  16.092  0.0016  0.0924  0.2004
11837ION     NA13987  18.488   1.495  27.437 -0.2287  0.2310 -0.0876
11838ION     NA13988   4.055   6.230  23.859  0.1272  0.1302 -0.2023
11839ION     NA13989   0.983   5.041   6.307  0.2976 -0.1185 -0.4043
11840ION     NA13990  11.192   5.907  28.916  0.2949 -0.0898 -0.0191
11841ION     NA13991  14.850   3.111  24.167 -0.1390 -0.4650  0.2719
11842ION     NA13992   8.961   7.574  10.228 -0.3153  0.3658  0.1054
11843ION     NA13993  18.474   1.667  18.811 -0.2580  0.0356  0.0650
11844ION     NA13994  17.759   2.649  32.767  0.3913  0.0342 -0.3867
11845ION     NA13995   9.374   2.351  30.538  0.0640  0.1566 -0.0048
11846ION     NA13996  10.843   2.071  30.891  0.4524  0.2379  0.0822
11847ION     NA13997  20.646   6.065  21.397 -0.2431 -0.1087  0.1798
11848ION     NA13998  24.044   7.633  28.774  0.0860  0.1174  0.3670
11849ION     NA13999   0.284   2.224  32.662  0.4672 -0.0472  0.1050
11850ION     NA14000  13.797   0.076  19.556 -0.1205  0.6456  0.0229
11851ION     NA14001  12.555   3.142  26.163  0.1593  0.0808  0.3807
11852ION     NA14002   4.966   5.147   0.951 -0.0287  0.2460 -0.0614
11853ION     NA14003  15.880   6.689  22.017  0.2150 -0.0431 -0.2612
11854ION     NA14004   3.093   1.102  16.963 -0.0630  0.1418  0.0667
11855ION     NA14005   2.568   1.181   5.557  0.0000  0.1043 -0.2053
11856ION     NA14006  10.820   0.160  25.723 -0.1108  0.0861  0.0428
11857ION     NA14007   7.816   1.700  28.124 -0.0107  0.3041  0.1090
11858ION     NA14008  13.839   0.677   4.561 -0.3231  0.0416 -0.0248
11859ION     NA14009  14.061   3.284  15.420  0.4580 -0.0104 -0.5000
11860ION     NA14010   1.190   1.800  29.579  0.0829  0.2325 -0.0661
11861ION     NA14011  10.184   3.912  29.407 -0.2255 -0.2719  0.0685
11862ION     NA14012   0.419   1.064   7.856 -0.3394 -0.3049 -0.2203
11863ION     NA14013  24.771   0.992  23.891 -0.1122  0.1000 -0.0058
11864ION     NA14014  13.949   3.409  17.208 -0.2079  0.0474  0.3457
11865ION     NA14015   0.535   0.299   7.338  0.0129  0.0764  0.1809
11866ION     NA14016   5.502   7.183  12.595 -0.6242  0.2826 -0.4038
11867ION     NA14017  10.202   5.380  23.199 -0.4241  0.0570 -0.0352
11868ION     NA14018  20.796   2.483   1.985 -0.1144 -0.0674  0.4965
11869ION     NA14019  11.831   0.504  21.055 -0.0855  0.2457 -0.0348
11870ION     NA14020   6.253   6.158  32.523  0.3121 -0.1629  0.0139
11871ION     NA14021   3.193   6.707  30.579 -0.2135  0.1740  0.2346
11872ION     NA14022  10.023   5.621  10.440  0.3489 -0.5600 -0.2568
11873ION     NA14023  12.128   0.716  18.267 -0.1039 -0.3228  0.3271
11874ION     NA14024   9.521   2.126  31.184 -0.2948  0.0172 -0.0094
11875ION     NA14025   1.550   5.459   7.727  0.1126  0.3846  0.0303
11876ION     NA14026  19.903   1.700  26.919 -0.0613 -0.1936 -0.1930
11877ION     NA14027   5.657   0.548   1.867  0.1126  0.0111  0.1340
11878ION     NA14028  18.887   2.255   7.121  0.2682 -0.1930 -0.3273
11879ION     NA14029  17.559   2.239   2.627 -0.2539  0.2007  0.0887
11880ION     NA14030  18.965   4.997  29.013 -0.1419 -0.1016  0.2021
11881ION     NA14031   6.575   7.651  28.395  0.0942 -0.1646  0.1133
11882ION     NA14032  22.561   6.669  30.377  0.0164 -0.5380 -0.1504
11883ION     NA14033  21.310   6.832   8.455 -0.5361  0.1886 -0.0305
11884ION     NA14034   2.857   6.032   4.056 -0.0755 -0.0495 -0.0706
11885ION     NA14035  23.898   6.714  24.467  0.2267  0.7221 -0.1777
11886ION     NA14036  24.225   1.885  25.317 -0.5228  0.3293  0.1974
11887ION     NA14037  20.421   4.989   7.119  0.2415 -0.1446  0.2653
11888ION     NA14038   9.621   6.275   1.154  0.1396  0.2641 -0.1231
11889ION     NA14039   8.839   0.340  11.132  0.1516  0.1043  0.4919
11890ION     NA14040  20.023   2.312   5.787  0.3619  0.4738 -0.2043
11891ION     NA14041   5.490   2.843  24.064  0.0350  0.3183  0.0933
11892ION     NA14042   5.155   6.185   1.658 -0.1148 -0.5170  0.1773
11893ION     NA14043  18.428   1.005  10.611 -0.3756 -0.3157  0.3081
11894ION     NA14044  12.023   6.377  27.495  0.4228 -0.2350  0.1197
11895ION     NA14045  16.786   0.201  24.746  0.1706  0.6742  0.2117
11896ION     NA14046   4.498   4.513  15.489 -0.4453 -0.4416  0.1854
11897ION     NA14047   5.569   6.207   0.889  0.0775  0.2371 -0.0663
11898ION     NA14048  17.396   1.336  19.099  0.1173  0.1724  0.0825
11899ION     NA14049   5.053   1.662  25.963 -0.0064 -0.4352 -0.2153
11900ION     NA14050   8.700   6.756  26.447  0.4374 -0.4993 -0.5988
11901ION     NA14051  24.320   5.740  13.566 -0.3658  0.1565 -0.4397
11902ION     NA14052  18.924   4.541   2.922  0.3151  0.2883 -0.4777
11903ION     NA14053   7.710   4.335  16.546  0.0823 -0.0325  0.0639
11904ION     NA14054  11.022   7.236  26.536  0.2784 -0.4162 -0.5649
11905ION     NA14055  20.591   2.259  29.233 -0.2596 -0.0884  0.0633
11906ION     NA14056   2.461   0.755   1.126  0.4278  0.3846  0.3120
11907ION     NA14057   2.002   2.047  16.716  0.0308  0.2554 -0.0203
11908ION     NA14058  17.007   3.389  23.978 -0.3469  0.2592  0.3022
11909ION     NA14059  20.205   4.566   1.757  0.1700 -0.0908 -0.1753
11910ION     NA14060  13.696   4.287   6.569  0.0903 -0.1504  0.2217
11911ION     NA14061   2.039   5.754  23.121 -0.5430 -0.3042  0.1920
11912ION     NA14062  18.381   3.648   1.055  0.2176  0.0091 -0.4176
11913ION     NA14063   2.468   5.281   7.352 -0.2017 -0.0754  0.1930
11914ION     NA14064  23.434   3.229  29.526 -0.1007  0.0158 -0.0965
11915ION     NA14065  19.731   7.408  16.713 -0.1369  0.0169  0.1285
11916ION     NA14066  12.441   0.823  19.402 -0.0637  0.1441  0.1453
11917ION     NA14067  14.536   3.509  26.810 -0.0396  0.1966 -0.4248
11918ION     NA14068  15.529   3.287   9.529  0.1733  0.0235 -0.0111
11919ION     NA14069  10.481   1.713  32.645  0.1868  0.2605 -0.2135
11920ION     NA14070   6.677   6.488   2.164 -0.3078 -0.1445  0.0758
11921ION     NA14071  11.480   7.764   1.790  0.1050  0.3642 -0.0237
11922ION     NA14072  12.928   6.936   2.351 -0.1842  0.4347 -0.0802
11923ION     NA14073  20.126   3.587   4.990  0.1324 -0.0831 -0.0977
11924ION     NA14074  17.419   7.546   8.133  0.2755 -0.0532 -0.0624
11925ION     NA14075  12.430   0.017  23.562  0.0552  0.0887 -0.3406
11926ION     NA14076  19.087   1.597   1.740 -0.0058  0.3172  0.2681
11927ION     NA14077   3.600   4.012   2.474 -0.0300  0.1432 -0.0181
11928ION     NA14078   3.132   4.344  29.274  0.1863 -0.0671 -0.4262
11929ION     NA14079  14.492   3.987   2.415  0.0259 -0.0266  0.0821
11930ION     NA14080  17.432   3.339  29.076 -0.0633  0.5250  0.0586
11931ION     NA14081   8.642   1.049  11.712  0.3735 -0.4111  0.3379
11932ION     NA14082  22.693   2.540  22.698 -0.0625 -0.2820  0.7245
11933ION     NA14083   5.487   5.942   5.236  0.0441  0.0747 -0.1850
11934ION     NA14084  12.990   3.695   4.256 -0.1542 -0.3750 -0.1179
11935ION     NA14085   5.671   1.793  14.857 -0.0222  0.2847 -0.0789
11936ION     NA14086  16.272   7.402  28.892  0.0576  0.0861 -0.1210
11937ION     NA14087   9.517   2.213  28.639  0.1900  0.2982  0.0474
11938ION     CL14088  24.406   4.826  26.066  0.5490  0.0176 -0.3990
11939ION     CL14089  13.290   0.172  27.598 -0.0999  0.6072  0.2118
11940ION     CL14090  19.091   3.668   2.899 -0.4398  0.2521  0.5443
11941ION     CL14091   5.981   2.086  16.792 -0.0667 -0.1699  0.1073
11942ION     CL14092   2.443   7.023  25.092  0.1653 -0.1714 -0.1619
11943ION     CL14093  11.744   3.132  24.736  0.4062 -0.1739 -0.0768
11944ION     CL14094  24.239   4.070  24.740 -0.4065 -0.0351  0.3332
11945ION     CL14095   7.243   4.408  11.912 -0.4190 -0.3943 -0.1461
11946ION     CL14096   6.014   0.362   1.403  0.1221  0.0642  0.0363
11947ION     CL14097  13.315   0.064  19.279  0.3726 -0.2387  0.1576
11948ION     CL14098   6.162   2.544  26.480  0.0432  0.2482 -0.5301
11949ION     CL14099  19.793   6.165  25.158 -0.0821  0.4904 -0.1298
11950ION     CL14100  17.435   5.128   1.276 -0.1518  0.1358 -0.1217
11951ION     CL14101  14.139   0.347  20.217  0.0185 -0.1814  0.1527
11952ION     CL14102  18.694   4.361  23.302  0.2792 -0.2450  0.0319
11953ION     CL14103   6.615   0.329  24.550  0.3648 -0.1395  0.1171
11954ION     CL14104  10.885   1.563  25.102  0.2962  0.1791 -0.1156
11955ION     CL14105   0.364   6.855  26.637 -0.1609  0.6198 -0.3760
11956ION     CL14106  10.495   1.700   6.312 -0.2418 -0.3019 -0.0718
11957ION     CL14107   9.263   2.719  30.938 -0.3969 -0.2682 -0.1183
11958ION     CL14108  18.274   6.687  22.530  0.1292  0.1957 -0.2387
11959ION     CL14109   7.338   7.355   9.415  0.2926 -0.3536  0.3578
11960ION     CL14110  15.577   6.349   6.706 -0.1713 -0.5030  0.1911
11961ION     CL14111  11.070   1.728  31.296 -0.1065 -0.2835 -0.1116
11962ION     CL14112  13.074   5.032  31.268  0.1595 -0.0895  0.1142
11963ION     CL14113   0.760   3.879   1.480  0.1078  0.0374  0.3077
11964ION     CL14114  20.399   7.543  18.043 -0.2463  0.0907 -0.1462
11965ION     CL14115   5.794   5.332  26.400 -0.1529  0.5365  0.1609
11966ION     CL14116   8.005   6.936   8.475 -0.4863 -0.2265 -0.0913
11967ION     CL14117  17.919   2.545  33.034 -0.6876 -0.1815  0.1193
11968ION     CL14118  21.432   1.216  20.904  0.7750 -0.2416 -0.3136
11969ION     CL14119   3.717   5.992  15.906 -0.1601 -0.1877  0.4015
11970ION     CL14120  13.800   6.657  19.454 -0.0943 -0.2325  0.0566
11971ION     CL14121  16.670   7.454   3.724  0.5241 -0.0659 -0.4757
11972ION     CL14122  17.618   6.654  24.839  0.0464 -0.0369 -0.0342
11973ION     CL14123  19.814   4.282   4.707  0.1081 -0.0348  0.1941
11974ION     CL14124   0.172   5.865  22.538  0.0167 -0.0090  0.5711
11975ION     CL14125  13.922   0.738   4.124  0.0602  0.1155  0.3621
11976ION     CL14126   9.437   3.762   0.006 -0.2070  0.4248 -0.3951
11977ION     CL14127  19.255   5.381  31.739  0.3928 -0.2221  0.1357
11978ION     CL14128  21.579   2.329   4.761  0.2356  0.2992  0.0364
11979ION     CL14129  20.201   1.650  27.079  0.1702 -0.1700 -0.4729
11980ION     CL14130  19.797   6.186  21.548  0.3392 -0.0493 -0.1897
11981ION     CL14131  15.290   6.714  31.371  0.4120  0.2909  0.2392
11982ION     CL14132  17.927   3.525   0.536  0.0565 -0.1691 -0.0612
11983ION     CL14133  23.189   7.269   5.710  0.2108  0.1113  0.1822
11984ION     CL14134   1.102   2.945   0.974  0.0630 -0.2368 -0.2222
11985ION     CL14135   6.792   1.894   5.811 -0.0527  0.0953  0.1778
11986ION     CL14136  13.522   3.916   7.077 -0.0056  0.0315 -0.3366
11987ION     CL14137  17.086   6.327  28.610 -0.0499 -0.0470  0.3529
11988ION     CL14138  15.413   7.524  24.012 -0.0379  0.1269 -0.4689
11989ION     CL14139   1.150   0.867  25.256  0.0331 -0.1110  0.4164
11990ION     CL14140   8.179   3.062   8.806 -0.1774 -0.1799 -0.3194
11991ION     CL14141  15.056   0.953   6.914  0.2116  0.0629  0.2074
11992ION     CL14142   0.580   5.796  27.977 -0.0662  0.0986  0.1384
11993ION     CL14143  24.319   5.200  13.185  0.0221 -0.2658 -0.1104
11994ION     CL14144   1.166   5.178  14.937  0.3989  0.1739 -0.0635
11995ION     CL14145  14.370   6.949  26.691  0.0413  0.0640 -0.0467
11996ION     CL14146  13.797   3.771  21.304  0.0288  0.1798  0.2150
11997ION     CL14147  13.338   5.652  25.408  0.0734  0.1206 -0.1835
11998ION     CL14148  19.090   5.928  21.137  0.0469 -0.2097  0.3551
11999ION     CL14149  16.649   7.330  19.741  0.1937 -0.0951 -0.0738
12000ION     CL14150  22.771   1.196  21.058 -0.2514 -0.0066  0.5291
12001ION     CL14151  16.034   6.917   4.644  0.2371 -0.0639 -0.3237
12002ION     CL14152   1.125   7.240  23.633 -0.0728 -0.2582  0.4298
12003ION     CL14153  17.417   4.915  18.006  0.1944 -0.0307  0.0596
12004ION     CL14154  24.777   1.176  23.437  0.0008  0.0744 -0.0880
12005ION     CL14155  13.782   2.465   5.316 -0.1955 -0.1538 -0.1315
12006ION     CL14156  20.097   5.644  21.406  0.1729  0.2273 -0.2653
12007ION     CL14157  23.136   3.082  28.769 -0.2382  0.2580 -0.0501
12008ION     CL14158  14.883   1.350  31.032  0.2194 -0.0328  0.2572
12009ION     CL14159   0.211   3.316  28.379  0.0578 -0.1307 -0.1263
12010ION     CL14160  10.946   5.775   5.930 -0.0665 -0.2081  0.0135
12011ION     CL14161  22.744   0.228   2.909 -0.3543 -0.0939  0.0207
12012ION     CL14162  17.895   6.360  28.634 -0.3979  0.2709  0.1252
12013ION     CL14163  21.938   3.148   6.458 -0.0974 -0.1014 -0.2463
12014ION     CL14164  20.738   5.328   1.162 -0.3182  0.0282  0.3436
12015ION     CL14165  11.440   1.970  21.547  0.0540  0.2307 -0.2938
12016ION     CL14166  22.315   0.805  24.555 -0.3104  0.1954  0.1430
12017ION     CL14167   4.455   1.856   6.560  0.1104 -0.0746 -0.4013
12018ION     CL14168   8.306   1.458  26.699 -0.1456  0.0513  0.3509
12019ION     CL14169   7.086   1.684   4.488  0.0264 -0.1926  0.3090
12020ION     CL14170  23.563   3.898   0.739 -0.1177  0.0499  0.0479
12021ION     CL14171  18.343   1.186  27.350  0.2717 -0.0271  0.3327
12022ION     CL14172  21.060   3.600  25.446  0.2721 -0.0838 -0.0382
12023ION     CL14173  23.154   4.409   9.647 -0.2777 -0.0835  0.1830
12024ION     CL14174   7.386   6.361   8.314 -0.3659 -0.3204  0.2262
12025ION     CL14175  13.485   1.635  30.928 -0.0429 -0.0830  0.0825
12026ION     CL14176  19.587   5.159   2.854  0.0150 -0.0090  0.2224
12027ION     CL14177  16.206   4.175  23.686  0.0855  0.1926  0.2867
12028ION     CL14178  16.945   5.116   2.821 -0.0803 -0.2273  0.3441
12029ION     CL14179   2.883   1.071  11.497  0.3402 -0.9076 -0.0248
12030ION     CL14180  22.290   3.274  20.987  0.0100  0.4744  0.6584
12031ION     CL14181  22.748   6.914   3.857 -0.1976  0.2800 -0.2825
12032ION     CL14182   7.045   2.987   7.451  0.1314 -0.2783 -0.3795
12033ION     CL14183   9.283   3.829   4.105 -0.3065  0.1837 -0.1432
12034ION     CL14184  20.718   1.636  19.190  0.1884  0.0757  0.2896
12035ION     CL14185  19.774   4.629   8.581  0.1084  0.2618 -0.2512
12036ION     CL14186   0.171   7.657  32.375  0.2958  0.4241 -0.1359
12037ION     CL14187  15.870   7.635  29.785 -0.3129 -0.0609 -0.5997
12038ION     CL14188   7.394   5.623  30.410  0.4505  0.5881  0.2353
12039ION     CL14189  21.094   4.145  21.108  0.3565 -0.1077 -0.2095
12040ION     CL14190  12.044   1.779  25.340 -0.1363 -0.2790 -0.0472
12041ION     CL14191  18.762   1.948  24.181  0.0969  0.2416  0.2389
12042ION     CL14192  10.321   7.676   5.084 -0.3032  0.2566  0.1388
12043ION     CL14193  24.179   4.455  12.335 -0.0874  0.0563  0.1658
12044ION     CL14194   1.876   2.161   5.511 -0.3538  0.5521  0.1077
12045ION     CL14195   8.397   2.766  10.876 -0.3482 -0.3630 -0.0604
12046ION     CL14196  15.361   3.349  23.860  0.1073  0.0808 -0.0721
12047ION     CL14197   5.563   0.724   2.588 -0.6608  0.0990  0.2163
12048ION     CL14198  24.641   7.580   7.409 -0.2227 -0.1002 -0.2649
12049ION     CL14199  24.400   3.045   2.727 -0.1683  0.0518 -0.3208
12050ION     CL14200   6.117   3.714  31.138  0.1017  0.4185  0.4029
12051ION     CL14201   6.636   6.370   0.095 -0.1152 -0.1270 -0.2343
12052ION     CL14202  20.139   5.915   1.892 -0.4271 -0.0345  0.0870
12053ION     CL14203   1.338   2.106   1.317 -0.4375 -0.5692  0.2358
12054ION     CL14204  17.610   0.693   7.720  0.1774  0.2365  0.1229
12055ION     CL14205   6.123   4.287  24.312  0.1093 -0.3641  0.1706
12056ION     CL14206  24.635   3.942  31.478 -0.3809  0.2501  0.1386
12057ION     CL14207   2.315   3.078  26.797  0.1462 -0.1643  0.1760
12058ION     CL14208  21.788   3.985  21.541  0.0451  0.1640 -0.4534
12059ION     CL14209  21.215   4.762  10.219 -0.2954 -0.1558  0.2019
12060ION     CL14210  10.463   3.827  29.587  0.1966 -0.0442  0.3469
12061ION     CL14211   6.742   1.577  25.192 -0.2410  0.1702  0.1127
12062ION     CL14212  19.500   4.113  30.946 -0.3814  0.1467  0.0851
12063ION     CL14213  12.943   7.719   5.054 -0.1452 -0.3098  0.4649
12064ION     CL14214   8.343   1.511   3.298  0.0442  0.0361  0.3594
12065ION     CL14215   0.420   2.081  14.909 -0.2871  0.1812 -0.5238
12066ION     CL14216  20.844   5.464   7.230  0.1154 -0.3192 -0.1046
12067ION     CL14217  17.471   2.762   7.671  0.0259  0.4075 -0.3051
12068ION     CL14218  23.701   2.832  13.669 -0.1037  0.0715 -0.0895
12069ION     CL14219  20.449   5.419  31.420  0.2142 -0.1511  0.0098
12070ION     CL14220  18.052   7.255  31.789 -0.0416 -0.2439  0.4814
12071ION     CL14221  16.044   3.433  18.204  0.1151  0.2995 -0.1392
12072ION     CL14222   8.846   5.824  11.961 -0.3732 -0.0671 -0.0994
12073ION     CL14223  10.458   1.057  25.925 -0.0552 -0.3419  0.1415
12074ION     CL14224  13.754   7.048  30.793  0.2030 -0.2532  0.2482
12075ION     CL14225  17.916   6.557   9.171 -0.0111 -0.0074 -0.1413
12076ION     CL14226   8.769   1.252   3.702  0.3849  0.0961  0.0622
12077ION     CL14227   5.601   0.792  31.845  0.7289  0.2242 -0.0670
12078ION     CL14228  13.283   5.726   6.310 -0.1832  0.1983  0.0018
12079ION     CL14229   1.879   7.564  25.370 -0.3495  0.1943 -0.0686
12080ION     CL14230  17.787   5.216  20.032 -0.1738  0.2679  0.3853
12081ION     CL14231   2.710   5.805   7.756 -0.0375 -0.1895  0.2185
12082ION     CL14232  18.173   4.189  29.300 -0.1362 -0.2749  0.0023
12083DOPC   NC314233   2.637   0.721  22.496  0.1307 -0.3797 -0.2445
12083DOPC   PO414234   2.702   0.837  22.132 -0.1616  0.2623  0.0825
12083DOPC   GL114235   2.363   0.919  21.902 -0.0024  0.4745  0.1791
12083DOPC   GL214236   2.366   1.228  21.978  0.1462 -0.0750  0.1133
12083DOPC   C1A14237   2.533   0.746  21.522  0.0816 -0.1078 -0.0583
12083DOPC   D2A14238   2.731   0.672  21.104  0.1246 -0.0812 -0.2090
12083DOPC   C3A14239   2.607   0.706  20.648 -0.0272  0.0317  0.2219
12083DOPC   C4A14240   2.568   0.639  20.133  0.2226 -0.0535 -0.0804
12083DOPC   C1B14241   2.233   1.603  21.649  0.2616  0.0317  0.0325
12083DOPC   D2B14242   1.975   1.935  21.322 -0.2949 -0.0495  0.0100
12083DOPC   C3B14243   2.012   1.834  20.863 -0.0306  0.0602 -0.1109
12083DOPC   C4B14244   2.135   1.784  20.403  0.1261 -0.2485 -0.2688
12084DOPC   NC314245   7.579   1.643  22.631  0.1762 -0.0526  0.0762
12084DOPC   PO414246   7.654   1.866  22.288  0.0818 -0.0763 -0.2631
12084DOPC   GL114247   7.456   1.919  21.976  0.1653  0.1323  0.0332
12084DOPC   GL214248   7.407   1.683  21.858 -0.0038  0.2351  0.1554
12084DOPC   C1A14249   7.343   2.178  21.600  0.0396  0.1810 -0.1265
12084DOPC   D2A14250   7.144   2.198  21.121 -0.0014 -0.0069  0.1189
12084DOPC   C3A14251   7.394   2.385  20.754  0.1751  0.3120  0.1754
12084DOPC   C4A14252   7.815   2.536  20.469 -0.1636  0.1844  0.1217
12084DOPC   C1B14253   7.247   1.440  21.587  0.2391  0.5871  0.0833
12084DOPC   D2B14254   6.981   1.334  21.219  0.0865 -0.2931  0.1199
12084DOPC   C3B14255   6.765   1.348  20.789  0.0901  0.0248  0.1574
12084DOPC   C4B14256   7.022   1.446  20.387 -0.1853  0.0752 -0.1162
12085DOPC   NC314257  18.585   3.686  14.896 -0.0660  0.0453  0.1426
12085DOPC   PO414258  18.672   3.446  15.202  0.0495 -0.2727  0.3216
12085DOPC   GL114259  18.779   3.227  14.813  0.0857 -0.1425 -0.1744
12085DOPC   GL214260  18.963   3.441  14.741 -0.1428  0.0533  0.2126
12085DOPC   C1A14261  18.662   3.047  14.468  0.1884  0.0086  0.0421
12085DOPC   D2A14262  18.665   2.810  14.008  0.1051  0.1581 -0.1413
12085DOPC   C3A14263  18.604   2.440  13.677  0.0557 -0.0526  0.0142
12085DOPC   C4A14264  18.761   2.049  13.415 -0.2640 -0.3552  0.2130
12085DOPC   C1B14265  19.046   3.335  14.306 -0.0907  0.1067  0.2091
12085DOPC   D2B14266  18.976   3.440  13.822  0.4112  0.0677 -0.1242
12085DOPC   C3B14267  19.150   3.608  13.468  0.1445 -0.3141 -0.0888
12085DOPC   C4B14268  19.285   4.005  13.151 -0.1353  0.1793 -0.0083
12086DOPC   NC314269   1.418   0.949  22.199  0.0446  0.2561  0.1125
12086DOPC   PO414270   1.065   0.854  22.041  0.2563  0.0345 -0.0353
12086DOPC   GL114271   1.293   0.876  21.657 -0.0683 -0.1719  0.0418
12086DOPC   GL214272   1.205   0.553  21.707  0.2311  0.0774  0.0242
12086DOPC   C1A14273   1.623   1.010  21.440 -0.0349 -0.1507 -0.0039
12086DOPC   D2A14274   1.935   0.919  21.051  0.1663 -0.1136  0.1001
12086DOPC   C3A14275   2.380   1.015  21.083 -0.0532 -0.3200 -0.2261
12086DOPC   C4A14276   2.809   1.088  20.927  0.0398 -0.0809 -0.2205
12086DOPC   C1B14277   1.535   0.532  21.390  0.2113  0.1149 -0.0974
12086DOPC   D2B14278   1.751   0.362  20.998 -0.1598  0.0842 -0.1414
12086DOPC   C3B14279   1.532  -0.078  20.775  0.1040 -0.0714  0.1093
12086DOPC   C4B14280   1.146  -0.294  20.529  0.1732 -0.2774 -0.0114
12087DOPC   NC314281  13.692   6.793  15.197 -0.0845  0.2497 -0.4990
12087DOPC   PO414282  14.091   6.768  15.234 -0.0306 -0.0453  0.0780
12087DOPC   GL114283  14.175   6.630  14.887 -0.3890  0.2801 -0.0840
12087DOPC   GL214284  13.892   6.446  14.882  0.0366 -0.1431  0.2991
12087DOPC   C1A14285  14.295   6.646  14.463 -0.1075 -0.0650  0.3050
12087DOPC   D2A14286  14.503   6.800  14.046  0.0869 -0.1092 -0.2724
12087DOPC   C3A14287  14.576   6.943  13.555  0.0767 -0.0311 -0.2836
12087DOPC   C4A14288  14.714   6.879  13.082 -0.0451 -0.1375 -0.1679
12087DOPC   C1B14289  13.789   6.261  14.483 -0.2367 -0.0144 -0.1426
12087DOPC   D2B14290  13.813   6.110  13.985  0.1054  0.0271 -0.0929
12087DOPC   C3B14291  13.752   6.408  13.629 -0.2928  0.3130  0.1907
12087DOPC   C4B14292  13.678   6.624  13.186 -0.2424  0.0504 -0.0156
12088DOPC   NC314293   7.578   4.998  22.061  0.3076 -0.0758 -0.0343
12088DOPC   PO414294   7.915   4.869  21.905 -0.1194 -0.0311  0.0885
12088DOPC   GL114295   7.700   4.608  21.664 -0.0542  0.0710  0.1207
12088DOPC   GL214296   7.604   4.909  21.591 -0.6064 -0.2081 -0.1139
12088DOPC   C1A14297   7.653   4.458  21.313  0.1421 -0.4817 -0.0910
12088DOPC   D2A14298   7.755   4.492  20.790  0.0515  0.1966  0.0825
12088DOPC   C3A14299   7.674   4.264  20.343 -0.0024 -0.0033 -0.2691
12088DOPC   C4A14300   7.504   3.933  19.958  0.2738  0.0716 -0.2650
12088DOPC   C1B14301   7.288   5.171  21.614 -0.2939 -0.0335 -0.1421
12088DOPC   D2B14302   6.934   5.299  21.286 -0.4350  0.0731 -0.0895
12088DOPC   C3B14303   6.901   5.345  20.851 -0.1193  0.0981 -0.0413
12088DOPC   C4B14304   6.811   5.346  20.391 -0.1451 -0.0290  0.2274
12089DOPC   NC314305  16.841   3.519  14.768 -0.0916 -0.2263 -0.2012
12089DOPC   PO414306  17.154   3.402  14.585  0.0635  0.0026 -0.1286
12089DOPC   GL114307  17.341   3.324  14.252  0.4251  0.4976 -0.0895
12089DOPC   GL214308  17.158   3.186  14.076  0.1306 -0.0788  0.0548
12089DOPC   C1A14309  17.609   3.517  14.006 -0.4620  0.1873 -0.1831
12089DOPC   D2A14310  17.837   3.581  13.507  0.0894  0.0951 -0.0308
12089DOPC   C3A14311  17.868   3.560  12.978 -0.1054 -0.1631 -0.0239
12089DOPC   C4A14312  17.928   3.826  12.518  0.1178  0.2451 -0.1447
12089DOPC   C1B14313  17.360   3.270  13.661 -0.2199  0.1108 -0.1529
12089DOPC   D2B14314  17.595   3.164  13.279  0.0483 -0.2895 -0.2018
12089DOPC   C3B14315  17.829   3.074  12.919  0.1760  0.1588  0.1605
12089DOPC   C4B14316  18.317   3.250  12.905 -0.2395  0.2597  0.0266
12090DOPC   NC314317  10.643   4.288  19.751 -0.0399 -0.0307  0.0930
12090DOPC   PO414318  10.341   4.478  19.961 -0.1274  0.1958 -0.1120
12090DOPC   GL114319   9.932   4.515  19.976 -0.0461 -0.1502 -0.2038
12090DOPC   GL214320   9.974   4.183  19.930 -0.0635 -0.4029 -0.3756
12090DOPC   C1A14321   9.666   4.556  19.640  0.0221  0.0331 -0.0372
12090DOPC   D2A14322   9.223   4.276  19.442  0.2194 -0.1797  0.0003
12090DOPC   C3A14323   8.941   4.159  19.025  0.1104 -0.1635 -0.1387
12090DOPC   C4A14324   8.785   4.040  18.625 -0.0925 -0.1593 -0.1126
12090DOPC   C1B14325   9.525   4.058  19.792 -0.3185 -0.1983  0.3061
12090DOPC   D2B14326   9.097   3.831  19.739  0.1074  0.1744 -0.1824
12090DOPC   C3B14327   8.716   3.837  19.585  0.2163 -0.1039 -0.0897
12090DOPC   C4B14328   8.312   3.627  19.408  0.0593  0.2549  0.1106
12091DOPC   NC314329  12.251   0.594  16.645 -0.0751 -0.2165 -0.0079
12091DOPC   PO414330  12.178   0.837  16.928  0.0730 -0.1904 -0.0648
12091DOPC   GL114331  12.050   1.239  16.857  0.2867  0.1277  0.1240
12091DOPC   GL214332  11.987   1.205  16.565 -0.1316 -0.0278  0.1395
12091DOPC   C1A14333  11.598   1.259  16.876  0.0129  0.1159 -0.0766
12091DOPC   D2A14334  11.092   1.224  16.839 -0.1903 -0.1736 -0.2124
12091DOPC   C3A14335  10.768   1.374  17.007 -0.0068  0.2289 -0.1509
12091DOPC   C4A14336  10.304   1.359  16.949  0.2203 -0.0029  0.1736
12091DOPC   C1B14337  11.692   0.973  16.478 -0.0545  0.0153 -0.0007
12091DOPC   D2B14338  11.256   0.772  16.537 -0.1536 -0.0831 -0.0580
12091DOPC   C3B14339  10.810   0.935  16.403  0.1558 -0.1529 -0.0582
12091DOPC   C4B14340  10.634   1.332  16.538 -0.0759 -0.2357 -0.4897
12092DOPC   NC314341  13.620   6.286  15.675 -0.0760  0.1335  0.0531
12092DOPC   PO414342  13.817   6.379  15.360  0.1770 -0.0059  0.1001
12092DOPC   GL114343  13.389   6.290  15.252 -0.1826  0.3702  0.0824
12092DOPC   GL214344  13.543   6.042  15.113  0.2836  0.2790 -0.4950
12092DOPC   C1A14345  13.417   6.436  14.814  0.0573 -0.1033  0.1495
12092DOPC   D2A14346  13.276   6.583  14.348  0.0676 -0.4234 -0.2210
12092DOPC   C3A14347  13.079   6.544  13.914 -0.1401 -0.1086  0.2201
12092DOPC   C4A14348  12.824   6.702  13.540 -0.0979  0.0239 -0.1469
12092DOPC   C1B14349  13.193   5.985  14.886  0.0085 -0.1696  0.0480
12092DOPC   D2B14350  12.798   5.963  14.516 -0.2234  0.1333  0.1689
12092DOPC   C3B14351  12.633   5.587  14.363  0.1511 -0.0250  0.0496
12092DOPC   C4B14352  12.627   5.198  14.019 -0.0032  0.3047  0.1879
12093DOPC   NC314353  13.426   5.273  15.426  0.0644 -0.2876  0.0310
12093DOPC   PO414354  13.384   5.113  15.762  0.3479  0.2506 -0.1126
12093DOPC   GL114355  12.928   5.035  15.707 -0.0889  0.0166 -0.1775
12093DOPC   GL214356  12.890   4.814  15.848 -0.4507  0.0526 -0.3754
12093DOPC   C1A14357  12.661   5.045  15.363 -0.0361 -0.2299  0.1777
12093DOPC   D2A14358  12.436   4.956  14.931 -0.1240  0.2416 -0.1413
12093DOPC   C3A14359  12.324   5.038  14.531 -0.3791 -0.0466 -0.1906
12093DOPC   C4A14360  12.010   5.037  14.135 -0.1692 -0.1237  0.1063
12093DOPC   C1B14361  12.431   4.773  15.846  0.0334  0.0689  0.1431
12093DOPC   D2B14362  11.911   4.763  15.790  0.1142  0.2255 -0.1360
12093DOPC   C3B14363  11.428   4.748  15.720  0.3685  0.1691  0.1465
12093DOPC   C4B14364  11.038   4.671  15.894 -0.0837  0.0270 -0.1333
12094DOPC   NC314365  16.027   5.444  14.421 -0.1243 -0.0088 -0.0347
12094DOPC   PO414366  16.019   5.021  14.435  0.0938  0.0993 -0.0360
12094DOPC   GL114367  15.999   5.076  13.986  0.2115  0.3200  0.0564
12094DOPC   GL214368  16.024   5.382  13.996 -0.5084  0.2835  0.1129
12094DOPC   C1A14369  16.162   4.945  13.547 -0.1973  0.1591 -0.2142
12094DOPC   D2A14370  16.544   5.135  13.302  0.0652 -0.1326  0.0120
12094DOPC   C3A14371  17.014   5.074  13.176 -0.1159 -0.1661 -0.0094
12094DOPC   C4A14372  17.402   4.851  13.020 -0.3130  0.1390  0.1248
12094DOPC   C1B14373  16.207   5.539  13.595 -0.1695  0.3767 -0.2704
12094DOPC   D2B14374  16.241   5.485  13.128 -0.1316  0.1810 -0.1412
12094DOPC   C3B14375  15.950   5.440  12.801 -0.0744 -0.0555  0.1578
12094DOPC   C4B14376  15.643   5.424  12.374 -0.2759 -0.0998 -0.1875
12095DOPC   NC314377  17.243   7.035  14.699  0.0304  0.0628 -0.4591
12095DOPC   PO414378  16.989   7.299  14.540  0.0756  0.2252 -0.0666
12095DOPC   GL114379  17.081   7.301  14.160  0.1676 -0.1097  0.0303
12095DOPC   GL214380  17.122   7.010  14.232 -0.0168 -0.0686 -0.3333
12095DOPC   C1A14381  17.261   7.322  13.857 -0.0988  0.0446  0.3897
12095DOPC   D2A14382  17.248   7.158  13.424 -0.1523 -0.2642  0.1376
12095DOPC   C3A14383  17.541   7.310  13.033  0.2447  0.2440 -0.0398
12095DOPC   C4A14384  17.810   7.486  12.704  0.0717  0.0126  0.3058
12095DOPC   C1B14385  17.000   6.884  13.857  0.2719  0.0487 -0.0238
12095DOPC   D2B14386  16.678   6.948  13.504 -0.1797  0.1667  0.2364
12095DOPC   C3B14387  16.573   7.301  13.249  0.1203 -0.0676 -0.2485
12095DOPC   C4B14388  16.391   7.748  13.075  0.1020  0.0120  0.0223
12096DOPC   NC314389  14.885   4.238  14.868  0.1693  0.2233 -0.1472
12096DOPC   PO414390  14.817   3.847  14.745  0.2170 -0.0870  0.1078
12096DOPC   GL114391  14.666   3.875  14.338  0.1358  0.0987  0.2318
12096DOPC   GL214392  14.667   3.597  14.333 -0.4133  0.0297  0.1368
12096DOPC   C1A14393  14.533   4.110  14.019 -0.0556 -0.1313  0.0324
12096DOPC   D2A14394  14.291   4.400  13.710 -0.0022 -0.0475  0.0392
12096DOPC   C3A14395  13.967   4.549  13.459  0.1014  0.0371 -0.1616
12096DOPC   C4A14396  13.826   4.934  13.176 -0.4119 -0.1295 -0.2643
12096DOPC   C1B14397  14.514   3.623  13.897 -0.1269  0.1048 -0.0674
12096DOPC   D2B14398  14.412   3.653  13.407 -0.0018 -0.2126  0.1432
12096DOPC   C3B14399  14.307   3.775  13.011  0.3079 -0.1307 -0.1246
12096DOPC   C4B14400  14.063   4.027  12.694  0.0795 -0.0017  0.0896
12097DOPC   NC314401  23.951   2.869  20.840  0.1630  0.0454 -0.1591
12097DOPC   PO414402  24.175   2.542  20.860 -0.0869 -0.2015  0.2273
12097DOPC   GL114403  24.619   2.239  20.760  0.1092 -0.0107 -0.2426
12097DOPC   GL214404  24.434   2.193  20.610  0.0404 -0.3280  0.0425
12097DOPC   C1A14405  24.911   2.212  20.428 -0.0156 -0.0003 -0.1532
12097DOPC   D2A14406  25.290   2.324  20.209 -0.0189 -0.2175  0.1229
12097DOPC   C3A14407  25.445   2.684  20.067  0.0432  0.0156 -0.0023
12097DOPC   C4A14408  25.766   3.021  20.203  0.4356 -0.2021  0.1244
12097DOPC   C1B14409  24.474   2.413  20.188 -0.1026 -0.0309  0.2454
12097DOPC   D2B14410  24.776   2.559  19.848 -0.0194 -0.0307 -0.0145
12097DOPC   C3B14411  25.169   2.647  19.640  0.4396  0.1026 -0.0459
12097DOPC   C4B14412  25.599   2.959  19.566 -0.2057 -0.1736 -0.1502
12098DOPC   NC314413  17.489   0.804  14.837  0.0691 -0.0297 -0.1132
12098DOPC   PO414414  17.577   0.487  15.103  0.2022 -0.0864 -0.1433
12098DOPC   GL114415  17.931   0.448  14.975 -0.1366 -0.0484  0.0296
12098DOPC   GL214416  17.808   0.191  14.802 -0.0711  0.0760  0.1756
12098DOPC   C1A14417  18.020   0.720  14.683 -0.1463  0.0444 -0.2047
12098DOPC   D2A14418  18.113   0.900  14.222 -0.1865 -0.1853 -0.1012
12098DOPC   C3A14419  18.254   0.915  13.718 -0.1856 -0.2408 -0.0280
12098DOPC   C4A14420  18.307   0.763  13.247  0.2537 -0.0863  0.0211
12098DOPC   C1B14421  17.846  -0.088  14.444  0.2170  0.0796 -0.0324
12098DOPC   D2B14422  18.112  -0.289  14.101 -0.3323  0.4891 -0.2137
12098DOPC   C3B14423  18.223  -0.106  13.669  0.0272 -0.1467 -0.1045
12098DOPC   C4B14424  18.251   0.193  13.287  0.1316  0.1241  0.1050
12099DOPC   NC314425  14.004   4.481  15.399  0.2016 -0.0683  0.3241
12099DOPC   PO414426  14.052   4.535  15.026  0.0573  0.3309 -0.2305
12099DOPC   GL114427  13.868   4.655  14.671  0.0732  0.0566 -0.0276
12099DOPC   GL214428  14.065   4.844  14.619 -0.3288  0.4247  0.0503
12099DOPC   C1A14429  13.494   4.836  14.517  0.0343  0.0506 -0.1791
12099DOPC   D2A14430  13.058   4.735  14.402  0.1603  0.1095 -0.5531
12099DOPC   C3A14431  12.592   4.597  14.427 -0.2064  0.2409 -0.2362
12099DOPC   C4A14432  12.154   4.503  14.329  0.0508  0.0173  0.2881
12099DOPC   C1B14433  14.057   4.764  14.236  0.1561 -0.0174  0.0398
12099DOPC   D2B14434  14.267   4.889  13.806  0.0576 -0.1037 -0.1649
12099DOPC   C3B14435  14.475   5.256  13.644 -0.1821 -0.0476  0.2691
12099DOPC   C4B14436  14.634   5.760  13.569 -0.0485  0.3035 -0.0109
12100DOPC   NC314437  14.735   1.509  14.947 -0.3733  0.0982  0.2016
12100DOPC   PO414438  14.648   1.168  15.048  0.4169  0.1167 -0.1264
12100DOPC   GL114439  14.357   0.979  14.795  0.0115 -0.0834 -0.2236
12100DOPC   GL214440  14.240   1.241  14.784 -0.3821  0.1516  0.1976
12100DOPC   C1A14441  14.222   1.023  14.383 -0.0414 -0.3026  0.2191
12100DOPC   D2A14442  13.958   1.292  14.016  0.1071 -0.1924  0.2073
12100DOPC   C3A14443  13.879   1.152  13.505  0.0214  0.0409 -0.0365
12100DOPC   C4A14444  13.919   0.854  13.163 -0.1746 -0.0124 -0.2570
12100DOPC   C1B14445  13.866   1.296  14.555  0.1198 -0.1687  0.2354
12100DOPC   D2B14446  13.531   1.159  14.242  0.1119 -0.0547  0.0734
12100DOPC   C3B14447  13.425   1.087  13.794  0.0862 -0.2929  0.0008
12100DOPC   C4B14448  13.371   0.950  13.293 -0.0966  0.1539  0.1406
12101DOPC   NC314449  15.922   2.602  14.148 -0.3906  0.0421 -0.2033
12101DOPC   PO414450  16.312   2.606  14.231  0.0834 -0.1721  0.1055
12101DOPC   GL114451  16.552   2.332  14.160  0.1593 -0.1207  0.2768
12101DOPC   GL214452  16.391   2.052  14.184  0.1902  0.2835 -0.1673
12101DOPC   C1A14453  16.713   2.264  13.790 -0.2361 -0.1587  0.1768
12101DOPC   D2A14454  16.937   2.018  13.467 -0.1466 -0.0925 -0.1067
12101DOPC   C3A14455  17.104   2.277  13.082 -0.2136 -0.1489 -0.0410
12101DOPC   C4A14456  17.057   2.433  12.636  0.1921 -0.1101  0.2066
12101DOPC   C1B14457  16.594   1.721  13.898 -0.1706 -0.0236 -0.1930
12101DOPC   D2B14458  16.866   1.374  13.765  0.0415  0.0310 -0.0300
12101DOPC   C3B14459  17.083   1.183  13.387  0.0866  0.1240  0.1245
12101DOPC   C4B14460  17.399   0.824  13.229  0.0962 -0.0058 -0.2303
12102DOPC   NC314461  19.475   2.391  15.768 -0.0003  0.1096 -0.1101
12102DOPC   PO414462  19.158   2.159  15.731  0.0243  0.0783 -0.0394
12102DOPC   GL114463  19.086   1.940  15.347  0.4227  0.2841  0.1512
12102DOPC   GL214464  19.392   2.015  15.304 -0.1829  0.2273  0.0756
12102DOPC   C1A14465  19.129   1.893  14.881 -0.0668  0.0957  0.3142
12102DOPC   D2A14466  19.143   2.198  14.537 -0.0249 -0.3571  0.0694
12102DOPC   C3A14467  19.350   2.301  14.150  0.1517 -0.1132  0.0617
12102DOPC   C4A14468  19.592   2.485  13.814  0.0350  0.2166  0.0363
12102DOPC   C1B14469  19.697   2.117  15.003  0.0472  0.3123 -0.1600
12102DOPC   D2B14470  19.613   2.302  14.566  0.0025  0.2781 -0.1797
12102DOPC   C3B14471  19.534   2.783  14.700  0.1043  0.1117 -0.0422
12102DOPC   C4B14472  19.800   3.047  14.978 -0.0557  0.3687 -0.0709
12103DOPC   NC314473   4.151   1.916  22.553 -0.1546 -0.0382 -0.2227
12103DOPC   PO414474   4.328   2.299  22.503  0.1873  0.4309  0.1449
12103DOPC   GL114475   4.354   2.330  22.032 -0.0628  0.2780 -0.2159
12103DOPC   GL214476   4.066   2.124  22.047 -0.3310  0.3510 -0.1511
12103DOPC   C1A14477   4.640   2.417  21.712  0.1571  0.0444  0.0609
12103DOPC   D2A14478   4.944   2.397  21.355 -0.0463  0.2378 -0.1219
12103DOPC   C3A14479   5.349   2.464  21.215 -0.2275  0.0697 -0.1175
12103DOPC   C4A14480   5.724   2.070  21.088  0.0061  0.2887 -0.0606
12103DOPC   C1B14481   3.897   1.822  21.704 -0.0307 -0.1272 -0.0604
12103DOPC   D2B14482   3.615   1.607  21.527  0.1699 -0.2599  0.0738
12103DOPC   C3B14483   3.571   1.625  21.120 -0.2984 -0.0321 -0.1445
12103DOPC   C4B14484   3.580   1.577  20.619  0.1334  0.1882 -0.1789
12104DOPC   NC314485  19.527   3.073  15.386 -0.3165 -0.2269 -0.1800
12104DOPC   PO414486  19.621   2.846  15.739 -0.0888 -0.1439  0.1531
12104DOPC   GL114487  19.906   2.517  15.605  0.3646 -0.1636 -0.0198
12104DOPC   GL214488  19.903   2.539  15.973  0.2332 -0.0388  0.0753
12104DOPC   C1A14489  20.262   2.461  15.328 -0.0084 -0.0311  0.0918
12104DOPC   D2A14490  20.454   2.423  14.927 -0.3280 -0.2247 -0.0149
12104DOPC   C3A14491  20.459   2.561  14.477 -0.0282  0.0045 -0.0181
12104DOPC   C4A14492  20.541   2.339  14.033  0.0955  0.2893  0.1094
12104DOPC   C1B14493  20.306   2.668  15.973 -0.0482 -0.0510 -0.0905
12104DOPC   D2B14494  20.750   2.841  15.775 -0.0687  0.0431  0.3156
12104DOPC   C3B14495  21.049   2.545  15.609 -0.0981 -0.2291  0.1648
12104DOPC   C4B14496  21.417   2.243  15.364 -0.0496 -0.0860 -0.3059
12105DOPC   NC314497  13.467   3.261  15.989 -0.0104 -0.1440 -0.1869
12105DOPC   PO414498  13.127   3.375  16.060  0.0697  0.1169  0.0549
12105DOPC   GL114499  12.825   3.451  15.783  0.1213  0.1138  0.0928
12105DOPC   GL214500  12.549   3.467  15.978  0.2928  0.3347  0.0689
12105DOPC   C1A14501  12.620   3.280  15.505  0.1477  0.3612 -0.1973
12105DOPC   D2A14502  12.198   3.365  15.194 -0.1754  0.0338 -0.3713
12105DOPC   C3A14503  11.869   3.331  14.870 -0.2222  0.2209 -0.0793
12105DOPC   C4A14504  11.483   3.425  14.548  0.0279  0.1200  0.1010
12105DOPC   C1B14505  12.192   3.504  15.690 -0.0285 -0.0515  0.0951
12105DOPC   D2B14506  11.905   3.761  15.365 -0.1268  0.0638  0.0682
12105DOPC   C3B14507  11.958   4.072  15.074  0.1350 -0.2745  0.1582
12105DOPC   C4B14508  11.844   4.264  14.623 -0.0214  0.0721 -0.2300
12106DOPC   NC314509  22.189   1.783  19.279  0.0100  0.1304 -0.1686
12106DOPC   PO414510  22.275   2.178  19.339 -0.1849 -0.0362  0.2279
12106DOPC   GL114511  22.742   2.169  19.419 -0.0573 -0.0463 -0.0116
12106DOPC   GL214512  22.627   2.411  19.168  0.3404 -0.2087  0.1467
12106DOPC   C1A14513  23.116   2.131  19.179 -0.0588  0.0745  0.0188
12106DOPC   D2A14514  23.296   2.222  18.730 -0.0306  0.1221  0.4505
12106DOPC   C3A14515  23.594   2.388  18.423 -0.0118  0.1954  0.4068
12106DOPC   C4A14516  23.727   2.704  18.070  0.0302 -0.1788  0.1695
12106DOPC   C1B14517  22.589   2.324  18.711 -0.0131 -0.1086 -0.2756
12106DOPC   D2B14518  22.500   2.394  18.232 -0.1609  0.0076  0.3278
12106DOPC   C3B14519  22.789   2.593  17.846 -0.1322 -0.1183 -0.0941
12106DOPC   C4B14520  22.905   2.900  17.439 -0.3495 -0.1509  0.2478
12107DOPC   NC314521  13.051   5.206  16.125 -0.2113 -0.0864 -0.0662
12107DOPC   PO414522  12.933   5.063  16.483  0.1032 -0.0389 -0.0234
12107DOPC   GL114523  12.551   4.891  16.390  0.0286  0.0732  0.1204
12107DOPC   GL214524  12.607   5.080  16.116 -0.1507 -0.1516  0.2167
12107DOPC   C1A14525  12.225   4.552  16.360 -0.0256 -0.0531  0.0642
12107DOPC   D2A14526  12.112   4.311  15.963  0.1375 -0.1460  0.0151
12107DOPC   C3A14527  11.934   4.277  15.548  0.0648 -0.1092  0.2154
12107DOPC   C4A14528  11.692   4.588  15.287  0.2662 -0.0923 -0.0846
12107DOPC   C1B14529  12.197   5.203  16.040  0.0116 -0.0959  0.0211
12107DOPC   D2B14530  11.682   5.310  15.951  0.0293 -0.2523 -0.0003
12107DOPC   C3B14531  11.400   5.249  15.667  0.0663 -0.5571 -0.0970
12107DOPC   C4B14532  11.100   5.377  15.286 -0.0493 -0.0413  0.0578
12108DOPC   NC314533  23.101   3.618  20.129  0.0569  0.1498 -0.0425
12108DOPC   PO414534  23.348   3.459  19.870  0.0283 -0.0091  0.1913
12108DOPC   GL114535  23.447   3.577  19.473  0.1665 -0.1686  0.0357
12108DOPC   GL214536  23.557   3.860  19.528 -0.1652  0.1863 -0.2368
12108DOPC   C1A14537  23.734   3.347  19.255 -0.1300  0.1485  0.2849
12108DOPC   D2A14538  23.924   3.270  18.814  0.0940  0.4024 -0.2402
12108DOPC   C3A14539  23.717   3.213  18.408 -0.0773 -0.0961 -0.0830
12108DOPC   C4A14540  23.567   3.182  17.995 -0.1396 -0.1022  0.1155
12108DOPC   C1B14541  23.969   3.699  19.495  0.1379 -0.1436 -0.2648
12108DOPC   D2B14542  24.425   3.857  19.355 -0.0000  0.1642 -0.1240
12108DOPC   C3B14543  24.797   3.649  19.216  0.1275 -0.1041  0.2022
12108DOPC   C4B14544  25.023   3.362  18.855  0.2350 -0.2673 -0.2709
12109DOPC   NC314545  18.422   6.947  15.817  0.0472 -0.0326 -0.0936
12109DOPC   PO414546  18.577   7.310  15.703  0.4035  0.2361 -0.1111
12109DOPC   GL114547  18.881   7.284  15.491 -0.2687 -0.2030  0.1282
12109DOPC   GL214548  18.803   7.281  15.174 -0.0673 -0.2492  0.0607
12109DOPC   C1A14549  19.242   6.976  15.440 -0.2720 -0.0216  0.0974
12109DOPC   D2A14550  19.559   6.881  15.099  0.0288  0.0437 -0.0964
12109DOPC   C3A14551  19.759   6.638  14.723 -0.0867 -0.4187 -0.2237
12109DOPC   C4A14552  20.215   6.512  14.560  0.2452  0.3761  0.0343
12109DOPC   C1B14553  18.781   7.541  14.889 -0.0238 -0.2056 -0.0012
12109DOPC   D2B14554  18.768   7.936  14.589 -0.0435  0.1556  0.0485
12109DOPC   C3B14555  18.992   7.968  14.199  0.0010  0.0349  0.0650
12109DOPC   C4B14556  19.196   7.970  13.770 -0.2204  0.1320 -0.0247
12110DOPC   NC314557  11.409   3.777  18.401  0.2357  0.0738  0.3367
12110DOPC   PO414558  11.681   3.664  18.162 -0.0829  0.0878 -0.0455
12110DOPC   GL114559  11.368   3.556  17.881 -0.1581  0.0557 -0.0641
12110DOPC   GL214560  11.206   3.471  18.037  0.2529 -0.2962  0.0301
12110DOPC   C1A14561  11.242   3.773  17.557 -0.2339  0.0188 -0.0026
12110DOPC   D2A14562  11.015   3.762  17.108 -0.2432 -0.2659 -0.2145
12110DOPC   C3A14563  10.714   3.943  16.818 -0.1661 -0.1644  0.6870
12110DOPC   C4A14564  10.311   4.207  16.913  0.0197 -0.5311 -0.1828
12110DOPC   C1B14565  10.777   3.498  17.951  0.2659  0.0500 -0.2597
12110DOPC   D2B14566  10.358   3.243  17.893  0.0509 -0.0697  0.1478
12110DOPC   C3B14567  10.009   3.303  17.631 -0.3240  0.0443  0.0764
12110DOPC   C4B14568   9.531   3.313  17.460 -0.1801  0.0372  0.3984
12111DOPC   NC314569  16.210   1.616  14.429 -0.2135 -0.0847 -0.0455
12111DOPC   PO414570  15.836   1.721  14.498  0.1034 -0.1620  0.1989
12111DOPC   GL114571  15.637   1.683  14.097 -0.0813 -0.4314  0.0112
12111DOPC   GL214572  15.529   1.387  14.110  0.0246 -0.1042 -0.0612
12111DOPC   C1A14573  15.637   1.778  13.747 -0.1617  0.1502  0.2030
12111DOPC   D2A14574  15.455   1.913  13.293 -0.1641  0.0502 -0.2121
12111DOPC   C3A14575  15.279   2.262  12.999  0.0477  0.4927 -0.2590
12111DOPC   C4A14576  14.868   2.469  12.748 -0.1389 -0.1308  0.1870
12111DOPC   C1B14577  15.735   1.258  13.751  0.2307 -0.2825  0.0876
12111DOPC   D2B14578  15.798   1.396  13.256 -0.0802 -0.2474  0.2264
12111DOPC   C3B14579  16.036   1.647  12.874 -0.0438  0.2720  0.0927
12111DOPC   C4B14580  16.435   1.751  12.622  0.1813 -0.2122  0.2682
12112DOPC   NC314581   9.304   1.623  20.545 -0.0194 -0.1420 -0.1892
12112DOPC   PO414582   9.255   1.692  20.936 -0.0116  0.1277  0.0574
12112DOPC   GL114583   8.944   1.385  20.948  0.1081 -0.0869 -0.2051
12112DOPC   GL214584   9.095   1.194  20.776 -0.4938  0.0725  0.1846
12112DOPC   C1A14585   8.545   1.465  21.027  0.0255 -0.3069  0.2640
12112DOPC   D2A14586   8.124   1.265  20.966 -0.2290  0.1403 -0.0715
12112DOPC   C3A14587   7.706   1.402  20.966  0.0568  0.4166 -0.0999
12112DOPC   C4A14588   7.280   1.313  20.789  0.1954  0.0430 -0.0106
12112DOPC   C1B14589   8.755   1.032  20.581 -0.1097  0.0124 -0.2337
12112DOPC   D2B14590   8.439   0.892  20.305 -0.1965  0.1654  0.1840
12112DOPC   C3B14591   8.146   0.634  20.084  0.1516 -0.1539 -0.0689
12112DOPC   C4B14592   8.069   0.190  20.125 -0.0817 -0.0252  0.0082
12113DOPC   NC314593  10.735   5.738  19.578  0.0622 -0.2313 -0.1545
12113DOPC   PO414594  10.572   5.454  19.326  0.0901  0.0723  0.0645
12113DOPC   GL114595  10.633   5.373  18.867  0.1627  0.0306 -0.0049
12113DOPC   GL214596  10.375   5.216  18.964  0.3538 -0.0439  0.0628
12113DOPC   C1A14597  10.445   5.317  18.470 -0.1200 -0.0225  0.0395
12113DOPC   D2A14598  10.091   5.196  18.062 -0.1109  0.1578 -0.4255
12113DOPC   C3A14599   9.697   5.167  17.805  0.0537 -0.2845  0.1520
12113DOPC   C4A14600   9.405   5.064  18.157  0.0144  0.1741  0.0367
12113DOPC   C1B14601   9.905   5.347  19.039  0.1512 -0.2357 -0.1234
12113DOPC   D2B14602   9.603   5.335  18.714  0.2779  0.0059  0.0157
12113DOPC   C3B14603   9.282   5.502  18.412 -0.0224  0.1458 -0.1075
12113DOPC   C4B14604   9.009   5.887  18.499  0.0078  0.2275 -0.0062
12114DOPC   NC314605  18.671   1.245  15.405 -0.1672  0.1547 -0.1882
12114DOPC   PO414606  18.640   0.853  15.375  0.0800  0.0210 -0.1905
12114DOPC   GL114607  18.616   0.984  14.977  0.0631  0.1272 -0.1407
12114DOPC   GL214608  18.373   0.978  14.879  0.1506 -0.1224 -0.3537
12114DOPC   C1A14609  19.005   1.141  14.814  0.1811  0.1506 -0.2135
12114DOPC   D2A14610  19.446   1.388  14.793  0.0328 -0.0878  0.2039
12114DOPC   C3A14611  19.527   1.754  14.472 -0.1264  0.0650  0.0505
12114DOPC   C4A14612  19.768   2.038  14.102  0.1166  0.1319 -0.0094
12114DOPC   C1B14613  18.487   0.758  14.502 -0.2560  0.2133  0.1962
12114DOPC   D2B14614  18.630   0.573  14.029 -0.1030 -0.0396 -0.1996
12114DOPC   C3B14615  19.025   0.707  13.798  0.1053 -0.5192 -0.1975
12114DOPC   C4B14616  19.456   0.782  13.628  0.1061 -0.0710 -0.0521
12115DOPC   NC314617  17.551   7.778  15.127  0.0855  0.1266  0.2398
12115DOPC   PO414618  17.323   7.504  14.943 -0.3452 -0.1953  0.0115
12115DOPC   GL114619  17.470   7.410  14.507 -0.0063  0.0706 -0.3349
12115DOPC   GL214620  17.301   7.662  14.430  0.3075 -0.0131 -0.1644
12115DOPC   C1A14621  17.567   7.222  14.193 -0.1548  0.2107 -0.2396
12115DOPC   D2A14622  17.506   6.923  13.798  0.0278  0.0075  0.2006
12115DOPC   C3A14623  17.641   6.882  13.312  0.0511 -0.1859 -0.1434
12115DOPC   C4A14624  17.426   6.642  12.962 -0.1037 -0.1009  0.1884
12115DOPC   C1B14625  17.486   7.699  14.091  0.0336 -0.3221 -0.0975
12115DOPC   D2B14626  17.738   7.407  13.724  0.1344  0.0049 -0.3192
12115DOPC   C3B14627  17.928   7.533  13.284 -0.2338 -0.0621 -0.4423
12115DOPC   C4B14628  17.765   7.867  12.941  0.1190 -0.0130  0.0793
12116DOPC   NC314629   2.776   1.301  22.197  0.1940 -0.1337 -0.0915
12116DOPC   PO414630   2.448   1.585  22.284 -0.0430  0.3417  0.1873
12116DOPC   GL114631   2.545   2.036  22.185 -0.0799 -0.1267 -0.0522
12116DOPC   GL214632   2.375   1.920  21.955 -0.0132  0.2265 -0.2968
12116DOPC   C1A14633   2.687   2.300  21.902  0.1913  0.0928  0.1836
12116DOPC   D2A14634   2.902   2.420  21.493 -0.1110 -0.0818 -0.0174
12116DOPC   C3A14635   3.249   2.478  21.171  0.0348  0.1953 -0.0126
12116DOPC   C4A14636   3.568   2.547  20.855 -0.0495  0.0934  0.0545
12116DOPC   C1B14637   2.297   2.190  21.660  0.0387 -0.1753  0.0893
12116DOPC   D2B14638   1.980   2.474  21.461  0.0552  0.0558  0.1539
12116DOPC   C3B14639   2.017   2.783  21.081  0.0519  0.2820  0.1856
12116DOPC   C4B14640   2.078   2.741  20.579  0.1085  0.0575  0.1622
12117DOPC   NC314641  22.788   2.681  19.931 -0.0671 -0.0032  0.1376
12117DOPC   PO414642  22.796   2.635  19.554 -0.0692  0.2656 -0.0312
12117DOPC   GL114643  23.046   2.574  19.233  0.2083 -0.5868 -0.3562
12117DOPC   GL214644  23.320   2.557  19.379 -0.1445 -0.2933 -0.0753
12117DOPC   C1A14645  23.083   2.647  18.808 -0.1350 -0.2471 -0.0173
12117DOPC   D2A14646  22.982   2.424  18.380  0.0845 -0.1525  0.0532
12117DOPC   C3A14647  23.285   2.448  18.031  0.1115  0.2863 -0.0185
12117DOPC   C4A14648  23.623   2.407  17.645  0.0619  0.2090  0.0380
12117DOPC   C1B14649  23.617   2.355  19.097  0.0648  0.0469 -0.1156
12117DOPC   D2B14650  23.927   2.272  18.740  0.4148  0.3218 -0.0852
12117DOPC   C3B14651  23.999   2.070  18.321 -0.0017  0.1770  0.1282
12117DOPC   C4B14652  23.939   1.826  17.846 -0.1412 -0.0210 -0.0042
12118DOPC   NC314653  14.848   6.012  14.686  0.1961 -0.1941  0.2255
12118DOPC   PO414654  14.542   5.937  14.947 -0.0283  0.0651  0.1113
12118DOPC   GL114655  14.377   5.750  14.577 -0.1008 -0.1831 -0.1352
12118DOPC   GL214656  14.455   6.060  14.523  0.3855  0.0990 -0.0495
12118DOPC   C1A14657  14.005   5.785  14.317 -0.2113 -0.3138 -0.0576
12118DOPC   D2A14658  13.602   5.658  13.982 -0.1475  0.1459 -0.0749
12118DOPC   C3A14659  13.343   5.979  13.723  0.0325 -0.2508 -0.3653
12118DOPC   C4A14660  13.233   6.370  13.461 -0.0846  0.1715  0.0864
12118DOPC   C1B14661  14.240   6.225  14.225  0.0114 -0.2539  0.0032
12118DOPC   D2B14662  14.150   6.485  13.875  0.0249  0.0256  0.3824
12118DOPC   C3B14663  14.181   6.625  13.450  0.0251  0.0303 -0.0083
12118DOPC   C4B14664  14.084   6.932  13.148  0.0050  0.0019 -0.1453
12119DOPC   NC314665   5.285   2.688  22.413  0.0732 -0.5352 -0.3333
12119DOPC   PO414666   5.092   3.038  22.345 -0.1919  0.0237  0.2607
12119DOPC   GL114667   5.210   3.250  21.928 -0.0552  0.1277  0.3939
12119DOPC   GL214668   4.915   3.256  21.860  0.1919 -0.0038 -0.1471
12119DOPC   C1A14669   5.482   3.415  21.588 -0.0260 -0.0028 -0.2318
12119DOPC   D2A14670   5.449   3.490  21.091  0.2016  0.0951  0.2484
12119DOPC   C3A14671   5.282   3.774  20.741 -0.2381 -0.0800 -0.1597
12119DOPC   C4A14672   5.087   4.029  20.378  0.0818 -0.0225 -0.0230
12119DOPC   C1B14673   4.815   2.993  21.593 -0.0835 -0.4398 -0.0350
12119DOPC   D2B14674   4.470   3.086  21.251 -0.1992  0.2021  0.2465
12119DOPC   C3B14675   4.281   3.358  20.944  0.0634  0.1105 -0.2027
12119DOPC   C4B14676   3.966   3.490  20.557 -0.2686 -0.0420  0.0686
12120DOPC   NC314677  19.759   4.929  16.179 -0.3253  0.2410 -0.0634
12120DOPC   PO414678  20.033   5.081  16.411  0.0269 -0.1447 -0.2257
12120DOPC   GL114679  20.288   5.046  16.138 -0.2299  0.0850 -0.0327
12120DOPC   GL214680  20.152   5.073  15.902  0.1198 -0.0610 -0.0560
12120DOPC   C1A14681  20.625   5.267  16.022  0.0248 -0.1680 -0.0485
12120DOPC   D2A14682  20.961   5.372  15.684  0.0238 -0.0611  0.2773
12120DOPC   C3A14683  21.316   5.727  15.539  0.0843 -0.0461 -0.0231
12120DOPC   C4A14684  21.459   6.231  15.518  0.0173 -0.1683  0.1373
12120DOPC   C1B14685  20.362   5.148  15.543 -0.0623 -0.0142  0.1406
12120DOPC   D2B14686  20.687   5.302  15.245 -0.1401  0.2998 -0.2242
12120DOPC   C3B14687  21.072   5.502  15.128  0.0380 -0.1141  0.0464
12120DOPC   C4B14688  21.369   5.854  14.983 -0.1410  0.1303 -0.1789
12121DOPC   NC314689  23.999   2.400  20.410  0.0829 -0.0660  0.0607
12121DOPC   PO414690  23.673   2.676  20.300  0.1979 -0.0691  0.0546
12121DOPC   GL114691  23.574   2.805  19.970  0.5112  0.2984 -0.0741
12121DOPC   GL214692  23.628   3.075  19.884 -0.0236 -0.1665  0.2908
12121DOPC   C1A14693  23.708   2.552  19.578 -0.0047  0.0682  0.2102
12121DOPC   D2A14694  24.081   2.405  19.238  0.1271  0.0573 -0.1806
12121DOPC   C3A14695  24.120   2.668  18.918 -0.0379  0.1310 -0.1496
12121DOPC   C4A14696  24.017   2.743  18.442 -0.0472  0.0099 -0.2373
12121DOPC   C1B14697  23.930   3.080  19.577  0.0415 -0.1066 -0.3654
12121DOPC   D2B14698  24.250   2.821  19.367 -0.0058 -0.1908  0.0300
12121DOPC   C3B14699  24.607   2.575  19.149 -0.2537  0.0502  0.1911
12121DOPC   C4B14700  25.108   2.478  19.177  0.0445 -0.1077 -0.0746
12122DOPC   NC314701   3.389   3.322  22.338  0.0208 -0.0552 -0.0183
12122DOPC   PO414702   3.015   3.425  22.339  0.2197  0.1046  0.1416
12122DOPC   GL114703   3.000   3.353  21.918 -0.2508  0.0253 -0.1532
12122DOPC   GL214704   3.219   3.227  21.909 -0.0242  0.1296 -0.3802
12122DOPC   C1A14705   2.716   3.237  21.589  0.0585  0.2637  0.2004
12122DOPC   D2A14706   2.344   3.138  21.351  0.2199  0.0175  0.2725
12122DOPC   C3A14707   2.427   3.004  20.869  0.3216 -0.0086 -0.0627
12122DOPC   C4A14708   2.587   2.668  20.544  0.0064  0.3077 -0.1316
12122DOPC   C1B14709   3.359   3.198  21.468  0.0293  0.3320  0.0187
12122DOPC   D2B14710   3.446   3.100  21.037 -0.3476  0.1333 -0.0449
12122DOPC   C3B14711   3.593   3.464  20.870  0.0561 -0.2219 -0.0125
12122DOPC   C4B14712   3.686   3.912  20.592 -0.1301 -0.0017  0.1807
12123DOPC   NC314713   9.941   2.282  20.310 -0.0012 -0.1240  0.3365
12123DOPC   PO414714   9.995   2.330  20.692 -0.3015 -0.0531  0.0405
12123DOPC   GL114715   9.647   2.359  20.821 -0.1049  0.1493 -0.0543
12123DOPC   GL214716   9.524   2.347  20.492 -0.0105  0.0829  0.1093
12123DOPC   C1A14717   9.306   2.623  20.860  0.0724  0.1704  0.0212
12123DOPC   D2A14718   8.844   2.700  20.684 -0.2072 -0.1782 -0.3772
12123DOPC   C3A14719   8.647   2.848  20.249  0.0751  0.2111  0.0967
12123DOPC   C4A14720   8.535   3.079  19.825  0.2229 -0.2763  0.2231
12123DOPC   C1B14721   9.137   2.239  20.503 -0.0104 -0.0384  0.3727
12123DOPC   D2B14722   8.852   1.832  20.676 -0.1175 -0.0929 -0.0693
12123DOPC   C3B14723   8.385   1.918  20.724  0.1958 -0.0500  0.2069
12123DOPC   C4B14724   8.043   1.832  21.070 -0.2643 -0.0300 -0.1565
12124DOPC   NC314725  24.802   6.651  20.933  0.1147  0.1587  0.0176
12124DOPC   PO414726  24.635   6.364  20.699 -0.1307  0.4614 -0.1959
12124DOPC   GL114727  24.894   6.386  20.469  0.1917  0.1537  0.1528
12124DOPC   GL214728  24.805   6.194  20.281 -0.0682 -0.2897  0.1694
12124DOPC   C1A14729  25.341   6.532  20.370  0.2912  0.0670 -0.0851
12124DOPC   D2A14730  25.851   6.591  20.366 -0.1787 -0.1430  0.1312
12124DOPC   C3A14731  25.843   6.847  19.937  0.0474  0.1379  0.1127
12124DOPC   C4A14732  25.734   7.120  19.529  0.2162  0.3805 -0.1808
12124DOPC   C1B14733  25.158   6.114  20.003 -0.3895  0.0774  0.0059
12124DOPC   D2B14734  25.506   6.067  19.661 -0.1422 -0.2788 -0.3214
12124DOPC   C3B14735  25.544   5.861  19.253 -0.1463  0.0076 -0.0881
12124DOPC   C4B14736  25.769   5.460  19.056  0.1541 -0.1721 -0.3209
12125DOPC   NC314737   1.807   5.862  21.457  0.1808  0.3881 -0.1714
12125DOPC   PO414738   1.854   5.967  21.822  0.2142 -0.1112 -0.1308
12125DOPC   GL114739   2.011   6.316  21.603 -0.0959 -0.0130 -0.2295
12125DOPC   GL214740   1.753   6.458  21.681 -0.0739 -0.4607  0.3076
12125DOPC   C1A14741   2.272   6.545  21.317 -0.2046  0.2046 -0.1220
12125DOPC   D2A14742   2.542   6.751  20.920  0.1197 -0.1038 -0.1189
12125DOPC   C3A14743   2.417   7.125  20.756 -0.2906 -0.3520 -0.3507
12125DOPC   C4A14744   2.162   7.189  20.345 -0.0934  0.1033  0.1748
12125DOPC   C1B14745   1.696   6.414  21.278  0.0573  0.3626 -0.1279
12125DOPC   D2B14746   1.806   6.414  20.761  0.1950 -0.2408  0.1710
12125DOPC   C3B14747   1.589   6.463  20.326  0.0200  0.1345 -0.1699
12125DOPC   C4B14748   1.602   6.452  19.874 -0.1818  0.2159 -0.1248
12126DOPC   NC314749  13.214   3.152  16.541  0.2750  0.1254  0.0060
12126DOPC   PO414750  13.345   2.880  16.261  0.0803 -0.2585  0.0399
12126DOPC   GL114751  13.188   2.738  15.948 -0.1981  0.1614  0.2434
12126DOPC   GL214752  13.054   2.907  15.765 -0.1649  0.1409  0.1658
12126DOPC   C1A14753  13.130   2.367  15.671 -0.0120 -0.2215  0.0358
12126DOPC   D2A14754  13.011   2.021  15.283  0.0170 -0.0751 -0.2190
12126DOPC   C3A14755  12.648   1.719  14.979  0.2129 -0.0401  0.1114
12126DOPC   C4A14756  12.274   1.729  14.644  0.1977 -0.1194  0.0608
12126DOPC   C1B14757  12.650   2.678  15.669  0.1114 -0.0970 -0.0587
12126DOPC   D2B14758  12.227   2.470  15.468 -0.2363 -0.2060 -0.2532
12126DOPC   C3B14759  12.049   2.423  15.027 -0.2461  0.0942 -0.2719
12126DOPC   C4B14760  12.001   2.185  14.571 -0.1952  0.0972  0.3346
12127DOPC   NC314761  21.190   6.081  17.740 -0.2587 -0.1091 -0.3462
12127DOPC   PO414762  21.114   6.488  17.607 -0.0745  0.3279 -0.1252
12127DOPC   GL114763  21.414   6.585  17.388  0.1436 -0.1024 -0.0941
12127DOPC   GL214764  21.520   6.291  17.423 -0.0389  0.1741 -0.3162
12127DOPC   C1A14765  21.520   6.800  16.960  0.1374  0.1268  0.0871
12127DOPC   D2A14766  21.583   7.102  16.505 -0.1964 -0.1253  0.1407
12127DOPC   C3A14767  21.822   7.285  16.110  0.2936  0.3515  0.0175
12127DOPC   C4A14768  22.217   7.169  15.850 -0.0790  0.2172 -0.0034
12127DOPC   C1B14769  21.972   6.152  17.390 -0.2708  0.0209  0.1256
12127DOPC   D2B14770  22.334   6.100  17.087  0.0287  0.0643  0.2409
12127DOPC   C3B14771  22.643   6.237  16.870  0.1535  0.0706 -0.4148
12127DOPC   C4B14772  22.919   6.223  16.498  0.2457  0.0455  0.0935
12128DOPC   NC314773  12.986   4.353  15.724 -0.1137  0.0334  0.0891
12128DOPC   PO414774  13.293   4.123  15.570 -0.2333  0.0813  0.1893
12128DOPC   GL114775  13.126   4.111  15.207  0.0564 -0.1540  0.1460
12128DOPC   GL214776  12.834   4.142  15.334 -0.2022 -0.2315 -0.1377
12128DOPC   C1A14777  13.201   4.009  14.780  0.1155  0.2074  0.2001
12128DOPC   D2A14778  13.238   3.728  14.400 -0.0711 -0.1673 -0.1223
12128DOPC   C3A14779  12.951   3.538  14.164  0.0439  0.0770  0.0900
12128DOPC   C4A14780  12.470   3.456  14.233 -0.1293  0.3990  0.0425
12128DOPC   C1B14781  12.479   3.989  15.185  0.1887  0.0271 -0.1418
12128DOPC   D2B14782  12.228   3.810  14.793  0.4847 -0.0534  0.0512
12128DOPC   C3B14783  11.790   3.771  14.708 -0.0158  0.3197  0.0812
12128DOPC   C4B14784  11.289   3.852  14.687  0.1298 -0.1679  0.1362
12129DOPC   NC314785  14.638   3.350  14.715 -0.1722  0.0395 -0.2254
12129DOPC   PO414786  14.684   2.969  14.833 -0.0629  0.0588 -0.1089
12129DOPC   GL114787  14.622   2.847  14.447  0.2846 -0.0284  0.1706
12129DOPC   GL214788  14.814   2.983  14.311 -0.2940  0.1820 -0.2004
12129DOPC   C1A14789  14.439   2.607  14.082  0.2798 -0.1175  0.0718
12129DOPC   D2A14790  14.354   2.292  13.701 -0.3020 -0.5117 -0.1853
12129DOPC   C3A14791  14.257   2.039  13.270  0.1085 -0.1955 -0.0472
12129DOPC   C4A14792  14.532   2.091  12.869 -0.0178  0.2274 -0.1466
12129DOPC   C1B14793  14.980   2.842  13.906 -0.2101 -0.5275  0.0972
12129DOPC   D2B14794  14.924   2.572  13.473 -0.1807 -0.0220 -0.5132
12129DOPC   C3B14795  14.924   2.814  13.099 -0.1025  0.0253  0.0863
12129DOPC   C4B14796  15.154   3.111  12.794  0.0766  0.0390 -0.1990
12130DOPC   NC314797   7.417   0.758  22.814  0.0224  0.0383 -0.0218
12130DOPC   PO414798   7.385   0.714  22.450 -0.3544 -0.0683 -0.0082
12130DOPC   GL114799   7.463   0.978  22.064  0.1393  0.2241 -0.0689
12130DOPC   GL214800   7.270   1.204  22.070 -0.1661  0.0729  0.0952
12130DOPC   C1A14801   7.448   0.890  21.663 -0.0299 -0.0861  0.0945
12130DOPC   D2A14802   7.426   1.041  21.201  0.1083 -0.0578 -0.0679
12130DOPC   C3A14803   7.031   0.886  20.891  0.0505 -0.3114 -0.1161
12130DOPC   C4A14804   6.643   0.880  20.588  0.4148 -0.2115 -0.2308
12130DOPC   C1B14805   6.906   1.186  21.842 -0.0130  0.2078 -0.0147
12130DOPC   D2B14806   6.565   1.318  21.510 -0.1786  0.3768  0.2132
12130DOPC   C3B14807   6.362   1.216  21.043  0.3356 -0.3099 -0.2034
12130DOPC   C4B14808   6.202   1.210  20.562  0.0182  0.0149 -0.1489
12131DOPC   NC314809  22.548   3.813  19.442 -0.0547  0.0468  0.0074
12131DOPC   PO414810  22.596   3.536  19.682  0.0298 -0.1107 -0.0890
12131DOPC   GL114811  22.966   3.291  19.499  0.0810  0.0082 -0.0170
12131DOPC   GL214812  22.854   3.504  19.369 -0.0380  0.2079 -0.4220
12131DOPC   C1A14813  23.315   3.114  19.259  0.0100  0.3166 -0.1584
12131DOPC   D2A14814  23.704   2.839  19.154  0.0257  0.0501 -0.3404
12131DOPC   C3A14815  23.620   2.735  18.750 -0.1320  0.0374  0.0360
12131DOPC   C4A14816  23.360   2.848  18.323  0.0658 -0.0090  0.0662
12131DOPC   C1B14817  23.169   3.709  19.136  0.0581  0.2568 -0.2506
12131DOPC   D2B14818  23.327   3.975  18.751  0.1838 -0.0673  0.0662
12131DOPC   C3B14819  23.636   4.247  18.556 -0.1056  0.3227 -0.2875
12131DOPC   C4B14820  24.119   4.138  18.425  0.0795  0.0884 -0.0792
12132DOPC   NC314821   2.835   4.316  22.234 -0.0369  0.2029 -0.0649
12132DOPC   PO414822   2.510   4.436  22.068  0.1023  0.1771 -0.0058
12132DOPC   GL114823   2.651   4.222  21.704 -0.1050  0.1325 -0.0084
12132DOPC   GL214824   2.449   4.357  21.517  0.1227 -0.1675  0.2231
12132DOPC   C1A14825   2.991   4.061  21.454  0.1663  0.0223 -0.1923
12132DOPC   D2A14826   3.050   4.260  20.952  0.0852 -0.0674  0.0461
12132DOPC   C3A14827   3.338   4.455  20.652 -0.1147  0.0491  0.0607
12132DOPC   C4A14828   3.658   4.551  20.326  0.2124  0.2501 -0.0503
12132DOPC   C1B14829   2.566   4.631  21.192 -0.2924 -0.2030  0.0842
12132DOPC   D2B14830   2.774   4.842  20.793 -0.0504 -0.1100 -0.3907
12132DOPC   C3B14831   2.994   4.755  20.408  0.1583  0.0601 -0.2649
12132DOPC   C4B14832   3.250   4.503  19.994 -0.0667 -0.0427 -0.1931
12133DOPC   NC314833   6.325   6.805  22.432  0.0242  0.1296 -0.2307
12133DOPC   PO414834   6.739   6.898  22.365  0.0879 -0.0727  0.4519
12133DOPC   GL114835   6.827   7.026  22.007 -0.0813  0.2385  0.2184
12133DOPC   GL214836   6.483   7.098  21.930  0.5488  0.3402 -0.0661
12133DOPC   C1A14837   7.109   7.392  21.943 -0.1706 -0.2648 -0.0189
12133DOPC   D2A14838   7.610   7.624  21.806  0.0459 -0.2946 -0.0529
12133DOPC   C3A14839   7.391   7.970  21.570  0.0010 -0.1084  0.1647
12133DOPC   C4A14840   7.571   8.290  21.231 -0.0132 -0.1374 -0.0057
12133DOPC   C1B14841   6.381   6.987  21.540 -0.3229 -0.0201  0.0178
12133DOPC   D2B14842   6.181   7.118  21.121 -0.0651 -0.1454  0.3240
12133DOPC   C3B14843   5.926   6.998  20.753  0.0962 -0.3247 -0.0875
12133DOPC   C4B14844   5.531   7.147  20.503  0.1724 -0.0508 -0.1535
12134DOPC   NC314845   5.347   1.569  22.776 -0.1673  0.2704 -0.0896
12134DOPC   PO414846   5.203   1.860  22.547  0.1957 -0.2317 -0.0831
12134DOPC   GL114847   4.999   1.761  22.273  0.0905 -0.0834 -0.0659
12134DOPC   GL214848   5.116   1.564  22.125  0.0384  0.1529  0.1357
12134DOPC   C1A14849   4.716   2.010  22.046 -0.2535 -0.0447 -0.1523
12134DOPC   D2A14850   4.423   1.940  21.718 -0.1107 -0.1650  0.2886
12134DOPC   C3A14851   4.159   2.075  21.418 -0.1385  0.1254 -0.0629
12134DOPC   C4A14852   3.991   2.297  20.967 -0.0688  0.1009 -0.0608
12134DOPC   C1B14853   4.962   1.647  21.772  0.1817 -0.0629 -0.2173
12134DOPC   D2B14854   4.771   1.886  21.353  0.0613 -0.3746  0.1722
12134DOPC   C3B14855   4.914   1.983  20.920 -0.0734 -0.2210  0.1392
12134DOPC   C4B14856   4.917   2.003  20.387 -0.1270 -0.1567  0.0774
12135DOPC   NC314857   4.589   1.197  22.834 -0.0622  0.2716 -0.2025
12135DOPC   PO414858   4.321   1.488  22.817  0.1155 -0.0991 -0.1684
12135DOPC   GL114859   4.081   1.437  22.462 -0.2527  0.1360  0.1016
12135DOPC   GL214860   4.357   1.623  22.313  0.4725  0.0977  0.0344
12135DOPC   C1A14861   4.033   1.164  22.119 -0.1537  0.0935  0.0816
12135DOPC   D2A14862   3.941   1.259  21.684  0.1621  0.0175 -0.0215
12135DOPC   C3A14863   4.105   1.489  21.270  0.0806 -0.1650  0.0767
12135DOPC   C4A14864   4.022   1.825  20.970  0.1899 -0.2618  0.0631
12135DOPC   C1B14865   4.466   1.513  21.904  0.3105 -0.1459  0.1442
12135DOPC   D2B14866   4.633   1.333  21.504 -0.0590  0.0032 -0.0706
12135DOPC   C3B14867   4.552   1.498  21.042  0.0422  0.2092  0.0724
12135DOPC   C4B14868   4.454   1.755  20.590 -0.0459 -0.0002 -0.0129
12136DOPC   NC314869   8.366   4.640  22.063 -0.1664  0.1770 -0.1477
12136DOPC   PO414870   8.449   4.911  21.782 -0.0231  0.2081  0.1031
12136DOPC   GL114871   8.503   5.162  21.395 -0.2366 -0.0477 -0.4477
12136DOPC   GL214872   8.239   5.005  21.352 -0.0716  0.0987 -0.1300
12136DOPC   C1A14873   8.348   5.499  21.190  0.0017 -0.1482  0.2130
12136DOPC   D2A14874   8.308   5.979  21.095 -0.1478 -0.1222 -0.1517
12136DOPC   C3A14875   8.194   5.715  20.695 -0.0700 -0.1503 -0.1850
12136DOPC   C4A14876   7.961   5.503  20.292  0.0857  0.1457  0.2976
12136DOPC   C1B14877   7.840   5.182  21.328  0.3164 -0.1259  0.4340
12136DOPC   D2B14878   7.425   5.417  21.155 -0.1074  0.3067 -0.2266
12136DOPC   C3B14879   7.383   5.597  20.718 -0.1194 -0.0214  0.1002
12136DOPC   C4B14880   7.519   5.823  20.287  0.2836 -0.0202 -0.1844
12137DOPC   NC314881  11.386   3.275  19.187 -0.0015 -0.1089  0.1880
12137DOPC   PO414882  11.257   3.404  18.847  0.1543 -0.1734  0.3429
12137DOPC   GL114883  10.853   3.398  18.682  0.0946 -0.1525 -0.1299
12137DOPC   GL214884  10.967   3.365  18.443 -0.2723 -0.2177  0.3430
12137DOPC   C1A14885  10.513   3.646  18.596  0.2054  0.2940 -0.1891
12137DOPC   D2A14886  10.257   4.022  18.531 -0.1643  0.0750  0.3692
12137DOPC   C3A14887  10.102   4.230  18.144 -0.1410  0.1100  0.4179
12137DOPC   C4A14888   9.737   4.517  17.936  0.0731 -0.2766 -0.1647
12137DOPC   C1B14889  11.039   3.096  18.117  0.2565  0.2696  0.1860
12137DOPC   D2B14890  10.757   2.965  17.711  0.2565 -0.0061 -0.0603
12137DOPC   C3B14891  10.327   2.857  17.555 -0.1736  0.0774  0.0965
12137DOPC   C4B14892   9.912   2.777  17.327 -0.3009 -0.1370  0.2178
12138DOPC   NC314893  13.949   5.078  15.041  0.3567  0.2706  0.0862
12138DOPC   PO414894  13.811   5.411  15.200 -0.1262 -0.0150  0.1136
12138DOPC   GL114895  13.553   5.610  14.959 -0.0964  0.1623 -0.4647
12138DOPC   GL214896  13.293   5.587  15.058 -0.2002 -0.2281 -0.0672
12138DOPC   C1A14897  13.639   5.799  14.678  0.0873 -0.2272 -0.1382
12138DOPC   D2A14898  13.301   6.103  14.414 -0.2577  0.0612  0.0098
12138DOPC   C3A14899  13.031   6.132  14.107  0.1134  0.0358  0.1536
12138DOPC   C4A14900  12.641   6.344  13.954 -0.3710 -0.1174  0.0865
12138DOPC   C1B14901  12.861   5.578  14.862 -0.2052 -0.3278 -0.1990
12138DOPC   D2B14902  12.390   5.688  14.768 -0.1667 -0.2093  0.2029
12138DOPC   C3B14903  12.077   5.382  14.820 -0.1238  0.0652 -0.1154
12138DOPC   C4B14904  11.728   5.229  14.587  0.0164  0.0437  0.5754
12139DOPC   NC314905  14.914   7.640  14.657 -0.3538 -0.1767 -0.1528
12139DOPC   PO414906  14.599   7.402  14.742 -0.0376  0.2580  0.1704
12139DOPC   GL114907  14.309   7.479  14.491 -0.0905 -0.3139  0.0655
12139DOPC   GL214908  14.534   7.395  14.226 -0.0602 -0.0608 -0.0412
12139DOPC   C1A14909  13.885   7.614  14.474 -0.0340  0.1391 -0.0186
12139DOPC   D2A14910  13.574   7.647  14.815 -0.1738  0.0043  0.2425
12139DOPC   C3A14911  13.230   7.522  14.583  0.1582  0.0634  0.4080
12139DOPC   C4A14912  13.003   7.315  14.159  0.2088  0.0746  0.0093
12139DOPC   C1B14913  14.590   7.597  13.854  0.0029 -0.5013  0.2861
12139DOPC   D2B14914  14.576   7.795  13.433 -0.3333 -0.2852  0.1120
12139DOPC   C3B14915  14.303   7.751  13.044 -0.0011 -0.0319  0.3136
12139DOPC   C4B14916  13.932   7.756  13.310 -0.1262  0.1126  0.0479
12140DOPC   NC314917  19.347   0.991  16.640  0.2110 -0.2332  0.0266
12140DOPC   PO414918  19.597   0.786  16.381 -0.2231  0.0830 -0.0265
12140DOPC   GL114919  19.922   0.757  16.148 -0.0057  0.1290  0.4053
12140DOPC   GL214920  19.823   0.868  15.879  0.2841  0.3573  0.1326
12140DOPC   C1A14921  20.255   0.472  16.077  0.6627 -0.0088 -0.0217
12140DOPC   D2A14922  20.708   0.381  16.069  0.1354  0.1293  0.2020
12140DOPC   C3A14923  20.779   0.521  15.621 -0.1549 -0.1491  0.0433
12140DOPC   C4A14924  20.893   0.383  15.190 -0.0527  0.3356 -0.1206
12140DOPC   C1B14925  20.238   0.735  15.665  0.1327  0.0089 -0.0873
12140DOPC   D2B14926  20.663   0.994  15.671 -0.2578 -0.0325  0.0770
12140DOPC   C3B14927  21.001   1.287  15.610 -0.1306 -0.2060  0.0228
12140DOPC   C4B14928  21.281   1.652  15.845 -0.1234  0.1526 -0.0356
12141DOPC   NC314929  11.088   1.718  18.693  0.1717  0.1335 -0.1473
12141DOPC   PO414930  11.144   1.709  18.314  0.2729 -0.0391 -0.3219
12141DOPC   GL114931  10.856   1.613  17.998  0.1670  0.1532  0.2051
12141DOPC   GL214932  10.995   1.380  18.000  0.0847 -0.0144  0.2206
12141DOPC   C1A14933  10.460   1.560  17.916  0.0898 -0.0473 -0.2724
12141DOPC   D2A14934   9.933   1.540  17.852 -0.2374 -0.1647  0.1299
12141DOPC   C3A14935   9.655   1.790  18.090 -0.4184 -0.2219  0.0519
12141DOPC   C4A14936   9.186   1.922  18.320  0.1621 -0.2336 -0.1753
12141DOPC   C1B14937  11.038   1.057  17.716 -0.0266 -0.0972 -0.3259
12141DOPC   D2B14938  10.926   0.911  17.278 -0.1171  0.1969 -0.1630
12141DOPC   C3B14939  10.551   0.907  17.001  0.0912  0.1752  0.0591
12141DOPC   C4B14940  10.040   0.860  16.926  0.0081 -0.2581 -0.0589
12142DOPC   NC314941   1.247   4.261  21.678 -0.4728  0.1109 -0.1687
12142DOPC   PO414942   1.452   4.599  21.673  0.0281  0.1549 -0.0717
12142DOPC   GL114943   1.798   4.767  21.480  0.1897 -0.1906  0.0680
12142DOPC   GL214944   1.571   4.817  21.219 -0.1121  0.4579  0.1174
12142DOPC   C1A14945   2.046   4.619  21.234  0.1053  0.0134  0.0838
12142DOPC   D2A14946   2.283   4.583  20.765 -0.1540  0.1409  0.1959
12142DOPC   C3A14947   2.661   4.440  20.544 -0.1055  0.2910  0.2636
12142DOPC   C4A14948   2.924   4.190  20.244  0.1035 -0.4248 -0.2971
12142DOPC   C1B14949   1.723   4.631  20.863 -0.0314  0.3298 -0.2822
12142DOPC   D2B14950   1.936   4.752  20.459  0.2349 -0.2284  0.1133
12142DOPC   C3B14951   1.998   4.593  20.063  0.3695 -0.0500 -0.0564
12142DOPC   C4B14952   2.292   4.407  19.788  0.0735  0.0019 -0.1236
12143DOPC   NC314953  14.333   7.118  15.446 -0.2231 -0.0458  0.2577
12143DOPC   PO414954  14.190   7.282  15.142 -0.1009 -0.1538 -0.2223
12143DOPC   GL114955  13.960   7.020  14.816  0.0816  0.0630 -0.2945
12143DOPC   GL214956  14.262   7.102  14.717  0.1209  0.3117 -0.3167
12143DOPC   C1A14957  13.819   6.797  14.529  0.1091  0.0208 -0.2686
12143DOPC   D2A14958  13.692   6.728  14.049  0.0553 -0.1187 -0.0497
12143DOPC   C3A14959  13.606   6.888  13.620 -0.0957 -0.1403 -0.1872
12143DOPC   C4A14960  13.606   7.096  13.084 -0.2855  0.2863 -0.1536
12143DOPC   C1B14961  14.096   7.134  14.301  0.1122 -0.1387  0.0193
12143DOPC   D2B14962  14.097   7.035  13.766 -0.1817  0.2616  0.2228
12143DOPC   C3B14963  14.292   7.321  13.422 -0.2886 -0.2550  0.1762
12143DOPC   C4B14964  14.491   7.319  12.976  0.1239  0.0294 -0.0578
12144DOPC   NC314965   0.137   7.659  20.894 -0.2819  0.0022 -0.1052
12144DOPC   PO414966  -0.175   7.757  20.673  0.0616  0.0995 -0.1439
12144DOPC   GL114967  -0.099   8.169  20.672 -0.0755  0.0886 -0.0728
12144DOPC   GL214968   0.161   8.142  20.617 -0.0694  0.4991  0.1806
12144DOPC   C1A14969  -0.119   8.372  20.307  0.0145 -0.3858  0.1315
12144DOPC   D2A14970   0.183   8.385  19.929  0.1077  0.1590  0.0938
12144DOPC   C3A14971   0.464   8.412  19.515  0.0889 -0.2605 -0.2088
12144DOPC   C4A14972   0.707   8.438  19.048  0.3099  0.0886  0.0764
12144DOPC   C1B14973   0.398   8.424  20.370  0.1425 -0.0139 -0.0490
12144DOPC   D2B14974   0.563   8.697  19.977 -0.1759  0.2009  0.1889
12144DOPC   C3B14975   0.919   8.468  19.706  0.1041 -0.1478 -0.0742
12144DOPC   C4B14976   1.265   8.186  19.720 -0.1399 -0.0756  0.1849
12145DOPC   NC314977  10.924   5.728  19.072  0.0267  0.1678  0.0320
12145DOPC   PO414978  10.718   6.033  19.195  0.1427  0.0937 -0.1551
12145DOPC   GL114979  10.386   6.141  19.070 -0.2414  0.0508 -0.1197
12145DOPC   GL214980  10.494   6.196  18.791 -0.2430  0.1307 -0.0807
12145DOPC   C1A14981  10.023   6.052  18.863  0.3164 -0.0073 -0.1503
12145DOPC   D2A14982   9.614   5.944  18.598 -0.0800 -0.1881 -0.0250
12145DOPC   C3A14983   9.288   6.301  18.524  0.0462  0.0059  0.1115
12145DOPC   C4A14984   9.021   6.726  18.510 -0.2468  0.1396  0.0202
12145DOPC   C1B14985  10.208   6.094  18.429  0.3027 -0.2275  0.1147
12145DOPC   D2B14986   9.863   6.009  18.046 -0.0879  0.1168  0.0527
12145DOPC   C3B14987   9.718   6.402  18.157  0.0497 -0.1742 -0.0555
12145DOPC   C4B14988   9.967   6.762  18.345  0.0766  0.0034 -0.1380
12146DOPC   NC314989  20.111   5.914  16.688 -0.0823 -0.1908  0.2851
12146DOPC   PO414990  20.489   5.856  16.554 -0.0448  0.0277 -0.1179
12146DOPC   GL114991  20.565   5.861  16.169 -0.1276 -0.1468  0.0204
12146DOPC   GL214992  20.820   5.786  16.193 -0.1067  0.1383  0.0008
12146DOPC   C1A14993  20.604   6.188  15.891 -0.1842  0.1770 -0.4488
12146DOPC   D2A14994  20.596   6.624  15.952  0.1333 -0.1462 -0.0533
12146DOPC   C3A14995  20.840   7.028  15.824  0.1115 -0.0267  0.1712
12146DOPC   C4A14996  21.287   7.195  15.780 -0.1017  0.0685  0.2817
12146DOPC   C1B14997  21.006   5.492  16.494 -0.2129  0.2382 -0.0287
12146DOPC   D2B14998  21.389   5.209  16.633  0.0529 -0.0333  0.0542
12146DOPC   C3B14999  21.742   5.262  16.276  0.0711 -0.2763  0.0507
12146DOPC   C4B15000  22.159   5.389  15.961 -0.6817  0.1386 -0.0024
12147DOPC   NC315001  10.041   3.349  20.514 -0.1245 -0.0158 -0.0963
12147DOPC   PO415002  10.274   3.574  20.267  0.0542 -0.0513 -0.1054
12147DOPC   GL115003  10.125   3.496  19.863 -0.1799 -0.0548 -0.1827
12147DOPC   GL215004   9.880   3.738  19.949  0.1175  0.1742  0.0346
12147DOPC   C1A15005   9.824   3.327  19.634 -0.2718 -0.0896 -0.1337
12147DOPC   D2A15006   9.313   3.348  19.476  0.0527  0.0927 -0.3017
12147DOPC   C3A15007   9.073   2.949  19.416  0.1559 -0.2642  0.4384
12147DOPC   C4A15008   8.642   2.669  19.504 -0.0873  0.1299  0.4273
12147DOPC   C1B15009   9.501   3.544  19.913 -0.0034  0.2876  0.0582
12147DOPC   D2B15010   9.064   3.286  19.933  0.0324  0.2017 -0.1703
12147DOPC   C3B15011   8.809   3.358  19.519  0.0365 -0.0514 -0.1805
12147DOPC   C4B15012   8.536   3.176  19.153 -0.0436 -0.3577  0.0952
12148DOPC   NC315013  12.368   2.948  17.120  0.1463 -0.2007  0.0622
12148DOPC   PO415014  12.344   2.543  17.099  0.1964  0.1989  0.2843
12148DOPC   GL115015  12.101   2.539  16.823 -0.0192 -0.3219 -0.0929
12148DOPC   GL215016  12.228   2.451  16.529 -0.1505  0.0402 -0.1280
12148DOPC   C1A15017  11.769   2.846  16.701 -0.0864 -0.0741 -0.1097
12148DOPC   D2A15018  11.351   3.081  16.575 -0.0160 -0.0899  0.2144
12148DOPC   C3A15019  10.952   3.152  16.482  0.2120  0.2804  0.1185
12148DOPC   C4A15020  10.622   3.419  16.382 -0.0945  0.0436  0.0227
12148DOPC   C1B15021  11.850   2.397  16.327 -0.0898 -0.1324  0.0197
12148DOPC   D2B15022  11.571   2.356  15.888  0.1354 -0.2238 -0.0716
12148DOPC   C3B15023  11.523   1.940  15.841  0.2950  0.3065 -0.2960
12148DOPC   C4B15024  11.274   1.608  16.027 -0.1041  0.2966 -0.1605
12149DOPC   NC315025  18.624   7.750  15.434 -0.2036 -0.4222  0.1909
12149DOPC   PO415026  18.450   8.161  15.303 -0.0403  0.1398  0.0523
12149DOPC   GL115027  18.739   8.390  15.037  0.2383 -0.0957 -0.2632
12149DOPC   GL215028  18.769   8.047  15.035  0.4523 -0.1191  0.2179
12149DOPC   C1A15029  18.958   8.437  14.661  0.0565 -0.0796 -0.1032
12149DOPC   D2A15030  19.206   8.379  14.231 -0.2054  0.1828 -0.1336
12149DOPC   C3A15031  19.537   8.264  13.981  0.1002  0.3171 -0.1978
12149DOPC   C4A15032  20.009   8.016  13.932 -0.0452 -0.3133  0.0272
12149DOPC   C1B15033  19.147   7.966  14.952 -0.0411  0.0473 -0.2318
12149DOPC   D2B15034  19.480   8.002  14.571 -0.0497 -0.0602 -0.0277
12149DOPC   C3B15035  19.822   8.312  14.426  0.1224 -0.2920 -0.1942
12149DOPC   C4B15036  20.057   8.557  14.038  0.2706 -0.0597 -0.0078
12150DOPC   NC315037  16.244   6.910  14.486 -0.0275  0.0146  0.1049
12150DOPC   PO415038  15.915   6.893  14.271  0.0164  0.0072  0.3836
12150DOPC   GL115039  15.937   6.828  13.876  0.1356 -0.1250  0.1315
12150DOPC   GL215040  15.944   7.072  13.762  0.3147  0.0833  0.0777
12150DOPC   C1A15041  15.894   6.521  13.604 -0.2170 -0.2664 -0.1420
12150DOPC   D2A15042  15.804   6.339  13.161  0.0793 -0.0568 -0.0082
12150DOPC   C3A15043  15.346   6.355  13.123 -0.0387 -0.3459  0.0310
12150DOPC   C4A15044  14.926   6.480  12.980  0.1515  0.2495  0.1819
12150DOPC   C1B15045  16.182   6.969  13.410  0.0561 -0.2455 -0.3494
12150DOPC   D2B15046  16.353   6.924  12.965  0.1872 -0.0772 -0.1483
12150DOPC   C3B15047  16.665   6.583  12.783  0.1809 -0.0263  0.0214
12150DOPC   C4B15048  16.959   6.271  12.553  0.2572  0.0531  0.0946
12151DOPC   NC315049  22.676   6.195  19.447  0.2340  0.3244 -0.1460
12151DOPC   PO415050  22.613   6.071  19.062  0.1885  0.0291 -0.1776
12151DOPC   GL115051  22.833   5.880  18.728 -0.1924  0.2180 -0.0785
12151DOPC   GL215052  22.809   5.570  18.807  0.1048 -0.2014 -0.0061
12151DOPC   C1A15053  22.895   6.087  18.392 -0.0866  0.1387 -0.1505
12151DOPC   D2A15054  23.152   6.229  17.984 -0.2219 -0.0633  0.1116
12151DOPC   C3A15055  23.273   6.208  17.498 -0.1125 -0.1242  0.0220
12151DOPC   C4A15056  23.092   6.169  17.051  0.1132  0.2865  0.1216
12151DOPC   C1B15057  23.210   5.488  18.600  0.3695 -0.2430 -0.0717
12151DOPC   D2B15058  23.554   5.589  18.298 -0.3659 -0.0535  0.3691
12151DOPC   C3B15059  23.934   5.701  17.952  0.3015 -0.0134  0.0040
12151DOPC   C4B15060  24.336   5.736  17.688 -0.1314 -0.0547  0.3345
12152DOPC   NC315061  13.324   7.734  15.724 -0.0286 -0.2883 -0.1487
12152DOPC   PO415062  13.219   7.555  16.025 -0.0386  0.1633 -0.0129
12152DOPC   GL115063  12.749   7.442  15.973 -0.4031  0.1807  0.1268
12152DOPC   GL215064  12.850   7.582  15.693 -0.0126  0.2424  0.1166
12152DOPC   C1A15065  12.358   7.258  15.853  0.0744  0.0420  0.1175
12152DOPC   D2A15066  11.899   7.225  15.861  0.0346 -0.0068 -0.1093
12152DOPC   C3A15067  11.611   7.182  15.450  0.0516 -0.0293 -0.0843
12152DOPC   C4A15068  11.162   7.128  15.204 -0.0497  0.1331  0.1941
12152DOPC   C1B15069  12.672   7.357  15.395 -0.0352 -0.0341  0.3620
12152DOPC   D2B15070  12.368   7.244  14.999 -0.1426  0.0513  0.2349
12152DOPC   C3B15071  12.335   6.817  14.804  0.2858  0.4380 -0.2056
12152DOPC   C4B15072  12.281   6.572  14.347  0.2367 -0.1158  0.1727
12153DOPC   NC315073   1.720   5.000  21.873 -0.0242 -0.1734  0.2494
12153DOPC   PO415074   2.099   5.096  21.800 -0.0216  0.1643  0.3878
12153DOPC   GL115075   2.287   5.141  21.380  0.1962  0.0545  0.5476
12153DOPC   GL215076   2.026   5.153  21.325 -0.2915 -0.0110  0.0143
12153DOPC   C1A15077   2.579   5.192  21.071 -0.0490  0.1392  0.2064
12153DOPC   D2A15078   2.801   5.334  20.657 -0.2632  0.5197  0.1354
12153DOPC   C3A15079   3.010   5.260  20.220  0.0104 -0.2712  0.0356
12153DOPC   C4A15080   3.340   5.306  19.887 -0.0704 -0.4087  0.1499
12153DOPC   C1B15081   2.231   5.577  21.173 -0.0062  0.0034 -0.2110
12153DOPC   D2B15082   2.636   5.776  21.009 -0.0908 -0.0660  0.2020
12153DOPC   C3B15083   2.625   5.928  20.589 -0.2506  0.3329 -0.2030
12153DOPC   C4B15084   2.501   6.133  20.131  0.1785 -0.0567 -0.0029
12154DOPC   NC315085  23.209   5.551  19.609  0.0856  0.1536  0.0054
12154DOPC   PO415086  22.925   5.264  19.548 -0.0582 -0.0025  0.1262
12154DOPC   GL115087  23.035   5.074  19.175 -0.1585  0.0632 -0.0240
12154DOPC   GL215088  22.937   5.399  19.141 -0.0116 -0.1890  0.3215
12154DOPC   C1A15089  23.269   5.049  18.808 -0.2137 -0.1042  0.1032
12154DOPC   D2A15090  23.376   5.129  18.333 -0.0991 -0.2709 -0.1374
12154DOPC   C3A15091  23.725   5.178  18.054  0.2890 -0.1158 -0.0177
12154DOPC   C4A15092  24.191   5.258  17.878 -0.1341 -0.4161 -0.2361
12154DOPC   C1B15093  23.320   5.514  19.084 -0.0214  0.2526  0.0215
12154DOPC   D2B15094  23.706   5.723  18.851  0.0433  0.0822 -0.0468
12154DOPC   C3B15095  24.010   5.794  18.484 -0.2481  0.0252 -0.0258
12154DOPC   C4B15096  24.215   6.093  18.162 -0.0026  0.1997  0.1824
12155DOPC   NC315097   8.960   0.980  21.949  0.1224  0.0121  0.0832
12155DOPC   PO415098   8.716   0.706  21.750  0.1459  0.1556  0.3256
12155DOPC   GL115099   8.578   0.652  21.314  0.3174  0.0821 -0.0817
12155DOPC   GL215100   8.590   0.972  21.266 -0.1082  0.0135  0.0488
12155DOPC   C1A15101   8.153   0.505  21.176  0.0407  0.2104 -0.2683
12155DOPC   D2A15102   7.813   0.443  20.794 -0.0474  0.2778  0.1715
12155DOPC   C3A15103   8.199   0.450  20.545 -0.0235  0.0867  0.0740
12155DOPC   C4A15104   8.593   0.396  20.326  0.4901 -0.4013  0.1579
12155DOPC   C1B15105   8.420   0.858  20.886 -0.1775 -0.0637  0.1915
12155DOPC   D2B15106   8.041   0.950  20.563  0.5433  0.1315  0.2948
12155DOPC   C3B15107   7.754   1.004  20.222  0.0090 -0.1828  0.0005
12155DOPC   C4B15108   7.368   1.198  19.968 -0.0254  0.0266  0.1436
12156DOPC   NC315109   5.397   5.097  22.786 -0.0799  0.1204  0.1203
12156DOPC   PO415110   5.279   5.264  22.409 -0.0311 -0.1635 -0.1613
12156DOPC   GL115111   5.421   5.233  22.043 -0.0531 -0.0193  0.0158
12156DOPC   GL215112   5.653   5.399  22.039 -0.2279  0.0480 -0.0045
12156DOPC   C1A15113   5.371   5.496  21.669  0.0077 -0.2660  0.1624
12156DOPC   D2A15114   5.686   5.733  21.341 -0.0104 -0.1349  0.1708
12156DOPC   C3A15115   6.039   5.911  21.138  0.0103 -0.0380  0.1549
12156DOPC   C4A15116   6.280   6.067  20.737 -0.0999  0.0590  0.1320
12156DOPC   C1B15117   5.971   5.344  21.790  0.2325  0.0062  0.2889
12156DOPC   D2B15118   6.135   5.502  21.361  0.0703  0.0909 -0.3888
12156DOPC   C3B15119   6.041   5.529  20.901  0.0304  0.3288  0.2403
12156DOPC   C4B15120   5.902   5.796  20.487  0.0115  0.0527 -0.0015
12157DOPC   NC315121  19.769   1.835  16.452 -0.0648 -0.3549 -0.2652
12157DOPC   PO415122  19.869   1.616  16.825  0.0379 -0.1524 -0.3264
12157DOPC   GL115123  20.348   1.655  16.821  0.1628 -0.2341  0.0091
12157DOPC   GL215124  20.203   1.940  16.755  0.0121  0.2850  0.2853
12157DOPC   C1A15125  20.745   1.531  16.704 -0.1203 -0.2187  0.0544
12157DOPC   D2A15126  21.169   1.519  16.474  0.0181 -0.0598  0.1575
12157DOPC   C3A15127  21.633   1.618  16.320 -0.5162  0.3708 -0.2351
12157DOPC   C4A15128  21.979   1.759  15.900 -0.2477  0.1045 -0.1168
12157DOPC   C1B15129  20.411   2.011  16.408 -0.1361  0.1678 -0.0022
12157DOPC   D2B15130  20.614   1.981  16.044  0.2077 -0.2103  0.0369
12157DOPC   C3B15131  20.509   1.647  15.734  0.0945 -0.2376  0.1689
12157DOPC   C4B15132  20.484   1.424  15.381  0.2301 -0.0026  0.0798
12158DOPA   PO415133  19.318   6.008  16.042 -0.2147  0.0838 -0.2567
12158DOPA   GL115134  19.735   6.047  15.850  0.2399 -0.1365  0.1066
12158DOPA   GL215135  19.580   6.294  15.776  0.1249 -0.0240  0.1147
12158DOPA   C1A15136  19.985   5.906  15.487 -0.3544 -0.2633 -0.2713
12158DOPA   D2A15137  20.256   5.551  15.192  0.3374  0.1574 -0.1171
12158DOPA   C3A15138  20.665   5.696  14.977  0.0191  0.1073  0.0982
12158DOPA   C4A15139  20.902   6.068  14.803 -0.2152  0.3080  0.0225
12158DOPA   C1B15140  19.790   6.671  15.658 -0.1836  0.0423  0.0665
12158DOPA   D2B15141  19.997   7.080  15.476 -0.1969 -0.1061  0.1122
12158DOPA   C3B15142  20.416   6.853  15.499  0.3846 -0.1258 -0.1353
12158DOPA   C4B15143  20.818   6.586  15.469  0.0977  0.1328 -0.0876
12159DOPA   PO415144   1.894   1.007  22.092  0.0041 -0.0534 -0.2920
12159DOPA   GL115145   1.798   0.798  21.811 -0.1231  0.2637 -0.1253
12159DOPA   GL215146   1.634   0.647  21.912 -0.0307  0.2966 -0.2197
12159DOPA   C1A15147   2.003   0.651  21.467  0.2886 -0.0571 -0.2045
12159DOPA   D2A15148   2.229   0.531  21.031 -0.1795  0.1592 -0.0583
12159DOPA   C3A15149   2.091   0.506  20.612  0.0749  0.0875 -0.1068
12159DOPA   C4A15150   1.985   0.488  20.127 -0.2900 -0.2846 -0.1268
12159DOPA   C1B15151   1.528   0.225  21.784  0.0498 -0.2831  0.0765
12159DOPA   D2B15152   1.558   0.003  21.310 -0.3117 -0.0255 -0.0404
12159DOPA   C3B15153   1.322  -0.327  21.183  0.0658  0.1455  0.2719
12159DOPA   C4B15154   1.027  -0.677  21.081 -0.0003  0.0356  0.2237
12160DOPA   PO415155   6.174   6.319  22.183 -0.0023  0.0787 -0.2576
12160DOPA   GL115156   6.277   6.670  21.929  0.4237 -0.3266  0.0148
12160DOPA   GL215157   6.545   6.691  22.026  0.6133 -0.3027  0.5194
12160DOPA   C1A15158   5.983   6.691  21.564  0.0085 -0.2355 -0.2410
12160DOPA   D2A15159   5.917   6.658  21.072  0.1718  0.1708 -0.0961
12160DOPA   C3A15160   5.547   6.610  20.815  0.0878 -0.0015  0.1282
12160DOPA   C4A15161   5.283   6.586  20.458 -0.1138 -0.1708 -0.2329
12160DOPA   C1B15162   6.711   6.673  21.604 -0.3111 -0.0383 -0.3383
12160DOPA   D2B15163   7.006   6.580  21.183  0.1454 -0.2069  0.1734
12160DOPA   C3B15164   7.006   6.763  20.689  0.0253  0.2221  0.1065
12160DOPA   C4B15165   7.245   6.928  20.243  0.1089 -0.1770 -0.1002
12161DOPA   PO415166  17.792   1.592  15.063  0.0675 -0.0679  0.0572
12161DOPA   GL115167  17.759   1.688  14.624 -0.1205  0.4411 -0.0981
12161DOPA   GL215168  17.771   1.967  14.608  0.1762 -0.0344 -0.1213
12161DOPA   C1A15169  18.050   1.515  14.334 -0.0569  0.0904  0.4096
12161DOPA   D2A15170  18.394   1.290  13.984  0.2849  0.0629  0.0660
12161DOPA   C3A15171  18.292   1.395  13.544 -0.0189 -0.1052  0.1890
12161DOPA   C4A15172  18.013   1.543  13.162 -0.0836  0.3401 -0.2863
12161DOPA   C1B15173  17.966   2.107  14.204  0.1305 -0.4126  0.1470
12161DOPA   D2B15174  17.876   2.543  14.046  0.1127 -0.0178 -0.0770
12161DOPA   C3B15175  17.956   2.227  13.652 -0.1476 -0.0998  0.0991
12161DOPA   C4B15176  18.271   1.855  13.463  0.3991  0.1081 -0.2397
12162DOPA   PO415177  16.174   7.352  14.243  0.0902  0.1089  0.0469
12162DOPA   GL115178  16.004   7.642  13.965  0.0987 -0.0532  0.2515
12162DOPA   GL215179  15.787   7.759  14.061 -0.0912 -0.0268 -0.0900
12162DOPA   C1A15180  16.048   7.467  13.495  0.0616 -0.0043 -0.0368
12162DOPA   D2A15181  16.137   7.327  13.034 -0.0948 -0.0315  0.2018
12162DOPA   C3A15182  16.076   7.559  12.663 -0.1842 -0.0303  0.0266
12162DOPA   C4A15183  16.002   7.941  12.357  0.4903 -0.2261  0.3218
12162DOPA   C1B15184  15.811   7.901  13.619  0.1578 -0.0843 -0.0502
12162DOPA   D2B15185  15.463   8.086  13.271 -0.0489 -0.0075  0.3106
12162DOPA   C3B15186  15.167   8.170  12.930 -0.3179 -0.3144  0.2605
12162DOPA   C4B15187  14.818   8.497  12.754  0.0194  0.2508  0.0715
12163DOPA   PO415188   3.294   3.785  22.513 -0.0068  0.0246  0.0847
12163DOPA   GL115189   3.340   4.010  22.127  0.1676 -0.1868 -0.0167
12163DOPA   GL215190   3.334   3.713  21.958 -0.0435 -0.0825  0.4831
12163DOPA   C1A15191   3.189   4.358  21.914  0.0978 -0.1487  0.1261
12163DOPA   D2A15192   2.879   4.578  21.560 -0.0932  0.0823 -0.0264
12163DOPA   C3A15193   2.774   5.011  21.491 -0.3219  0.2037 -0.0300
12163DOPA   C4A15194   2.744   5.519  21.419  0.0997  0.0377 -0.1964
12163DOPA   C1B15195   3.128   3.591  21.591 -0.2930 -0.2514  0.0905
12163DOPA   D2B15196   3.105   3.418  21.173  0.2286 -0.0547 -0.3092
12163DOPA   C3B15197   3.150   3.309  20.729 -0.0268  0.1740  0.0726
12163DOPA   C4B15198   3.212   3.179  20.316  0.2546  0.0172 -0.2127
12164DOPA   PO415199  18.421   1.692  15.496 -0.0236  0.1354  0.1109
12164DOPA   GL115200  18.744   1.736  15.200  0.5316  0.0694  0.0011
12164DOPA   GL215201  18.620   1.539  15.068 -0.0835 -0.0129  0.2247
12164DOPA   C1A15202  19.108   1.468  15.275 -0.0262  0.1819 -0.0784
12164DOPA   D2A15203  19.418   1.086  15.172 -0.1881  0.0133 -0.1092
12164DOPA   C3A15204  19.767   1.019  14.869  0.0101  0.3148  0.1798
12164DOPA   C4A15205  20.137   0.865  14.571  0.1000  0.2530  0.1267
12164DOPA   C1B15206  18.746   1.643  14.642 -0.0244 -0.1259  0.2208
12164DOPA   D2B15207  19.137   1.543  14.293 -0.2081 -0.0141  0.0753
12164DOPA   C3B15208  19.042   1.337  13.860  0.0273 -0.1177  0.1351
12164DOPA   C4B15209  18.801   1.102  13.477  0.2269 -0.0333  0.0370
12165DOPA   PO415210   5.655   1.070  22.672  0.1793 -0.0255  0.1795
12165DOPA   GL115211   5.733   0.993  22.286 -0.0597 -0.0306  0.2443
12165DOPA   GL215212   5.730   0.745  22.207 -0.1336 -0.0433 -0.1806
12165DOPA   C1A15213   5.887   1.135  21.979  0.0754 -0.0864  0.0994
12165DOPA   D2A15214   5.847   1.193  21.469  0.0575  0.1272  0.0076
12165DOPA   C3A15215   5.843   1.095  20.999  0.1814  0.1084 -0.1339
12165DOPA   C4A15216   5.761   0.810  20.625 -0.0591  0.1080 -0.0962
12165DOPA   C1B15217   5.541   0.867  21.834  0.0061 -0.0165  0.1422
12165DOPA   D2B15218   5.252   1.061  21.488  0.0224  0.1409 -0.0090
12165DOPA   C3B15219   4.891   1.038  21.193 -0.2603  0.1911 -0.1557
12165DOPA   C4B15220   4.815   0.927  20.710 -0.1035  0.0436  0.0282
12166DOPA   PO415221  12.914   5.557  16.752 -0.1001  0.0868 -0.1554
12166DOPA   GL115222  12.822   5.509  16.357 -0.1932 -0.1433 -0.1784
12166DOPA   GL215223  12.541   5.327  16.526  0.1563  0.0445 -0.0430
12166DOPA   C1A15224  12.462   5.643  16.189 -0.0134 -0.0855  0.0098
12166DOPA   D2A15225  12.009   5.783  16.161  0.2663  0.0505 -0.3929
12166DOPA   C3A15226  11.688   5.936  15.934  0.2521  0.0009  0.0370
12166DOPA   C4A15227  11.298   5.803  15.696  0.2289  0.0110 -0.0477
12166DOPA   C1B15228  12.106   5.381  16.489  0.0610 -0.0894 -0.1179
12166DOPA   D2B15229  11.606   5.319  16.462 -0.0164  0.1664 -0.3076
12166DOPA   C3B15230  11.178   5.389  16.551  0.2620 -0.2250  0.0663
12166DOPA   C4B15231  10.737   5.544  16.684 -0.1557  0.1382  0.1041
12167DOPA   PO415232  14.974   7.265  14.290 -0.0912  0.0066  0.1376
12167DOPA   GL115233  15.021   7.403  13.956  0.1275  0.0101 -0.2547
12167DOPA   GL215234  15.214   7.105  13.956  0.0923 -0.0344 -0.0988
12167DOPA   C1A15235  14.946   7.283  13.590 -0.3978  0.3624 -0.0478
12167DOPA   D2A15236  15.273   7.240  13.173 -0.0785  0.0416  0.2374
12167DOPA   C3A15237  15.274   6.804  12.972  0.0271 -0.0290 -0.2605
12167DOPA   C4A15238  15.401   6.473  12.663 -0.2680 -0.2975  0.2502
12167DOPA   C1B15239  15.525   7.087  13.645  0.0755 -0.0071 -0.0796
12167DOPA   D2B15240  15.768   7.166  13.270  0.1809 -0.0182  0.4188
12167DOPA   C3B15241  15.598   7.303  12.763 -0.0747 -0.1904 -0.3963
12167DOPA   C4B15242  15.585   7.475  12.319 -0.0098  0.0422  0.1169
12168DOPA   PO415243  15.999   5.923  14.364  0.0156 -0.0599  0.0832
12168DOPA   GL115244  15.878   5.756  13.971  0.2429 -0.3305 -0.2662
12168DOPA   GL215245  16.166   5.979  13.971  0.1481 -0.1932 -0.1527
12168DOPA   C1A15246  15.530   5.861  13.708 -0.2317  0.0461 -0.1027
12168DOPA   D2A15247  15.445   5.892  13.221  0.0236 -0.0688 -0.0545
12168DOPA   C3A15248  15.633   5.862  12.765 -0.0090  0.2394 -0.1233
12168DOPA   C4A15249  15.561   6.044  12.352 -0.0949 -0.1656 -0.0812
12168DOPA   C1B15250  15.977   6.017  13.603  0.2177  0.0254  0.1317
12168DOPA   D2B15251  16.061   5.974  13.105 -0.3279 -0.0143  0.0223
12168DOPA   C3B15252  16.252   5.854  12.672  0.1721 -0.4036  0.0967
12168DOPA   C4B15253  16.462   5.884  12.229 -0.1425  0.0979  0.0107
12169DOPA   PO415254  13.168   5.945  15.919 -0.1480  0.0907 -0.1175
12169DOPA   GL115255  12.980   5.871  15.629 -0.1528  0.4494 -0.0515
12169DOPA   GL215256  13.097   5.953  15.391  0.5548 -0.1560 -0.0542
12169DOPA   C1A15257  12.515   5.834  15.641 -0.0134 -0.1156  0.0277
12169DOPA   D2A15258  12.058   5.676  15.678  0.2534  0.1262 -0.0182
12169DOPA   C3A15259  11.712   5.599  15.322  0.0139  0.0156 -0.0036
12169DOPA   C4A15260  11.442   5.492  14.883  0.0709  0.1089  0.0485
12169DOPA   C1B15261  12.751   5.978  15.168 -0.1646  0.1066 -0.3083
12169DOPA   D2B15262  12.425   6.193  14.910  0.0798  0.0388 -0.0092
12169DOPA   C3B15263  12.068   6.019  14.640 -0.3347  0.0372  0.1763
12169DOPA   C4B15264  11.621   5.813  14.591 -0.0693 -0.2813 -0.3357
12170DOPA   PO415265  15.529   3.883  14.208  0.0337  0.0177  0.4035
12170DOPA   GL115266  15.579   3.828  13.844  0.5319 -0.2480 -0.1041
12170DOPA   GL215267  15.828   3.782  13.692  0.0846 -0.2373 -0.2024
12170DOPA   C1A15268  15.425   4.217  13.575 -0.0813 -0.1286 -0.4567
12170DOPA   D2A15269  15.390   4.418  13.097 -0.4129 -0.1235 -0.0026
12170DOPA   C3A15270  15.523   4.781  12.889 -0.2697  0.0334  0.0925
12170DOPA   C4A15271  15.790   5.013  12.557 -0.1543  0.0714 -0.1178
12170DOPA   C1B15272  15.940   3.477  13.432  0.0988 -0.1013  0.5865
12170DOPA   D2B15273  16.032   3.135  13.044  0.1347 -0.1718  0.1772
12170DOPA   C3B15274  16.281   2.938  12.710  0.0043  0.0691  0.0623
12170DOPA   C4B15275  16.503   2.800  12.309 -0.1562 -0.0697  0.1843
12171DOPA   PO415276  19.959   2.851  16.707 -0.0487  0.1677 -0.1910
12171DOPA   GL115277  20.186   2.644  16.402  0.0549 -0.1037 -0.2950
12171DOPA   GL215278  20.327   2.882  16.379 -0.2431 -0.1579  0.0447
12171DOPA   C1A15279  20.583   2.463  16.298  0.4115  0.1093 -0.1569
12171DOPA   D2A15280  20.985   2.376  16.047  0.0792  0.2637 -0.2866
12171DOPA   C3A15281  21.041   2.088  15.689 -0.0301 -0.5031  0.0821
12171DOPA   C4A15282  20.966   1.734  15.318  0.0122 -0.0034 -0.1814
12171DOPA   C1B15283  20.726   2.941  16.298  0.0964 -0.1040 -0.0226
12171DOPA   D2B15284  21.166   3.073  16.116  0.0638  0.0478  0.0517
12171DOPA   C3B15285  21.411   3.147  15.752  0.1431 -0.0901  0.0917
12171DOPA   C4B15286  21.623   3.109  15.328  0.1012  0.0856 -0.0924
12172DOPA   PO415287   2.029   0.187  22.343  0.1696 -0.2263  0.0541
12172DOPA   GL115288   1.955   0.170  21.911  0.0602 -0.1483 -0.0200
12172DOPA   GL215289   2.137   0.313  21.731  0.3864  0.2203  0.3801
12172DOPA   C1A15290   1.894  -0.160  21.672 -0.0825 -0.1970 -0.0470
12172DOPA   D2A15291   1.950  -0.441  21.240  0.0167  0.0370  0.1352
12172DOPA   C3A15292   1.937  -0.435  20.782  0.1730 -0.2026 -0.1980
12172DOPA   C4A15293   2.046  -0.125  20.321 -0.2498 -0.0136  0.2922
12172DOPA   C1B15294   2.075   0.139  21.314  0.1923 -0.1398  0.2110
12172DOPA   D2B15295   2.053   0.043  20.811  0.0178  0.0236  0.2515
12172DOPA   C3B15296   1.745   0.213  20.447 -0.1124 -0.1248 -0.2109
12172DOPA   C4B15297   1.406  -0.009  20.076 -0.0742 -0.0801 -0.0856
12173DOPA   PO415298  23.920   5.283  20.234 -0.1340  0.2040  0.1999
12173DOPA   GL115299  24.118   5.441  19.968 -0.1144 -0.0398  0.0391
12173DOPA   GL215300  24.079   5.189  19.821  0.4075  0.0171  0.0156
12173DOPA   C1A15301  24.198   5.797  19.694 -0.7275 -0.3954  0.1516
12173DOPA   D2A15302  24.458   6.046  19.286 -0.1916  0.1804 -0.2573
12173DOPA   C3A15303  24.759   6.327  19.020  0.1199 -0.0223 -0.1198
12173DOPA   C4A15304  24.987   6.457  18.627  0.1679 -0.0744 -0.0125
12173DOPA   C1B15305  24.427   5.062  19.690 -0.1174  0.2208 -0.2381
12173DOPA   D2B15306  24.707   4.732  19.434 -0.2576  0.0567 -0.1398
12173DOPA   C3B15307  25.108   4.593  19.216 -0.0211 -0.1163 -0.0955
12173DOPA   C4B15308  25.366   4.180  19.124  0.0373  0.1365  0.2155
12174DOPA   PO415309  20.426   2.440  17.146  0.0721  0.1347 -0.0528
12174DOPA   GL115310  20.824   2.504  17.005  0.2600  0.2192  0.0878
12174DOPA   GL215311  20.752   2.567  16.695  0.1902 -0.2399 -0.1150
12174DOPA   C1A15312  21.187   2.319  16.916 -0.2904 -0.4933  0.1865
12174DOPA   D2A15313  21.559   2.161  16.669  0.1193  0.0063  0.1264
12174DOPA   C3A15314  21.992   2.304  16.648  0.1711  0.0487 -0.0975
12174DOPA   C4A15315  22.472   2.365  16.594 -0.0943 -0.0277 -0.1169
12174DOPA   C1B15316  21.118   2.613  16.500 -0.2282  0.0835  0.1749
12174DOPA   D2B15317  21.541   2.562  16.202 -0.4809 -0.1666  0.0771
12174DOPA   C3B15318  21.746   2.341  15.820  0.0753 -0.1691 -0.0393
12174DOPA   C4B15319  21.876   2.219  15.359  0.0497  0.0091  0.0092
12175DOPA   PO415320  10.118   2.058  19.928 -0.0399 -0.0403  0.0655
12175DOPA   GL115321   9.725   2.100  19.767 -0.0372  0.0077  0.2837
12175DOPA   GL215322   9.637   2.023  20.035 -0.0972 -0.1610 -0.1164
12175DOPA   C1A15323   9.348   2.017  19.608  0.0649  0.0027 -0.0197
12175DOPA   D2A15324   8.796   2.145  19.503 -0.2112 -0.0875 -0.1709
12175DOPA   C3A15325   8.345   2.308  19.322 -0.1181 -0.2777  0.0946
12175DOPA   C4A15326   7.875   2.353  19.280  0.2380  0.2714  0.0519
12175DOPA   C1B15327   9.181   1.963  20.110 -0.0925 -0.0728 -0.0417
12175DOPA   D2B15328   8.715   1.843  20.100 -0.0794 -0.4603 -0.1859
12175DOPA   C3B15329   8.297   1.670  20.077  0.1684 -0.1139  0.0876
12175DOPA   C4B15330   8.149   1.215  20.073  0.3633 -0.0929  0.3744
12176DOPA   PO415331  13.369   6.738  15.580 -0.0741 -0.1923  0.3657
12176DOPA   GL115332  13.059   6.579  15.323 -0.0412  0.0129  0.0260
12176DOPA   GL215333  13.203   6.781  15.254 -0.2224  0.3722  0.5197
12176DOPA   C1A15334  12.851   6.441  14.997  0.1022 -0.1495 -0.0770
12176DOPA   D2A15335  12.814   6.505  14.522  0.2167 -0.0838  0.0336
12176DOPA   C3A15336  12.733   6.813  14.123  0.0072  0.1087  0.2551
12176DOPA   C4A15337  12.659   7.231  13.775 -0.1187  0.1963 -0.0437
12176DOPA   C1B15338  12.993   6.874  14.865 -0.1721 -0.2202 -0.2683
12176DOPA   D2B15339  12.749   7.135  14.524 -0.1685  0.4750  0.0629
12176DOPA   C3B15340  12.645   7.576  14.399 -0.1614  0.1245 -0.0745
12176DOPA   C4B15341  12.568   8.111  14.447 -0.0962  0.3037 -0.1966
12177DOPA   PO415342  18.531   5.810  15.309  0.0820 -0.0166  0.1423
12177DOPA   GL115343  18.878   5.862  15.187  0.0478  0.0770  0.0575
12177DOPA   GL215344  19.123   5.646  15.173  0.2587 -0.1317  0.1195
12177DOPA   C1A15345  19.093   6.036  14.856  0.3840 -0.0762 -0.2962
12177DOPA   D2A15346  19.272   6.160  14.426  0.0185  0.2974 -0.3938
12177DOPA   C3A15347  19.645   6.265  14.190 -0.0305 -0.0689 -0.0821
12177DOPA   C4A15348  19.975   6.549  14.093 -0.2324 -0.2612 -0.2929
12177DOPA   C1B15349  19.553   5.765  15.017  0.1455  0.1420  0.4408
12177DOPA   D2B15350  19.990   5.595  14.792  0.0098  0.1829  0.0183
12177DOPA   C3B15351  20.134   5.169  14.501  0.2224 -0.4786  0.0402
12177DOPA   C4B15352  20.486   4.824  14.423  0.0884 -0.0236 -0.0365
12178DOPA   PO415353  12.788   3.066  16.865  0.1381  0.3773  0.1821
12178DOPA   GL115354  12.519   3.048  16.424  0.0284  0.0272 -0.1688
12178DOPA   GL215355  12.373   2.887  16.676  0.1175  0.0235 -0.2006
12178DOPA   C1A15356  12.440   3.044  16.015 -0.0156 -0.0900  0.4507
12178DOPA   D2A15357  12.264   2.967  15.548 -0.4170  0.0773 -0.0982
12178DOPA   C3A15358  12.366   2.889  15.132 -0.1858  0.0373  0.0706
12178DOPA   C4A15359  12.451   2.568  14.757 -0.0290 -0.0388  0.1386
12178DOPA   C1B15360  12.089   2.858  16.360 -0.0211 -0.1803  0.1006
12178DOPA   D2B15361  11.675   2.787  16.115 -0.0346 -0.3574  0.2081
12178DOPA   C3B15362  11.273   2.942  15.982 -0.0935  0.0252  0.0931
12178DOPA   C4B15363  11.129   3.181  15.625  0.0717 -0.0973 -0.1921
12179DOPA   PO415364  11.736   2.834  18.270 -0.0714 -0.2494  0.2188
12179DOPA   GL115365  11.511   3.074  17.895  0.2929 -0.2492 -0.0978
12179DOPA   GL215366  11.420   2.857  17.968  0.1381  0.5328  0.1189
12179DOPA   C1A15367  11.173   3.210  17.648 -0.0584 -0.1325  0.0880
12179DOPA   D2A15368  10.760   3.503  17.479 -0.0787  0.0532 -0.1174
12179DOPA   C3A15369  10.439   3.274  17.336  0.3961 -0.0121  0.2679
12179DOPA   C4A15370  10.042   3.283  17.116 -0.0398 -0.0641  0.2121
12179DOPA   C1B15371  11.071   2.651  17.850  0.0614  0.2157 -0.3698
12179DOPA   D2B15372  10.682   2.476  17.624 -0.2259  0.1062 -0.0419
12179DOPA   C3B15373  10.608   2.381  17.148  0.0750 -0.0122 -0.0312
12179DOPA   C4B15374  10.367   2.363  16.678  0.0751 -0.2328 -0.2745
12180DOPA   PO415375   9.841   0.657  19.825 -0.1135 -0.0156  0.2799
12180DOPA   GL115376   9.602   0.652  19.514 -0.2299 -0.3344  0.1250
12180DOPA   GL215377   9.450   0.372  19.632  0.0225 -0.3273  0.0539
12180DOPA   C1A15378   9.450   0.863  19.169  0.0722  0.1243  0.2675
12180DOPA   D2A15379   9.026   1.124  19.130 -0.1587  0.1042  0.0708
12180DOPA   C3A15380   8.777   1.191  19.493  0.2926  0.1642  0.0221
12180DOPA   C4A15381   8.616   1.316  19.926  0.1339  0.1585  0.0448
12180DOPA   C1B15382   9.117   0.637  19.590 -0.4585  0.2250  0.1909
12180DOPA   D2B15383   8.777   0.633  19.284  0.2083 -0.3266  0.1189
12180DOPA   C3B15384   8.529   1.010  19.132 -0.0911  0.0083 -0.1653
12180DOPA   C4B15385   8.057   1.271  19.113  0.0249  0.2572 -0.0678
12181DOPA   PO415386  15.777   0.858  14.352  0.1577 -0.0812  0.0408
12181DOPA   GL115387  15.591   0.838  14.012  0.0361 -0.3400 -0.3145
12181DOPA   GL215388  15.875   0.887  13.900  0.1639  0.0596 -0.0424
12181DOPA   C1A15389  15.319   0.963  13.755 -0.2598  0.0339 -0.0979
12181DOPA   D2A15390  15.359   1.123  13.291 -0.1366 -0.0976  0.1487
12181DOPA   C3A15391  15.241   1.105  12.852 -0.0225  0.3716  0.1420
12181DOPA   C4A15392  15.086   1.024  12.415  0.1779  0.0486 -0.0943
12181DOPA   C1B15393  16.124   0.902  13.552  0.0304  0.0659 -0.0594
12181DOPA   D2B15394  16.588   1.062  13.377 -0.0474  0.1867 -0.0686
12181DOPA   C3B15395  16.247   1.202  13.104  0.0140 -0.0897 -0.1527
12181DOPA   C4B15396  15.954   1.215  12.718 -0.0255  0.1975  0.2574
12182DOPA   PO415397  22.558   3.080  19.587  0.0599  0.0009  0.1885
12182DOPA   GL115398  22.731   2.946  19.248  0.1867 -0.1453 -0.3297
12182DOPA   GL215399  22.459   2.921  19.076 -0.1799 -0.1527 -0.2427
12182DOPA   C1A15400  22.863   3.246  18.935  0.2014  0.2074  0.1262
12182DOPA   D2A15401  23.035   3.288  18.470  0.1217  0.0052  0.0607
12182DOPA   C3A15402  23.090   3.092  17.985  0.3157  0.0112  0.1020
12182DOPA   C4A15403  23.346   2.867  17.708  0.0779 -0.1604 -0.0535
12182DOPA   C1B15404  22.593   2.829  18.692 -0.0441  0.2122 -0.3890
12182DOPA   D2B15405  22.719   2.914  18.259  0.0421 -0.1874  0.1651
12182DOPA   C3B15406  22.457   3.242  18.066 -0.1500  0.0940 -0.0788
12182DOPA   C4B15407  22.242   3.617  17.813 -0.3172  0.1766 -0.2827
12183DOPC   NC315408   0.650   4.979  16.341 -0.0068 -0.2039  0.3147
12183DOPC   PO415409   0.288   4.793  16.251 -0.1514 -0.0870 -0.1175
12183DOPC   GL115410   0.073   4.782  16.518  0.0625 -0.2613 -0.2017
12183DOPC   GL215411   0.054   4.486  16.577  0.0510  0.0323 -0.1068
12183DOPC   C1A15412  -0.343   4.964  16.567  0.2620  0.1254  0.0675
12183DOPC   D2A15413  -0.700   5.250  16.594  0.1330 -0.2813 -0.2197
12183DOPC   C3A15414  -0.965   5.518  16.822 -0.0510 -0.0236 -0.0429
12183DOPC   C4A15415  -0.808   5.846  17.184 -0.2714  0.1177 -0.1326
12183DOPC   C1B15416  -0.362   4.408  16.622  0.0323 -0.2515  0.0347
12183DOPC   D2B15417  -0.809   4.236  16.732  0.0226  0.1862  0.1257
12183DOPC   C3B15418  -0.836   4.508  17.102  0.0526 -0.0220  0.0460
12183DOPC   C4B15419  -0.949   4.819  17.563 -0.0823  0.3763  0.1568
12184DOPC   NC315420   8.449   3.527  14.464  0.3333  0.4112  0.2748
12184DOPC   PO415421   8.654   3.705  14.690  0.0798 -0.0573  0.0619
12184DOPC   GL115422   8.804   3.603  15.070 -0.0910 -0.0261 -0.1546
12184DOPC   GL215423   8.773   3.873  15.140  0.0152 -0.5418  0.0696
12184DOPC   C1A15424   9.101   3.637  15.440  0.0386 -0.4424  0.1940
12184DOPC   D2A15425   9.436   3.643  15.855 -0.1009  0.0446  0.1052
12184DOPC   C3A15426   9.710   3.509  16.148  0.0146  0.2093  0.0863
12184DOPC   C4A15427   9.800   3.345  16.583  0.2671  0.0768 -0.4013
12184DOPC   C1B15428   9.193   4.126  15.392 -0.0534 -0.0312  0.1951
12184DOPC   D2B15429   9.618   4.215  15.709 -0.0384  0.2320  0.1714
12184DOPC   C3B15430  10.004   4.166  15.922  0.1228  0.0184 -0.1835
12184DOPC   C4B15431  10.438   4.302  16.233  0.0716  0.0947 -0.0238
12185DOPC   NC315432  15.010   3.159  10.410 -0.3376 -0.1034  0.3229
12185DOPC   PO415433  14.707   2.934  10.514  0.1526 -0.1168 -0.0216
12185DOPC   GL115434  14.448   3.133  10.751  0.0900  0.0720  0.1469
12185DOPC   GL215435  14.252   2.870  10.730  0.0977 -0.1384 -0.0510
12185DOPC   C1A15436  14.712   3.146  11.137  0.0229 -0.3084  0.4575
12185DOPC   D2A15437  14.927   3.345  11.554 -0.0417 -0.1192 -0.0081
12185DOPC   C3A15438  14.942   3.331  12.018 -0.3194 -0.0677 -0.1896
12185DOPC   C4A15439  14.857   3.421  12.547 -0.2340  0.1369 -0.0453
12185DOPC   C1B15440  14.168   2.837  11.125 -0.0159  0.1094 -0.0692
12185DOPC   D2B15441  14.135   3.012  11.593 -0.1716  0.0468 -0.2134
12185DOPC   C3B15442  14.315   2.935  12.015 -0.0293 -0.1551 -0.0384
12185DOPC   C4B15443  14.642   3.038  12.336 -0.0260  0.0131 -0.1508
12186DOPC   NC315444   6.840   1.974  17.902  0.2571 -0.0593 -0.4768
12186DOPC   PO415445   7.008   2.243  17.651 -0.1492 -0.1275  0.0984
12186DOPC   GL115446   7.205   2.477  17.878  0.0131  0.1788  0.0974
12186DOPC   GL215447   7.192   2.200  18.074  0.0264  0.1379 -0.1815
12186DOPC   C1A15448   7.455   2.837  17.938  0.0882 -0.1121 -0.2167
12186DOPC   D2A15449   7.702   3.279  18.100  0.0671 -0.0914 -0.0360
12186DOPC   C3A15450   8.125   3.263  18.382 -0.1107 -0.0197  0.2644
12186DOPC   C4A15451   8.594   3.226  18.621  0.0727 -0.3046  0.1492
12186DOPC   C1B15452   7.442   2.128  18.421 -0.0920 -0.1661  0.2019
12186DOPC   D2B15453   7.714   2.214  18.805 -0.0941  0.0810  0.1721
12186DOPC   C3B15454   7.991   2.573  18.804  0.0380  0.0744 -0.3067
12186DOPC   C4B15455   7.917   3.063  18.729  0.1148 -0.1122  0.0280
12187DOPC   NC315456   7.555   2.571  15.814 -0.0421 -0.0826 -0.1497
12187DOPC   PO415457   7.634   2.885  16.040 -0.1967 -0.3117  0.0779
12187DOPC   GL115458   7.981   2.927  16.362  0.2557  0.1346  0.0368
12187DOPC   GL215459   7.816   3.160  16.426  0.2971 -0.5232  0.1876
12187DOPC   C1A15460   8.136   2.588  16.660  0.3672 -0.4532  0.1377
12187DOPC   D2A15461   8.438   2.336  16.940 -0.0802  0.1179 -0.0682
12187DOPC   C3A15462   8.840   2.211  17.112  0.2515 -0.0166 -0.1729
12187DOPC   C4A15463   9.183   2.022  17.417 -0.0140  0.0179 -0.0267
12187DOPC   C1B15464   8.007   3.227  16.830 -0.1311  0.1084 -0.2152
12187DOPC   D2B15465   8.488   3.061  16.966  0.2535 -0.0938  0.0765
12187DOPC   C3B15466   8.733   2.772  17.227  0.2368  0.0524 -0.0504
12187DOPC   C4B15467   9.021   2.482  17.472 -0.2707 -0.0025  0.2464
12188DOPC   NC315468   4.818   2.379  18.590 -0.1238 -0.4997 -0.0248
12188DOPC   PO415469   5.063   2.624  18.779 -0.0937  0.1809 -0.0244
12188DOPC   GL115470   5.086   2.766  19.139  0.3422  0.2399 -0.3390
12188DOPC   GL215471   4.814   2.991  19.163  0.1489 -0.0830 -0.0701
12188DOPC   C1A15472   5.499   2.749  19.333 -0.1264 -0.1768  0.1036
12188DOPC   D2A15473   5.659   2.646  19.822 -0.2113 -0.1407  0.0255
12188DOPC   C3A15474   5.750   2.521  20.303 -0.0757 -0.0757  0.0062
12188DOPC   C4A15475   5.861   2.426  20.731 -0.1629 -0.0157  0.0334
12188DOPC   C1B15476   4.689   3.324  19.379  0.0461  0.1968 -0.2009
12188DOPC   D2B15477   4.674   3.602  19.695  0.0531 -0.0817 -0.2133
12188DOPC   C3B15478   4.317   3.749  19.992  0.0399 -0.1105  0.2157
12188DOPC   C4B15479   3.842   3.697  20.043 -0.0943  0.1618  0.1725
12189DOPC   NC315480   0.404   3.296  16.235 -0.0331 -0.0020  0.0475
12189DOPC   PO415481   0.034   3.358  16.128  0.2400  0.1690 -0.0903
12189DOPC   GL115482  -0.279   3.565  16.317 -0.3539  0.0398  0.1344
12189DOPC   GL215483  -0.131   3.473  16.546  0.1763  0.2379 -0.1660
12189DOPC   C1A15484  -0.616   3.643  16.494  0.0942  0.1375  0.3011
12189DOPC   D2A15485  -1.038   3.699  16.755 -0.3452 -0.0213 -0.1853
12189DOPC   C3A15486  -1.477   3.641  16.964 -0.0795 -0.1680  0.0623
12189DOPC   C4A15487  -1.816   3.715  17.340 -0.2420  0.0010 -0.0054
12189DOPC   C1B15488  -0.376   3.377  16.848  0.0434  0.3124  0.0959
12189DOPC   D2B15489  -0.565   3.567  17.225  0.0002  0.2273 -0.0368
12189DOPC   C3B15490  -0.762   3.523  17.661 -0.2449 -0.3830  0.0102
12189DOPC   C4B15491  -0.955   3.508  18.082  0.3305  0.0601 -0.0668
12190DOPC   NC315492  21.752   3.326  12.482  0.0634  0.2098  0.3092
12190DOPC   PO415493  21.731   3.595  12.788  0.5298  0.0227 -0.0899
12190DOPC   GL115494  21.461   3.924  12.947  0.0649 -0.2530 -0.3315
12190DOPC   GL215495  21.301   3.622  13.033 -0.0039  0.1076 -0.0665
12190DOPC   C1A15496  21.365   4.158  13.307 -0.0666  0.0094  0.1908
12190DOPC   D2A15497  21.352   4.336  13.758  0.0826 -0.0590 -0.0416
12190DOPC   C3A15498  20.972   4.370  14.042  0.2710 -0.1980  0.4768
12190DOPC   C4A15499  20.597   4.301  14.255 -0.0333 -0.2135  0.1779
12190DOPC   C1B15500  20.896   3.552  13.154 -0.0143 -0.0292  0.1893
12190DOPC   D2B15501  20.727   3.496  13.579 -0.1592 -0.0817  0.0968
12190DOPC   C3B15502  20.794   3.278  14.023 -0.2678  0.0370  0.0663
12190DOPC   C4B15503  20.818   2.908  14.261 -0.1747 -0.2491  0.0205
12191DOPC   NC315504  12.721   3.676  11.128 -0.3222  0.0648  0.3279
12191DOPC   PO415505  12.795   3.996  10.845 -0.2156 -0.0762  0.1313
12191DOPC   GL115506  13.049   3.997  11.098 -0.0691  0.2086 -0.0968
12191DOPC   GL215507  13.308   4.014  10.957  0.0560  0.2105  0.3079
12191DOPC   C1A15508  13.258   3.853  11.432 -0.1971 -0.2860 -0.1555
12191DOPC   D2A15509  13.401   4.166  11.784 -0.0652  0.3742 -0.1709
12191DOPC   C3A15510  13.282   4.643  11.882 -0.0339 -0.1519  0.1828
12191DOPC   C4A15511  13.066   5.006  11.657  0.1218 -0.0739 -0.1531
12191DOPC   C1B15512  13.683   3.704  11.089  0.1353 -0.1352  0.4517
12191DOPC   D2B15513  14.150   3.815  11.083  0.4270  0.0714  0.4825
12191DOPC   C3B15514  14.439   3.786  11.427  0.1612  0.0103 -0.0951
12191DOPC   C4B15515  14.704   3.786  11.833  0.0581 -0.0149 -0.1814
12192DOPC   NC315516  24.635   7.797  15.392 -0.1712  0.2363 -0.2732
12192DOPC   PO415517  24.905   7.986  15.608 -0.0036  0.0419 -0.1825
12192DOPC   GL115518  24.702   8.025  15.940 -0.1395 -0.2382  0.2302
12192DOPC   GL215519  24.494   8.282  15.866  0.1267  0.2989  0.0980
12192DOPC   C1A15520  24.520   7.686  16.139 -0.2403 -0.0571 -0.1362
12192DOPC   D2A15521  24.104   7.455  16.296 -0.1584 -0.0968 -0.0134
12192DOPC   C3A15522  23.928   7.531  16.715 -0.2708  0.0435  0.1322
12192DOPC   C4A15523  23.823   7.676  17.197  0.3399 -0.1090 -0.1806
12192DOPC   C1B15524  24.339   8.105  16.180 -0.1381 -0.1204 -0.2478
12192DOPC   D2B15525  24.131   7.957  16.629 -0.1137 -0.1161  0.2560
12192DOPC   C3B15526  23.657   8.070  16.853 -0.2088 -0.1929  0.3152
12192DOPC   C4B15527  23.629   8.514  17.044  0.0956 -0.2345 -0.0418
12193DOPC   NC315528  23.179   7.589  13.462 -0.4659 -0.1118 -0.0411
12193DOPC   PO415529  22.905   7.733  13.657 -0.0489  0.0291 -0.1277
12193DOPC   GL115530  22.870   7.705  14.160  0.4646  0.0210  0.3808
12193DOPC   GL215531  22.659   7.935  14.084 -0.1752  0.0979 -0.0924
12193DOPC   C1A15532  22.638   7.624  14.595 -0.1616  0.0948 -0.1696
12193DOPC   D2A15533  22.421   7.704  15.000  0.2795 -0.1203 -0.0498
12193DOPC   C3A15534  22.152   7.457  15.187  0.0816  0.0830  0.0506
12193DOPC   C4A15535  21.694   7.403  15.411 -0.2732  0.0493  0.0561
12193DOPC   C1B15536  22.437   8.109  14.456 -0.1531  0.1626  0.0607
12193DOPC   D2B15537  22.451   8.245  14.948  0.0394  0.1868  0.1205
12193DOPC   C3B15538  22.097   8.021  15.217 -0.1301 -0.0932 -0.3058
12193DOPC   C4B15539  21.710   8.092  15.539 -0.0909 -0.2036  0.0351
12194DOPC   NC315540  12.433   6.876  11.222  0.0921 -0.1280  0.0798
12194DOPC   PO415541  12.440   6.501  11.106  0.1010 -0.2543  0.0675
12194DOPC   GL115542  12.712   6.358  11.454 -0.0352  0.2293 -0.0289
12194DOPC   GL215543  12.900   6.602  11.404 -0.0434 -0.1121 -0.0193
12194DOPC   C1A15544  12.806   6.377  11.909 -0.0310 -0.1744 -0.1872
12194DOPC   D2A15545  12.551   6.201  12.263 -0.1597  0.2066  0.0171
12194DOPC   C3A15546  12.679   6.557  12.513  0.1775  0.1750  0.0906
12194DOPC   C4A15547  12.871   6.985  12.746  0.3090 -0.0088  0.0925
12194DOPC   C1B15548  13.345   6.413  11.501  0.1008 -0.0483 -0.1085
12194DOPC   D2B15549  13.822   6.215  11.630  0.0799  0.1030 -0.4016
12194DOPC   C3B15550  13.753   5.785  11.750  0.3496 -0.2611  0.2769
12194DOPC   C4B15551  13.918   5.426  12.075 -0.3928  0.1659 -0.1973
12195DOPC   NC315552  22.063   0.107  13.430  0.3877  0.0529  0.0235
12195DOPC   PO415553  22.260   0.090  13.798  0.2253  0.0088  0.0628
12195DOPC   GL115554  22.091   0.230  14.165  0.0045  0.0196 -0.1127
12195DOPC   GL215555  21.799   0.203  13.919  0.1525  0.2466  0.0319
12195DOPC   C1A15556  21.732   0.217  14.420 -0.0999  0.1710 -0.3791
12195DOPC   D2A15557  21.441   0.113  14.722  0.2757  0.1743 -0.0540
12195DOPC   C3A15558  20.998   0.282  14.712  0.3996  0.2599 -0.2894
12195DOPC   C4A15559  20.602   0.580  14.769 -0.0200  0.0686  0.0232
12195DOPC   C1B15560  21.400   0.045  14.113 -0.0160 -0.0828  0.1107
12195DOPC   D2B15561  20.885   0.119  14.230 -0.2710 -0.0229  0.2834
12195DOPC   C3B15562  20.705  -0.296  14.338  0.1040 -0.2250  0.0998
12195DOPC   C4B15563  20.360  -0.524  14.551 -0.0408 -0.0667 -0.1102
12196DOPC   NC315564   4.362   6.464  18.528 -0.1596 -0.1775 -0.1164
12196DOPC   PO415565   4.628   6.762  18.555  0.2564  0.2038 -0.0256
12196DOPC   GL115566   4.647   7.008  18.968  0.1994  0.4605  0.3139
12196DOPC   GL215567   4.400   7.092  18.960 -0.3947 -0.1021 -0.1182
12196DOPC   C1A15568   4.815   6.832  19.359 -0.0747  0.0582  0.0274
12196DOPC   D2A15569   5.233   6.942  19.650 -0.0247 -0.2915  0.3725
12196DOPC   C3A15570   5.487   6.873  19.996 -0.1137  0.0491 -0.0987
12196DOPC   C4A15571   5.871   6.826  20.236 -0.0207 -0.0034  0.0040
12196DOPC   C1B15572   4.203   7.164  19.369  0.0678  0.1258 -0.0737
12196DOPC   D2B15573   3.793   7.264  19.681 -0.2662 -0.0382 -0.0733
12196DOPC   C3B15574   3.648   6.916  19.949  0.0569  0.1756 -0.0486
12196DOPC   C4B15575   3.444   6.436  20.113  0.0409 -0.0194  0.3424
12197DOPC   NC315576  16.419   7.481  10.314 -0.1715  0.0188  0.0747
12197DOPC   PO415577  16.290   7.128  10.216 -0.1085 -0.0221 -0.0211
12197DOPC   GL115578  16.285   6.842  10.518 -0.0376 -0.4088 -0.0207
12197DOPC   GL215579  16.345   7.045  10.736 -0.1056  0.1405  0.4153
12197DOPC   C1A15580  15.884   6.739  10.669 -0.0303 -0.1393 -0.2207
12197DOPC   D2A15581  15.888   6.597  11.176  0.0716  0.0744 -0.3348
12197DOPC   C3A15582  15.843   6.535  11.627  0.0741  0.0623 -0.2031
12197DOPC   C4A15583  15.847   6.492  12.117 -0.1194 -0.1033  0.0825
12197DOPC   C1B15584  16.094   7.088  11.156  0.1575 -0.0776 -0.0466
12197DOPC   D2B15585  15.697   6.987  11.442  0.0610 -0.4111 -0.0091
12197DOPC   C3B15586  15.361   6.736  11.453 -0.0366 -0.1599 -0.0063
12197DOPC   C4B15587  14.848   6.610  11.491  0.2762 -0.3216 -0.3298
12198DOPC   NC315588   3.610   6.762  18.682  0.3707  0.0313 -0.1542
12198DOPC   PO415589   3.359   6.907  18.415  0.2348  0.4418  0.0856
12198DOPC   GL115590   2.910   6.928  18.575 -0.1967 -0.3553 -0.0317
12198DOPC   GL215591   3.089   6.764  18.746 -0.1020  0.0921 -0.5892
12198DOPC   C1A15592   2.658   7.263  18.822  0.3943 -0.0530 -0.0761
12198DOPC   D2A15593   2.503   7.620  19.075 -0.2995  0.0273 -0.0412
12198DOPC   C3A15594   2.582   7.886  19.460  0.0655  0.1792 -0.0967
12198DOPC   C4A15595   2.834   8.104  19.854 -0.0888 -0.0547  0.0562
12198DOPC   C1B15596   2.890   6.585  19.066 -0.0691  0.0137  0.0569
12198DOPC   D2B15597   3.004   6.216  19.250 -0.0501 -0.0817  0.1970
12198DOPC   C3B15598   3.333   6.136  19.585 -0.0825 -0.1944  0.1174
12198DOPC   C4B15599   3.375   5.962  20.061  0.1463  0.1150 -0.0156
12199DOPC   NC315600  21.410   0.589  13.071  0.0835  0.0460  0.2003
12199DOPC   PO415601  21.290   0.605  12.669  0.2457  0.0066 -0.2295
12199DOPC   GL115602  20.955   0.464  12.720 -0.0513 -0.0427 -0.1239
12199DOPC   GL215603  20.870   0.221  12.677  0.2214  0.2556  0.0394
12199DOPC   C1A15604  20.723   0.556  13.052  0.1283  0.1915  0.3865
12199DOPC   D2A15605  20.577   0.554  13.505 -0.0091 -0.2556 -0.0828
12199DOPC   C3A15606  20.502   0.360  13.928 -0.2011 -0.2322  0.3241
12199DOPC   C4A15607  20.256   0.333  14.353 -0.0438 -0.0430 -0.0023
12199DOPC   C1B15608  20.608  -0.120  12.845  0.1012 -0.0289  0.3686
12199DOPC   D2B15609  20.670  -0.590  12.861  0.0029 -0.0675  0.1372
12199DOPC   C3B15610  20.412  -0.930  13.107  0.3486  0.1101  0.0039
12199DOPC   C4B15611  19.941  -1.084  13.209 -0.1740 -0.1543 -0.0704
12200DOPC   NC315612  23.820   1.077  14.404 -0.0726  0.1453  0.2631
12200DOPC   PO415613  23.618   1.413  14.499 -0.1998  0.0335 -0.0091
12200DOPC   GL115614  23.599   1.394  14.859 -0.3379 -0.0576 -0.5262
12200DOPC   GL215615  23.592   1.641  14.940  0.2549  0.0327  0.2628
12200DOPC   C1A15616  23.257   1.213  15.111 -0.0802  0.0620  0.0618
12200DOPC   D2A15617  22.900   1.185  15.400 -0.3711 -0.0660 -0.3061
12200DOPC   C3A15618  22.661   1.038  15.770 -0.2954  0.2986 -0.1306
12200DOPC   C4A15619  22.263   0.908  15.963 -0.0088  0.0038  0.1075
12200DOPC   C1B15620  23.693   1.803  15.344 -0.1040  0.3110 -0.0888
12200DOPC   D2B15621  23.629   1.973  15.761  0.1165 -0.3467 -0.0389
12200DOPC   C3B15622  23.472   2.104  16.223  0.0071 -0.1384 -0.0671
12200DOPC   C4B15623  23.084   2.149  16.498 -0.1419  0.1744 -0.1198
12201DOPC   NC315624  10.147   7.101  13.479 -0.1265  0.2299  0.0792
12201DOPC   PO415625   9.871   7.273  13.767  0.0220 -0.0589 -0.1406
12201DOPC   GL115626  10.179   7.160  14.030 -0.1073  0.2362 -0.4404
12201DOPC   GL215627  10.316   6.957  13.895  0.0929  0.0965 -0.1235
12201DOPC   C1A15628  10.444   7.204  14.497 -0.2889  0.0127  0.1266
12201DOPC   D2A15629  10.671   7.317  14.847 -0.0742  0.0625 -0.0457
12201DOPC   C3A15630  10.941   7.622  15.078 -0.0388 -0.2657 -0.0530
12201DOPC   C4A15631  11.220   7.951  15.308  0.3589 -0.0706 -0.0042
12201DOPC   C1B15632  10.400   6.499  13.886  0.0956 -0.2906  0.2790
12201DOPC   D2B15633  10.685   6.158  13.635  0.1562 -0.2875 -0.3886
12201DOPC   C3B15634  11.147   6.184  13.762 -0.2880  0.0411 -0.0695
12201DOPC   C4B15635  11.492   6.523  13.967  0.2612  0.0753  0.1161
12202DOPC   NC315636   9.624   4.479  13.437 -0.0053  0.0029 -0.0611
12202DOPC   PO415637   9.855   4.735  13.596 -0.1748  0.1306 -0.1687
12202DOPC   GL115638  10.246   4.870  13.763  0.0075 -0.3597  0.1339
12202DOPC   GL215639  10.153   4.835  14.054 -0.4748 -0.1949  0.0106
12202DOPC   C1A15640  10.554   5.081  13.869  0.2613 -0.1805  0.0035
12202DOPC   D2A15641  10.969   5.092  13.983  0.0649 -0.0912 -0.4398
12202DOPC   C3A15642  11.357   4.947  14.279  0.2028  0.1311 -0.0328
12202DOPC   C4A15643  11.754   4.734  14.489  0.3189  0.2625 -0.1875
12202DOPC   C1B15644  10.462   4.868  14.308  0.1054 -0.2528 -0.3436
12202DOPC   D2B15645  10.815   5.149  14.585  0.1848  0.0360 -0.2370
12202DOPC   C3B15646  10.938   5.546  14.836 -0.1616 -0.0373  0.0076
12202DOPC   C4B15647  11.314   5.876  15.139  0.2203  0.0621  0.1327
12203DOPC   NC315648   8.487   6.038  15.391  0.2218  0.2388  0.0035
12203DOPC   PO415649   8.702   6.346  15.315 -0.1772  0.0282 -0.0305
12203DOPC   GL115650   9.048   6.391  15.500 -0.0105 -0.1558 -0.3386
12203DOPC   GL215651   9.021   6.318  15.789  0.1621  0.1112  0.1846
12203DOPC   C1A15652   9.430   6.177  15.531 -0.1057 -0.0718 -0.1051
12203DOPC   D2A15653   9.749   5.846  15.705  0.1001 -0.0680 -0.3421
12203DOPC   C3A15654  10.024   6.007  16.029 -0.2685  0.0172 -0.0036
12203DOPC   C4A15655  10.091   6.222  16.478  0.1367  0.1919 -0.0256
12203DOPC   C1B15656   9.415   6.259  16.019  0.1436 -0.1371  0.1489
12203DOPC   D2B15657   9.623   5.827  16.210 -0.0338 -0.4073 -0.1144
12203DOPC   C3B15658   9.907   5.749  16.540 -0.1465  0.1179  0.1880
12203DOPC   C4B15659  10.317   5.909  16.805 -0.1964 -0.0914  0.0559
12204DOPC   NC315660  17.928   7.569  10.504 -0.1150 -0.1064  0.1034
12204DOPC   PO415661  17.582   7.351  10.431  0.0454  0.1668 -0.3369
12204DOPC   GL115662  17.491   7.493  10.855 -0.0469  0.1803  0.0551
12204DOPC   GL215663  17.564   7.150  10.951 -0.2402 -0.0810  0.1726
12204DOPC   C1A15664  17.204   7.737  11.060  0.2495  0.1196  0.1061
12204DOPC   D2A15665  16.915   7.954  11.372 -0.0877  0.2018 -0.0361
12204DOPC   C3A15666  16.712   7.898  11.787 -0.1696 -0.1139  0.0582
12204DOPC   C4A15667  16.509   7.718  12.191  0.3581  0.0258  0.3484
12204DOPC   C1B15668  17.507   7.441  11.272 -0.1782 -0.0080  0.0041
12204DOPC   D2B15669  17.396   7.812  11.536 -0.0629 -0.1760 -0.2180
12204DOPC   C3B15670  17.245   7.946  11.980  0.1864  0.0867 -0.0376
12204DOPC   C4B15671  17.021   7.979  12.415 -0.0521  0.0133 -0.0106
12205DOPC   NC315672  13.266   4.509  10.795  0.0797 -0.0239 -0.0396
12205DOPC   PO415673  13.242   4.863  10.631 -0.0123  0.3359 -0.0698
12205DOPC   GL115674  13.597   4.919  10.794  0.0418  0.0034 -0.2174
12205DOPC   GL215675  13.608   5.174  10.915 -0.0722  0.0876  0.2892
12205DOPC   C1A15676  13.696   4.722  11.145 -0.1168 -0.1145  0.0553
12205DOPC   D2A15677  13.731   4.513  11.611 -0.3197  0.1876  0.0646
12205DOPC   C3A15678  14.000   4.319  11.890 -0.1283  0.2331  0.0628
12205DOPC   C4A15679  14.142   4.429  12.356 -0.0792 -0.2811  0.1091
12205DOPC   C1B15680  13.594   5.195  11.408 -0.2400  0.0142 -0.1138
12205DOPC   D2B15681  13.725   5.014  11.827  0.0743  0.0706  0.4009
12205DOPC   C3B15682  13.728   4.623  12.116 -0.2323 -0.0443 -0.1365
12205DOPC   C4B15683  13.711   4.168  12.354  0.0454  0.1959  0.0580
12206DOPC   NC315684   5.871   4.185  18.102  0.0136 -0.0475  0.1418
12206DOPC   PO415685   5.564   4.372  18.239  0.0578 -0.0505  0.1884
12206DOPC   GL115686   5.589   4.225  18.579  0.3605 -0.1139 -0.3152
12206DOPC   GL215687   5.965   4.382  18.535 -0.4969 -0.1778 -0.2238
12206DOPC   C1A15688   5.862   4.141  18.950 -0.0388 -0.0906  0.1535
12206DOPC   D2A15689   6.143   4.129  19.296 -0.2514  0.0635  0.1336
12206DOPC   C3A15690   6.360   3.986  19.625 -0.1715  0.4332 -0.1728
12206DOPC   C4A15691   6.469   3.746  20.061  0.3725  0.0475 -0.1177
12206DOPC   C1B15692   6.156   4.528  18.908  0.3152 -0.0378 -0.0761
12206DOPC   D2B15693   6.504   4.424  19.210  0.1122  0.0093  0.1921
12206DOPC   C3B15694   6.882   4.520  19.471 -0.2904 -0.0741 -0.4156
12206DOPC   C4B15695   7.163   4.382  19.808 -0.0272  0.3051 -0.0532
12207DOPC   NC315696   1.936   6.716  16.681  0.1165  0.6672  0.2585
12207DOPC   PO415697   1.709   6.825  16.944 -0.1268  0.1157 -0.1206
12207DOPC   GL115698   1.292   6.834  17.093  0.2470  0.0278 -0.2657
12207DOPC   GL215699   1.326   6.952  17.302  0.1474 -0.1611 -0.0210
12207DOPC   C1A15700   0.970   6.620  17.278 -0.2980 -0.0594  0.0444
12207DOPC   D2A15701   0.727   6.318  17.567 -0.1885  0.4427  0.2244
12207DOPC   C3A15702   0.350   6.051  17.825 -0.0281 -0.0264  0.1076
12207DOPC   C4A15703  -0.117   6.187  17.815 -0.0395 -0.2168 -0.0368
12207DOPC   C1B15704   0.966   7.023  17.592 -0.3634 -0.0104  0.3816
12207DOPC   D2B15705   0.582   7.161  17.819  0.2547 -0.0653  0.0104
12207DOPC   C3B15706   0.424   6.985  18.239 -0.1192  0.1325 -0.0987
12207DOPC   C4B15707   0.372   6.790  18.628  0.0433 -0.1069  0.1041
12208DOPC   NC315708   0.358   4.261  16.178  0.0412  0.2680 -0.2997
12208DOPC   PO415709   0.112   4.054  15.936 -0.1385 -0.2511  0.0922
12208DOPC   GL115710  -0.093   4.131  16.253  0.2087 -0.3444 -0.2484
12208DOPC   GL215711  -0.127   3.972  16.474 -0.0333 -0.2802  0.2344
12208DOPC   C1A15712  -0.593   4.162  16.202  0.1782 -0.4001  0.1674
12208DOPC   D2A15713  -1.006   4.383  16.300  0.2105  0.1414 -0.2431
12208DOPC   C3A15714  -1.317   4.481  16.608  0.1824 -0.1361 -0.2338
12208DOPC   C4A15715  -1.599   4.830  16.867  0.1700  0.1281  0.2801
12208DOPC   C1B15716  -0.319   3.835  16.860 -0.0856 -0.1210  0.1315
12208DOPC   D2B15717  -0.770   4.018  17.198  0.1586  0.2915  0.0459
12208DOPC   C3B15718  -1.053   3.708  17.293  0.0857  0.4186  0.1307
12208DOPC   C4B15719  -1.242   3.417  17.584  0.0472  0.2500 -0.3182
12209DOPC   NC315720  20.726   5.544  11.459 -0.1491  0.0531  0.0906
12209DOPC   PO415721  20.520   5.198  11.559 -0.2084  0.0898  0.1182
12209DOPC   GL115722  20.346   5.246  11.915 -0.0435 -0.2688  0.0632
12209DOPC   GL215723  20.530   5.073  12.080  0.3295  0.0683  0.0667
12209DOPC   C1A15724  19.951   5.149  12.117  0.0649 -0.0592  0.0507
12209DOPC   D2A15725  19.587   4.921  12.346  0.0046 -0.2684  0.0862
12209DOPC   C3A15726  19.647   4.744  12.705  0.0370  0.0450  0.1160
12209DOPC   C4A15727  19.506   4.420  13.002  0.1679  0.0617  0.2020
12209DOPC   C1B15728  20.306   4.966  12.431 -0.0681  0.0178  0.0949
12209DOPC   D2B15729  20.103   4.571  12.517  0.1532  0.1001  0.0897
12209DOPC   C3B15730  19.803   4.201  12.691 -0.1998 -0.0138 -0.0130
12209DOPC   C4B15731  19.480   3.910  12.719 -0.1848  0.0241 -0.0627
12210DOPC   NC315732  21.719   2.841  13.310  0.0959  0.1484  0.0709
12210DOPC   PO415733  22.104   2.708  13.344 -0.4493 -0.2725 -0.2575
12210DOPC   GL115734  22.148   2.360  13.545 -0.2134  0.4514 -0.1989
12210DOPC   GL215735  22.200   2.571  13.810  0.0291  0.0905 -0.1095
12210DOPC   C1A15736  21.878   2.056  13.630 -0.0216 -0.0711 -0.1249
12210DOPC   D2A15737  21.586   1.991  13.997  0.2931  0.0049 -0.0946
12210DOPC   C3A15738  21.138   2.056  13.932  0.1800 -0.1250 -0.2196
12210DOPC   C4A15739  20.789   2.076  13.629 -0.0600  0.1585  0.0809
12210DOPC   C1B15740  21.904   2.387  13.999  0.0452 -0.0468  0.0471
12210DOPC   D2B15741  21.971   1.967  14.276  0.0911 -0.4095  0.0686
12210DOPC   C3B15742  21.920   1.696  14.716 -0.2341 -0.1069 -0.1768
12210DOPC   C4B15743  21.787   1.408  15.127  0.4236 -0.2531  0.1176
12211DOPC   NC315744  18.531   3.969  10.692  0.0228 -0.0548  0.1192
12211DOPC   PO415745  18.239   4.194  10.874 -0.0299 -0.0693 -0.1535
12211DOPC   GL115746  18.154   4.222  11.266  0.0255  0.2532 -0.1820
12211DOPC   GL215747  18.102   4.433  11.468 -0.0655 -0.1287 -0.1574
12211DOPC   C1A15748  17.938   3.799  11.364  0.0271 -0.0556 -0.0501
12211DOPC   D2A15749  17.924   3.372  11.576 -0.0309 -0.0720 -0.3315
12211DOPC   C3A15750  17.765   3.437  12.028 -0.2694 -0.0155  0.1204
12211DOPC   C4A15751  17.597   3.316  12.511 -0.0344  0.1986 -0.2829
12211DOPC   C1B15752  18.221   4.474  11.872  0.3677  0.1162  0.0557
12211DOPC   D2B15753  18.258   4.635  12.322  0.0607 -0.0392 -0.0606
12211DOPC   C3B15754  18.439   4.576  12.810  0.1573  0.1761 -0.0198
12211DOPC   C4B15755  18.303   4.493  13.291  0.0277 -0.1773  0.0668
12212DOPC   NC315756  24.796   0.684  15.554 -0.2616  0.0868  0.2661
12212DOPC   PO415757  24.525   0.467  15.376 -0.0016 -0.0169 -0.0655
12212DOPC   GL115758  24.137   0.598  15.411 -0.0860 -0.2886  0.0900
12212DOPC   GL215759  24.265   0.788  15.663 -0.0359  0.0919 -0.0249
12212DOPC   C1A15760  23.785   0.812  15.599  0.1424 -0.1099  0.0372
12212DOPC   D2A15761  23.536   0.912  16.040  0.3330  0.1006 -0.0996
12212DOPC   C3A15762  23.220   1.063  16.300 -0.2135 -0.2631 -0.0328
12212DOPC   C4A15763  23.141   1.464  16.566  0.2389  0.1311 -0.0750
12212DOPC   C1B15764  24.009   0.655  15.999 -0.2152  0.2015  0.0709
12212DOPC   D2B15765  23.888   0.556  16.472 -0.1497 -0.2045  0.0010
12212DOPC   C3B15766  23.433   0.667  16.571  0.3442  0.0422  0.0184
12212DOPC   C4B15767  23.063   0.720  16.927 -0.2200  0.0467  0.3350
12213DOPC   NC315768  15.838   5.391  10.146  0.0444  0.0377  0.1509
12213DOPC   PO415769  15.860   5.099  10.428  0.0013 -0.1733 -0.2108
12213DOPC   GL115770  15.816   5.103  10.871 -0.2947  0.1353  0.6818
12213DOPC   GL215771  15.950   4.832  10.829 -0.1696  0.3045 -0.3116
12213DOPC   C1A15772  15.540   5.033  11.203  0.0465  0.0015 -0.0621
12213DOPC   D2A15773  15.515   4.935  11.697 -0.1733  0.1085  0.1292
12213DOPC   C3A15774  15.392   4.856  12.149 -0.0076 -0.2060  0.0094
12213DOPC   C4A15775  15.129   4.771  12.587 -0.4041 -0.0262  0.2654
12213DOPC   C1B15776  15.985   4.803  11.251 -0.2351  0.0128  0.0019
12213DOPC   D2B15777  16.045   4.678  11.713  0.0299  0.0227 -0.0749
12213DOPC   C3B15778  15.834   4.715  12.097 -0.0506  0.1388  0.0961
12213DOPC   C4B15779  15.529   4.503  12.472 -0.0483  0.1676 -0.0389
12214DOPC   NC315780   1.136   2.560  17.287 -0.0004 -0.1501  0.0220
12214DOPC   PO415781   1.026   2.372  16.946  0.0179  0.0713 -0.0855
12214DOPC   GL115782   0.712   2.142  17.292 -0.4388  0.3391  0.1170
12214DOPC   GL215783   0.541   2.314  17.135  0.1404 -0.0988  0.2395
12214DOPC   C1A15784   0.948   2.192  17.638  0.0457 -0.1099  0.1551
12214DOPC   D2A15785   1.043   2.103  18.142  0.2353  0.0441 -0.2645
12214DOPC   C3A15786   0.764   1.952  18.479  0.1779 -0.3195 -0.0304
12214DOPC   C4A15787   0.582   1.745  18.815 -0.1844 -0.1680 -0.1700
12214DOPC   C1B15788   0.261   2.412  17.401  0.1450  0.0741  0.0018
12214DOPC   D2B15789  -0.143   2.694  17.456 -0.3159  0.1417 -0.1667
12214DOPC   C3B15790  -0.454   2.525  17.741  0.1875 -0.4176  0.1376
12214DOPC   C4B15791  -0.923   2.340  17.847 -0.1132  0.2532 -0.0686
12215DOPC   NC315792  13.865   0.956  10.449  0.0691  0.2662  0.2518
12215DOPC   PO415793  13.773   1.185  10.732  0.3477  0.0419  0.0492
12215DOPC   GL115794  14.053   1.023  11.065 -0.1724 -0.0242  0.6223
12215DOPC   GL215795  14.241   1.202  10.990 -0.0905 -0.0445 -0.0871
12215DOPC   C1A15796  14.089   0.836  11.438 -0.0811 -0.1169  0.1433
12215DOPC   D2A15797  13.878   0.696  11.896  0.0537  0.1077  0.4188
12215DOPC   C3A15798  14.104   0.942  12.274  0.1567  0.1613  0.0835
12215DOPC   C4A15799  13.989   1.084  12.653 -0.0490  0.0340 -0.2774
12215DOPC   C1B15800  14.540   1.301  11.283  0.1394 -0.2094 -0.3435
12215DOPC   D2B15801  14.944   1.386  11.556 -0.1972 -0.1452  0.0511
12215DOPC   C3B15802  14.983   1.678  11.907 -0.2249  0.1593 -0.0603
12215DOPC   C4B15803  15.384   1.935  12.111 -0.0294 -0.1541  0.1875
12216DOPC   NC315804  19.608   2.010  10.884  0.0922  0.0584  0.0916
12216DOPC   PO415805  19.574   2.403  11.001  0.0863  0.4429 -0.0568
12216DOPC   GL115806  19.332   2.371  11.216  0.0957 -0.4103  0.2854
12216DOPC   GL215807  19.082   2.185  11.254  0.3198  0.0839  0.0363
12216DOPC   C1A15808  19.157   2.569  11.598 -0.4143 -0.1995  0.0291
12216DOPC   D2A15809  19.055   2.784  12.008 -0.1931  0.0465  0.1395
12216DOPC   C3A15810  19.026   2.788  12.465  0.2416  0.0376 -0.1724
12216DOPC   C4A15811  18.895   2.943  12.912  0.1327  0.3408  0.1566
12216DOPC   C1B15812  18.773   2.074  11.523 -0.1730 -0.0235  0.1435
12216DOPC   D2B15813  18.677   1.847  12.010  0.0260 -0.0099 -0.1783
12216DOPC   C3B15814  18.561   1.826  12.450  0.0109 -0.1177 -0.0292
12216DOPC   C4B15815  18.363   1.790  12.908  0.4505 -0.0110 -0.1057
12217DOPC   NC315816   7.256   0.361  17.044 -0.3628 -0.1688  0.0973
12217DOPC   PO415817   7.520   0.108  17.116 -0.1271 -0.3935  0.1776
12217DOPC   GL115818   7.903   0.289  17.411  0.0001  0.1042  0.2832
12217DOPC   GL215819   7.658   0.363  17.561 -0.0472 -0.0718  0.2855
12217DOPC   C1A15820   8.204   0.626  17.336 -0.0393  0.1539  0.3833
12217DOPC   D2A15821   8.550   0.913  17.588  0.0848 -0.1167 -0.4766
12217DOPC   C3A15822   8.928   0.793  17.525  0.1718  0.1826  0.2791
12217DOPC   C4A15823   9.381   0.913  17.397 -0.1802 -0.0099  0.1812
12217DOPC   C1B15824   7.910   0.671  17.747 -0.1771  0.0705  0.3434
12217DOPC   D2B15825   7.966   1.065  18.112  0.1314  0.1356  0.1958
12217DOPC   C3B15826   8.032   1.329  18.456 -0.0750 -0.2500 -0.1316
12217DOPC   C4B15827   8.037   1.711  18.717 -0.1239 -0.2471 -0.2605
12218DOPC   NC315828   8.267   0.475  15.489 -0.1455 -0.1007  0.3080
12218DOPC   PO415829   8.236   0.107  15.543  0.0126  0.1914  0.1891
12218DOPC   GL115830   8.609  -0.110  15.689 -0.1218 -0.1595 -0.1626
12218DOPC   GL215831   8.472  -0.260  15.752 -0.1184 -0.0844 -0.2706
12218DOPC   C1A15832   8.890   0.047  15.990  0.3859 -0.2202  0.1589
12218DOPC   D2A15833   9.313  -0.034  16.200  0.1024 -0.2445  0.4234
12218DOPC   C3A15834   9.466   0.189  16.524 -0.2303  0.0171  0.1155
12218DOPC   C4A15835   9.566   0.296  17.006  0.2036 -0.4652  0.0556
12218DOPC   C1B15836   8.437   0.034  16.097 -0.0350  0.1263  0.0055
12218DOPC   D2B15837   8.239   0.159  16.505  0.4603  0.0283  0.4303
12218DOPC   C3B15838   8.461   0.343  16.785 -0.1069 -0.1005  0.1750
12218DOPC   C4B15839   8.736   0.521  17.096 -0.0504  0.0756  0.1796
12219DOPC   NC315840  24.760   3.159  15.114 -0.2635  0.0936  0.1202
12219DOPC   PO415841  24.415   3.342  15.236  0.1172 -0.0754  0.1741
12219DOPC   GL115842  24.144   3.409  15.620 -0.2288  0.3506 -0.1091
12219DOPC   GL215843  24.320   3.392  15.799  0.0244 -0.3879 -0.2010
12219DOPC   C1A15844  23.818   3.605  15.827 -0.0713 -0.1430 -0.2705
12219DOPC   D2A15845  23.470   3.890  16.043 -0.0268  0.3495  0.0506
12219DOPC   C3A15846  23.467   4.296  16.171  0.1240  0.0105 -0.0341
12219DOPC   C4A15847  23.162   4.679  16.340  0.2858 -0.1565 -0.1933
12219DOPC   C1B15848  24.131   3.327  16.157 -0.0548  0.1734 -0.3272
12219DOPC   D2B15849  23.694   3.430  16.387  0.0331  0.1725  0.1833
12219DOPC   C3B15850  23.251   3.619  16.364  0.0715  0.2121  0.1010
12219DOPC   C4B15851  22.752   3.607  16.425  0.4176 -0.0958 -0.1773
12220DOPC   NC315852  13.120   1.716  10.601  0.0178  0.0520  0.0804
12220DOPC   PO415853  13.268   1.408  10.811 -0.1715  0.1199 -0.0762
12220DOPC   GL115854  13.546   1.471  11.088 -0.0333  0.1420  0.0850
12220DOPC   GL215855  13.481   1.133  11.137  0.2341 -0.1973  0.2316
12220DOPC   C1A15856  13.720   1.679  11.431 -0.2325 -0.0292  0.1159
12220DOPC   D2A15857  13.805   1.796  11.894  0.0272  0.3034 -0.0243
12220DOPC   C3A15858  13.652   1.827  12.340 -0.0284 -0.0853 -0.1418
12220DOPC   C4A15859  13.467   2.061  12.801 -0.0957 -0.1340  0.0148
12220DOPC   C1B15860  13.808   1.206  11.433  0.5025 -0.0083  0.2081
12220DOPC   D2B15861  13.737   1.273  11.887  0.0892  0.1203 -0.1814
12220DOPC   C3B15862  14.017   1.447  12.199  0.2151 -0.0464  0.1149
12220DOPC   C4B15863  14.285   1.487  12.638 -0.1382 -0.1371 -0.0179
12221DOPC   NC315864  22.511   5.029  13.790 -0.1273  0.1297  0.2107
12221DOPC   PO415865  22.627   5.354  13.838  0.0020 -0.1109 -0.0433
12221DOPC   GL115866  22.259   5.686  13.994 -0.0958  0.1901 -0.1461
12221DOPC   GL215867  22.147   5.472  13.800  0.3911  0.3450  0.2373
12221DOPC   C1A15868  22.213   5.770  14.364  0.2019 -0.1418  0.1975
12221DOPC   D2A15869  22.407   5.772  14.791 -0.1921 -0.2080 -0.1141
12221DOPC   C3A15870  22.318   6.222  14.961  0.0358  0.1820  0.1473
12221DOPC   C4A15871  22.334   6.292  15.490 -0.0649 -0.0854  0.2621
12221DOPC   C1B15872  21.736   5.256  13.728  0.0610  0.0513  0.1660
12221DOPC   D2B15873  21.301   5.340  13.561  0.0919  0.0774  0.5046
12221DOPC   C3B15874  20.917   5.602  13.609  0.0738 -0.1215  0.1089
12221DOPC   C4B15875  20.616   5.666  13.912  0.2138 -0.2333 -0.0187
12222DOPC   NC315876  24.465   2.382  15.358  0.4584 -0.0776 -0.1443
12222DOPC   PO415877  24.455   2.766  15.239  0.0328  0.0762 -0.3303
12222DOPC   GL115878  24.166   3.002  15.516 -0.0316 -0.4609  0.0407
12222DOPC   GL215879  24.132   2.711  15.462 -0.0478  0.3045 -0.1135
12222DOPC   C1A15880  23.847   3.088  15.811  0.0676 -0.1644  0.2545
12222DOPC   D2A15881  23.462   3.237  15.999  0.0485  0.1611 -0.0096
12222DOPC   C3A15882  23.269   3.119  16.429 -0.0587 -0.2084  0.0193
12222DOPC   C4A15883  23.243   2.989  16.882  0.0792  0.2728  0.0438
12222DOPC   C1B15884  24.125   2.414  15.828  0.0548  0.0457 -0.0830
12222DOPC   D2B15885  23.933   2.216  16.234  0.3282  0.2509 -0.1928
12222DOPC   C3B15886  23.915   2.298  16.689 -0.0814  0.1148  0.1215
12222DOPC   C4B15887  23.790   2.248  17.130 -0.2896  0.1701  0.2783
12223DOPC   NC315888  17.713   3.974  10.754 -0.1807 -0.0212  0.0337
12223DOPC   PO415889  17.397   4.110  10.594 -0.1062  0.3762  0.4163
12223DOPC   GL115890  17.291   4.000  10.973  0.0275  0.0079  0.2738
12223DOPC   GL215891  17.167   4.197  11.052  0.2620  0.4495 -0.1914
12223DOPC   C1A15892  17.450   3.894  11.309 -0.2422 -0.0878  0.0909
12223DOPC   D2A15893  17.472   3.785  11.790 -0.0632 -0.1433  0.1631
12223DOPC   C3A15894  17.232   3.348  11.936 -0.0212 -0.0217  0.1449
12223DOPC   C4A15895  16.758   3.162  11.978 -0.3314 -0.1515 -0.0350
12223DOPC   C1B15896  17.126   4.304  11.537  0.1981  0.1147  0.2094
12223DOPC   D2B15897  17.346   4.259  11.976 -0.1326  0.2393  0.1725
12223DOPC   C3B15898  17.310   4.294  12.369 -0.1201 -0.1067  0.0063
12223DOPC   C4B15899  17.209   4.685  12.617 -0.0259 -0.3084  0.1765
12224DOPC   NC315900   7.242   4.231  17.474  0.1736 -0.0935 -0.3093
12224DOPC   PO415901   7.420   4.514  17.224  0.0914 -0.1011 -0.0093
12224DOPC   GL115902   7.802   4.632  17.181  0.1159 -0.3072 -0.1515
12224DOPC   GL215903   7.888   4.411  17.326 -0.2476 -0.1655 -0.2721
12224DOPC   C1A15904   7.888   5.044  17.382  0.1307  0.2020  0.2918
12224DOPC   D2A15905   8.119   5.272  17.761  0.0793 -0.0656 -0.2745
12224DOPC   C3A15906   8.492   5.112  17.982 -0.3100  0.4631  0.0473
12224DOPC   C4A15907   8.463   4.743  18.310  0.0728  0.1584 -0.1650
12224DOPC   C1B15908   8.114   4.186  17.717  0.0849 -0.2269  0.2709
12224DOPC   D2B15909   8.600   4.220  17.907  0.3284  0.2341 -0.0105
12224DOPC   C3B15910   8.880   3.890  18.107  0.2027 -0.0355 -0.0005
12224DOPC   C4B15911   9.250   3.601  17.995  0.0563 -0.1500 -0.1887
12225DOPC   NC315912  24.058   3.156  15.002  0.1714 -0.1227  0.1927
12225DOPC   PO415913  23.952   3.378  14.719 -0.1915 -0.1622 -0.1923
12225DOPC   GL115914  23.570   3.740  14.819  0.2669  0.2460 -0.1050
12225DOPC   GL215915  23.710   3.731  14.980  0.4503  0.3744  0.3972
12225DOPC   C1A15916  23.277   3.744  15.077  0.0083 -0.1246  0.1106
12225DOPC   D2A15917  22.847   3.812  15.322  0.0674 -0.1372 -0.3660
12225DOPC   C3A15918  22.593   4.076  15.652 -0.1260 -0.0190  0.0608
12225DOPC   C4A15919  22.303   4.277  15.997  0.1165  0.0461  0.0700
12225DOPC   C1B15920  23.652   3.924  15.392  0.3077  0.0058 -0.2954
12225DOPC   D2B15921  23.308   3.660  15.647 -0.2213 -0.1532 -0.0659
12225DOPC   C3B15922  23.004   3.305  15.805 -0.1954  0.0826  0.0016
12225DOPC   C4B15923  22.947   2.901  16.037  0.0861 -0.4331  0.4361
12226DOPC   NC315924   9.669   7.451  13.217  0.1426 -0.2599 -0.1258
12226DOPC   PO415925  10.052   7.609  13.206 -0.2567 -0.1628  0.0153
12226DOPC   GL115926  10.139   7.734  13.625  0.0421  0.2775  0.1169
12226DOPC   GL215927  10.258   7.512  13.674 -0.2021 -0.0528 -0.0002
12226DOPC   C1A15928  10.477   7.918  13.863  0.0815  0.1827 -0.1063
12226DOPC   D2A15929  10.709   8.065  14.249 -0.3165 -0.0978 -0.1431
12226DOPC   C3A15930  10.974   7.684  14.238 -0.1171  0.0613  0.2422
12226DOPC   C4A15931  11.414   7.499  14.354  0.1784 -0.1574 -0.1118
12226DOPC   C1B15932  10.635   7.367  13.968 -0.1339 -0.2701 -0.1705
12226DOPC   D2B15933  10.951   7.221  14.354  0.1337  0.3093  0.1158
12226DOPC   C3B15934  11.183   7.372  14.768 -0.1812  0.1287 -0.0873
12226DOPC   C4B15935  11.459   7.520  15.118 -0.2480 -0.0932 -0.0575
12227DOPC   NC315936  18.217   6.198  10.411 -0.0066 -0.2638  0.1764
12227DOPC   PO415937  18.220   6.002  10.749  0.0143  0.2730  0.1117
12227DOPC   GL115938  18.059   6.141  11.060 -0.4132  0.1361  0.2808
12227DOPC   GL215939  17.960   5.838  11.110 -0.1977  0.1133 -0.1808
12227DOPC   C1A15940  17.899   6.458  11.335 -0.1107 -0.0378  0.3137
12227DOPC   D2A15941  17.645   6.610  11.754  0.0363  0.0611  0.0241
12227DOPC   C3A15942  17.213   6.536  11.922 -0.3870 -0.0576 -0.1562
12227DOPC   C4A15943  16.778   6.214  11.943 -0.1504  0.3353 -0.1194
12227DOPC   C1B15944  18.031   5.847  11.564 -0.2086  0.3672 -0.1144
12227DOPC   D2B15945  17.977   5.690  12.064  0.1499  0.0783 -0.1893
12227DOPC   C3B15946  17.812   5.487  12.490 -0.0078 -0.3074 -0.0053
12227DOPC   C4B15947  17.470   5.479  12.836  0.0337  0.1372 -0.0393
12228DOPC   NC315948   5.812   0.784  18.466  0.3742 -0.0911 -0.0469
12228DOPC   PO415949   6.019   0.469  18.549 -0.0354  0.1489  0.0201
12228DOPC   GL115950   6.283   0.596  18.780 -0.1999  0.3728  0.1101
12228DOPC   GL215951   6.277   0.866  18.809 -0.2284 -0.0820  0.3255
12228DOPC   C1A15952   6.567   0.491  19.138 -0.2694 -0.3452 -0.1549
12228DOPC   D2A15953   6.777   0.342  19.587  0.0460  0.0789 -0.0549
12228DOPC   C3A15954   7.194   0.179  19.698  0.0077 -0.0412  0.0134
12228DOPC   C4A15955   7.453   0.105  20.125  0.0945  0.1534 -0.2383
12228DOPC   C1B15956   6.309   1.069  19.178  0.1856 -0.0343  0.0405
12228DOPC   D2B15957   6.346   1.331  19.591 -0.0599 -0.1710 -0.0949
12228DOPC   C3B15958   6.638   1.581  19.943  0.1618  0.2530  0.0641
12228DOPC   C4B15959   7.110   1.666  19.927 -0.0772 -0.0597  0.1061
12229DOPC   NC315960   5.295   3.491  18.511  0.0214  0.1271  0.0311
12229DOPC   PO415961   4.920   3.654  18.569 -0.0379  0.1481  0.0768
12229DOPC   GL115962   5.025   3.980  18.840 -0.1971 -0.0320  0.1391
12229DOPC   GL215963   4.835   3.833  19.054 -0.0893  0.2080 -0.2034
12229DOPC   C1A15964   5.275   4.317  18.892  0.2951 -0.1848 -0.0655
12229DOPC   D2A15965   5.604   4.557  19.083  0.1247 -0.0298 -0.1237
12229DOPC   C3A15966   5.683   4.381  19.474  0.1467  0.0175 -0.2036
12229DOPC   C4A15967   5.799   4.440  19.954 -0.1307  0.4439  0.0306
12229DOPC   C1B15968   4.879   4.018  19.408  0.1371 -0.2145  0.0637
12229DOPC   D2B15969   4.894   3.949  19.907  0.0732 -0.2060 -0.1325
12229DOPC   C3B15970   4.645   4.148  20.285  0.2783  0.4138  0.0961
12229DOPC   C4B15971   4.400   4.467  20.530 -0.0695  0.2032  0.1720
12230DOPC   NC315972  22.232   1.070  13.685  0.1381  0.1526 -0.0905
12230DOPC   PO415973  22.183   1.362  13.438  0.2542 -0.0578  0.0818
12230DOPC   GL115974  21.851   1.572  13.571 -0.1757 -0.2720 -0.0980
12230DOPC   GL215975  21.788   1.656  13.239  0.1366  0.1425 -0.1217
12230DOPC   C1A15976  21.516   1.514  13.807  0.0498  0.0390  0.1798
12230DOPC   D2A15977  21.163   1.595  14.135 -0.0313 -0.3259 -0.1069
12230DOPC   C3A15978  20.989   1.656  14.561 -0.1093 -0.0621  0.1579
12230DOPC   C4A15979  20.636   1.664  14.915  0.2028  0.2121 -0.0836
12230DOPC   C1B15980  21.467   1.842  13.420  0.0622 -0.3444  0.0024
12230DOPC   D2B15981  21.462   2.380  13.641  0.1230  0.0281 -0.0471
12230DOPC   C3B15982  21.033   2.492  13.735 -0.1788  0.2202 -0.0764
12230DOPC   C4B15983  20.612   2.778  13.809 -0.3673 -0.1922 -0.0223
12231DOPC   NC315984  23.487   0.918  14.705  0.0069  0.1121 -0.2221
12231DOPC   PO415985  23.529   0.647  14.431 -0.1321  0.0601 -0.1554
12231DOPC   GL115986  23.127   0.611  14.542  0.3750  0.0501  0.5840
12231DOPC   GL215987  23.056   0.898  14.405 -0.1691  0.2013  0.2641
12231DOPC   C1A15988  22.974   0.720  14.940 -0.1237 -0.1373  0.0517
12231DOPC   D2A15989  22.851   0.637  15.422  0.1968 -0.1586  0.0015
12231DOPC   C3A15990  22.347   0.649  15.405 -0.0847 -0.1742  0.0918
12231DOPC   C4A15991  21.937   0.719  15.575  0.0820  0.0070 -0.1857
12231DOPC   C1B15992  22.981   1.168  14.695  0.2500 -0.1430  0.4431
12231DOPC   D2B15993  22.807   1.500  14.952  0.1139  0.4339 -0.1756
12231DOPC   C3B15994  22.351   1.584  15.155  0.3285 -0.0022  0.2700
12231DOPC   C4B15995  22.001   1.729  15.431 -0.1088 -0.1288 -0.0179
12232DOPC   NC315996   5.908   7.357  17.860  0.0315 -0.2375  0.0954
12232DOPC   PO415997   6.134   7.691  17.843 -0.2186 -0.1205  0.0439
12232DOPC   GL115998   6.416   7.714  18.120  0.1102 -0.1916 -0.3269
12232DOPC   GL215999   6.227   7.726  18.312  0.4423  0.1911  0.4392
12232DOPC   C1A16000   6.652   7.460  18.439  0.0831 -0.1565  0.0245
12232DOPC   D2A16001   7.016   7.477  18.769  0.1728 -0.1810 -0.1080
12232DOPC   C3A16002   7.301   7.445  19.081 -0.0659  0.2037  0.3731
12232DOPC   C4A16003   7.555   7.624  19.437 -0.0695 -0.0541  0.2405
12232DOPC   C1B16004   6.257   7.597  18.774 -0.0906  0.0185  0.0254
12232DOPC   D2B16005   6.326   7.346  19.248  0.2333 -0.0016  0.1574
12232DOPC   C3B16006   6.485   7.184  19.598  0.1982  0.2573 -0.0071
12232DOPC   C4B16007   6.787   7.153  19.944 -0.1037  0.0461 -0.0786
12233DOPC   NC316008  11.703   5.489  11.592 -0.1128 -0.2585  0.2302
12233DOPC   PO416009  11.809   5.097  11.570  0.0604 -0.0275  0.0907
12233DOPC   GL116010  12.032   5.126  11.933 -0.0683  0.1589  0.1716
12233DOPC   GL216011  12.206   5.322  11.956  0.3697  0.1222 -0.1513
12233DOPC   C1A16012  12.081   4.836  12.266  0.3454  0.0223  0.0218
12233DOPC   D2A16013  12.281   4.663  12.717 -0.3049  0.1728 -0.0680
12233DOPC   C3A16014  12.361   4.219  12.877  0.1143 -0.0716  0.0731
12233DOPC   C4A16015  12.665   3.950  13.141 -0.1025 -0.1012  0.3095
12233DOPC   C1B16016  12.522   5.184  12.272 -0.2353  0.1955 -0.1848
12233DOPC   D2B16017  12.643   5.037  12.718 -0.1369  0.0549 -0.3116
12233DOPC   C3B16018  12.795   5.229  13.149 -0.1490 -0.0449 -0.1074
12233DOPC   C4B16019  12.868   5.219  13.594 -0.0090  0.0224  0.0099
12234DOPC   NC316020   2.383   5.074  17.701 -0.0300 -0.0155  0.2454
12234DOPC   PO416021   2.575   5.389  17.906 -0.0208 -0.0808  0.1528
12234DOPC   GL116022   2.321   5.389  18.273  0.2615  0.4495 -0.1322
12234DOPC   GL216023   2.522   5.337  18.439 -0.6045  0.4110 -0.1287
12234DOPC   C1A16024   1.890   5.275  18.150  0.1356 -0.2277  0.1587
12234DOPC   D2A16025   1.405   5.302  18.294 -0.1209  0.3741  0.2782
12234DOPC   C3A16026   0.957   5.201  18.454  0.0293  0.1165  0.3566
12234DOPC   C4A16027   0.495   5.383  18.588  0.0605 -0.2544  0.1548
12234DOPC   C1B16028   2.428   5.165  18.824 -0.0373 -0.1728  0.0137
12234DOPC   D2B16029   2.091   5.058  19.170  0.0784  0.3944  0.1642
12234DOPC   C3B16030   1.675   5.204  19.304 -0.0580 -0.0953  0.1356
12234DOPC   C4B16031   1.185   5.354  19.369  0.0923 -0.1354  0.1809
12235DOPC   NC316032  19.563   3.762  10.740  0.3442 -0.0695 -0.1305
12235DOPC   PO416033  19.222   3.491  10.768 -0.0577  0.1728  0.0497
12235DOPC   GL116034  19.204   3.332  11.163  0.0488  0.0380  0.2863
12235DOPC   GL216035  19.033   3.535  11.232 -0.2590 -0.3942 -0.0033
12235DOPC   C1A16036  18.857   3.087  11.404 -0.0649 -0.1253  0.1740
12235DOPC   D2A16037  18.368   3.067  11.578 -0.3268  0.2875 -0.1432
12235DOPC   C3A16038  18.148   3.116  11.942  0.4266  0.0306  0.2704
12235DOPC   C4A16039  18.028   3.059  12.460 -0.0990 -0.0012 -0.3743
12235DOPC   C1B16040  19.495   3.688  11.316  0.1218 -0.0675  0.2116
12235DOPC   D2B16041  19.898   3.882  11.498  0.1656 -0.3222 -0.0077
12235DOPC   C3B16042  20.038   3.769  11.901 -0.0749 -0.1414  0.1421
12235DOPC   C4B16043  19.789   3.734  12.327 -0.2561 -0.0150  0.6416
12236DOPC   NC316044   4.168   2.655  18.601  0.2277 -0.3598  0.2474
12236DOPC   PO416045   4.287   2.330  18.726  0.3000 -0.0132  0.2240
12236DOPC   GL116046   4.419   2.356  19.177  0.0393  0.1494  0.2021
12236DOPC   GL216047   4.668   2.264  19.074 -0.4972  0.3353  0.0003
12236DOPC   C1A16048   4.581   2.683  19.461 -0.2023 -0.1594 -0.0056
12236DOPC   D2A16049   4.822   2.915  19.826 -0.1910  0.1921 -0.0273
12236DOPC   C3A16050   4.607   3.232  20.050  0.2867  0.3392 -0.1700
12236DOPC   C4A16051   4.435   3.525  20.395 -0.0447  0.1516 -0.0487
12236DOPC   C1B16052   4.959   2.390  19.442  0.0691  0.0219  0.0441
12236DOPC   D2B16053   5.178   2.526  19.823 -0.1232 -0.0192  0.1805
12236DOPC   C3B16054   5.313   2.320  20.245 -0.0353 -0.0040  0.0388
12236DOPC   C4B16055   5.436   2.168  20.675  0.1818 -0.4262 -0.0823
12237DOPC   NC316056  21.367   0.144  12.509  0.2565  0.1448  0.2775
12237DOPC   PO416057  21.325   0.086  12.914  0.0898  0.1380  0.2455
12237DOPC   GL116058  21.095   0.310  13.263  0.0773  0.1334 -0.2273
12237DOPC   GL216059  20.902   0.138  13.091  0.1970  0.0397 -0.0376
12237DOPC   C1A16060  21.039   0.716  13.456  0.2639  0.0346  0.1127
12237DOPC   D2A16061  20.924   1.100  13.771 -0.0242  0.2349  0.0245
12237DOPC   C3A16062  20.845   1.238  14.189 -0.0355 -0.0357  0.0428
12237DOPC   C4A16063  20.688   1.145  14.655  0.0407 -0.1974 -0.2712
12237DOPC   C1B16064  20.701  -0.207  13.297 -0.1677  0.0409 -0.1813
12237DOPC   D2B16065  20.468  -0.566  13.468 -0.0282 -0.0430  0.1059
12237DOPC   C3B16066  20.157  -0.947  13.569 -0.2641 -0.2317 -0.1959
12237DOPC   C4B16067  19.808  -1.364  13.631 -0.3071 -0.0352  0.0116
12238DOPC   NC316068  21.752   3.664  13.263  0.0640 -0.1606 -0.2598
12238DOPC   PO416069  21.822   3.316  13.301 -0.2114 -0.2671 -0.2284
12238DOPC   GL116070  21.632   3.156  13.627 -0.1536  0.1588  0.0719
12238DOPC   GL216071  21.820   3.427  13.708 -0.1923  0.0884  0.3612
12238DOPC   C1A16072  21.630   2.804  13.894 -0.0625  0.0832 -0.3606
12238DOPC   D2A16073  21.381   2.459  14.171  0.1595  0.3205 -0.1171
12238DOPC   C3A16074  20.956   2.290  14.358 -0.2292 -0.1173 -0.0521
12238DOPC   C4A16075  20.592   2.021  14.526 -0.0001 -0.2492  0.2357
12238DOPC   C1B16076  21.722   3.608  14.133  0.0383  0.1022  0.0218
12238DOPC   D2B16077  21.828   3.750  14.551  0.0018 -0.1232  0.1864
12238DOPC   C3B16078  21.786   3.708  15.040  0.0854  0.0127  0.4546
12238DOPC   C4B16079  21.720   3.687  15.478  0.1282  0.1691 -0.3669
12239DOPC   NC316080  19.433   5.435  11.301  0.1862  0.3344 -0.2662
12239DOPC   PO416081  19.560   5.768  11.333  0.0448 -0.3274 -0.2286
12239DOPC   GL116082  19.237   5.731  11.617  0.0173 -0.2069  0.1552
12239DOPC   GL216083  19.196   6.004  11.535 -0.3727  0.0647  0.4324
12239DOPC   C1A16084  18.963   5.607  11.963  0.0415 -0.1126 -0.3088
12239DOPC   D2A16085  18.809   5.423  12.464  0.2856  0.1461  0.1923
12239DOPC   C3A16086  18.812   5.425  12.910  0.0595 -0.1300 -0.2106
12239DOPC   C4A16087  18.853   5.594  13.343  0.2659 -0.1115 -0.1044
12239DOPC   C1B16088  18.954   6.134  11.904 -0.3861  0.1235  0.1892
12239DOPC   D2B16089  18.615   6.322  12.171 -0.1778 -0.0770  0.0415
12239DOPC   C3B16090  18.494   5.908  12.337 -0.1799 -0.0502  0.1813
12239DOPC   C4B16091  18.343   5.605  12.644  0.2132 -0.0087  0.0244
12240DOPC   NC316092  13.868   7.598  10.263  0.0781 -0.0170  0.0296
12240DOPC   PO416093  13.651   7.876  10.498  0.1068  0.2809  0.0988
12240DOPC   GL116094  13.752   7.942  10.905 -0.0423  0.3839 -0.1818
12240DOPC   GL216095  14.009   8.108  10.873  0.0995 -0.1760  0.4573
12240DOPC   C1A16096  13.796   7.707  11.271  0.0362 -0.0129 -0.0080
12240DOPC   D2A16097  14.012   7.667  11.729  0.1296  0.0883  0.2174
12240DOPC   C3A16098  14.179   7.908  12.113 -0.0908 -0.0783 -0.2898
12240DOPC   C4A16099  14.320   7.952  12.613 -0.0310 -0.3263  0.3262
12240DOPC   C1B16100  14.188   8.141  11.281 -0.3532 -0.1226 -0.2076
12240DOPC   D2B16101  14.368   8.157  11.735 -0.0999  0.0759 -0.0215
12240DOPC   C3B16102  14.498   8.520  12.075  0.1686  0.2505 -0.2917
12240DOPC   C4B16103  14.581   8.822  12.438  0.2043  0.2780  0.0058
12241DOPC   NC316104  17.817   1.588   9.969  0.1659  0.0645 -0.1186
12241DOPC   PO416105  18.053   1.878  10.121  0.0314  0.1392 -0.4606
12241DOPC   GL116106  17.977   2.004  10.583 -0.0073  0.0067  0.0225
12241DOPC   GL216107  17.978   1.707  10.620  0.0841 -0.1552 -0.1889
12241DOPC   C1A16108  17.656   1.962  10.934 -0.1712  0.1427 -0.1250
12241DOPC   D2A16109  17.402   1.779  11.322 -0.0249 -0.1307  0.1215
12241DOPC   C3A16110  17.407   1.894  11.764  0.1210  0.1988 -0.0164
12241DOPC   C4A16111  17.362   1.783  12.243  0.2141  0.0594  0.1983
12241DOPC   C1B16112  18.153   1.712  11.029  0.1646 -0.2756 -0.2476
12241DOPC   D2B16113  17.880   1.832  11.515  0.0388 -0.1073 -0.0229
12241DOPC   C3B16114  17.872   2.084  11.945 -0.0639 -0.2298 -0.0633
12241DOPC   C4B16115  17.852   2.520  12.305 -0.0308 -0.2303  0.0453
12242DOPC   NC316116  24.818   6.529  15.694  0.0936 -0.1661  0.0787
12242DOPC   PO416117  24.917   6.182  15.838  0.2576  0.0362  0.1976
12242DOPC   GL116118  24.930   6.031  16.207 -0.0783  0.0348  0.2546
12242DOPC   GL216119  24.757   5.875  16.278  0.1079 -0.3159 -0.0011
12242DOPC   C1A16120  25.001   6.387  16.513  0.0157 -0.0841  0.0401
12242DOPC   D2A16121  25.164   6.609  16.945  0.1716 -0.0070  0.1336
12242DOPC   C3A16122  24.801   6.551  17.263  0.0342 -0.3595 -0.1698
12242DOPC   C4A16123  24.666   6.610  17.769  0.0500  0.0107 -0.0338
12242DOPC   C1B16124  24.666   5.542  16.552 -0.0053 -0.0556  0.4887
12242DOPC   D2B16125  24.507   5.427  17.046 -0.0160 -0.3333  0.1242
12242DOPC   C3B16126  24.162   5.385  17.338  0.3250  0.3984 -0.2305
12242DOPC   C4B16127  23.729   5.355  17.578  0.2323  0.0181 -0.2120
12243DOPC   NC316128  17.615   6.899  10.568 -0.0743  0.0480  0.2682
12243DOPC   PO416129  17.948   7.091  10.686  0.1892 -0.2112  0.1819
12243DOPC   GL116130  18.022   7.259  11.060  0.1180  0.3217 -0.5111
12243DOPC   GL216131  18.195   6.995  11.075 -0.0891  0.0986 -0.4401
12243DOPC   C1A16132  18.056   7.380  11.453  0.0200  0.0240 -0.3534
12243DOPC   D2A16133  17.651   7.460  11.772  0.0755  0.0591 -0.0068
12243DOPC   C3A16134  17.535   7.404  12.199 -0.1853 -0.1942  0.0390
12243DOPC   C4A16135  17.212   7.320  12.519  0.3658  0.1195 -0.1647
12243DOPC   C1B16136  18.283   6.749  11.407  0.0780  0.0257 -0.1440
12243DOPC   D2B16137  18.128   6.461  11.777 -0.2982  0.0333 -0.1010
12243DOPC   C3B16138  18.145   6.281  12.181 -0.0373  0.3071 -0.0393
12243DOPC   C4B16139  17.886   5.986  12.439 -0.4333  0.1443 -0.1430
12244DOPC   NC316140  11.201   6.226  12.296  0.3383  0.1509 -0.2826
12244DOPC   PO416141  11.424   6.452  12.078  0.3366 -0.1140 -0.0681
12244DOPC   GL116142  11.820   6.514  12.306 -0.2131  0.2148 -0.2319
12244DOPC   GL216143  11.719   6.515  12.587  0.1904 -0.5503 -0.2180
12244DOPC   C1A16144  12.246   6.620  12.243  0.2570 -0.4127  0.0691
12244DOPC   D2A16145  12.678   6.857  12.070  0.0218  0.0517  0.0827
12244DOPC   C3A16146  13.063   6.827  12.312 -0.1217 -0.0123  0.0143
12244DOPC   C4A16147  13.371   6.853  12.654  0.1701 -0.1092  0.2269
12244DOPC   C1B16148  12.109   6.561  12.748  0.1733 -0.1708  0.0982
12244DOPC   D2B16149  12.534   6.647  12.978 -0.0840  0.2840 -0.1530
12244DOPC   C3B16150  12.921   6.401  13.027  0.0335  0.2306  0.3142
12244DOPC   C4B16151  13.143   6.008  13.149 -0.2080 -0.0578 -0.3263
12245DOPC   NC316152  12.524   0.467  11.204 -0.1346  0.3326 -0.2215
12245DOPC   PO416153  12.916   0.474  11.316 -0.1648 -0.3662 -0.2581
12245DOPC   GL116154  12.953   0.675  11.671  0.2328 -0.2710 -0.1226
12245DOPC   GL216155  13.073   0.944  11.623  0.0769  0.0220  0.0346
12245DOPC   C1A16156  12.803   0.564  12.027 -0.0815 -0.1220 -0.0268
12245DOPC   D2A16157  12.780   0.280  12.454  0.0549 -0.0916  0.0361
12245DOPC   C3A16158  12.628   0.325  12.880  0.1315 -0.0137  0.2231
12245DOPC   C4A16159  12.618   0.525  13.333  0.1494 -0.1579 -0.0244
12245DOPC   C1B16160  13.011   1.222  11.976  0.1191  0.2831  0.1113
12245DOPC   D2B16161  12.912   1.291  12.500  0.0184  0.3044  0.1281
12245DOPC   C3B16162  13.197   1.117  12.827  0.0202  0.1038 -0.1550
12245DOPC   C4B16163  13.651   1.223  12.922 -0.2253  0.2015 -0.3080
12246DOPC   NC316164  11.173   5.497  12.491 -0.2867 -0.0191 -0.0372
12246DOPC   PO416165  10.967   5.565  12.793  0.0769  0.1751 -0.0824
12246DOPC   GL116166  10.912   5.235  13.009  0.2862 -0.2403  0.0066
12246DOPC   GL216167  10.712   5.386  13.210 -0.1611  0.0992 -0.1977
12246DOPC   C1A16168  11.227   5.173  13.290  0.2625 -0.2250 -0.2322
12246DOPC   D2A16169  11.378   5.381  13.670  0.0079  0.0647 -0.0492
12246DOPC   C3A16170  11.618   5.468  14.048  0.2697 -0.0692  0.1319
12246DOPC   C4A16171  12.044   5.548  14.370  0.0130 -0.0574 -0.1418
12246DOPC   C1B16172  10.898   5.614  13.508 -0.3954 -0.0675 -0.1023
12246DOPC   D2B16173  11.104   5.731  14.001  0.2475 -0.0654  0.1317
12246DOPC   C3B16174  11.465   6.029  14.134 -0.0357  0.1448 -0.1488
12246DOPC   C4B16175  11.794   6.290  14.344 -0.1245 -0.0931 -0.0681
12247DOPC   NC316176   2.879   5.893  17.978  0.1648  0.0325 -0.0757
12247DOPC   PO416177   3.254   5.755  18.085 -0.3649  0.0599  0.0331
12247DOPC   GL116178   3.151   5.751  18.441 -0.0604 -0.0327  0.0124
12247DOPC   GL216179   2.843   5.771  18.412  0.3919 -0.0104 -0.1278
12247DOPC   C1A16180   3.006   5.821  18.911  0.1287 -0.1341 -0.0621
12247DOPC   D2A16181   3.113   5.670  19.381 -0.0894 -0.1174 -0.0582
12247DOPC   C3A16182   2.863   5.578  19.744  0.2734  0.1897  0.0279
12247DOPC   C4A16183   2.495   5.346  20.040  0.0706  0.1833  0.1304
12247DOPC   C1B16184   2.528   5.662  18.714  0.0034  0.3906 -0.2288
12247DOPC   D2B16185   2.233   5.533  19.036  0.0812 -0.4639 -0.1790
12247DOPC   C3B16186   2.032   5.742  19.367 -0.0686  0.1918 -0.3085
12247DOPC   C4B16187   1.855   6.019  19.787 -0.0190  0.0795  0.1859
12248DOPC   NC316188   4.939   0.362  18.473 -0.0966  0.1607 -0.2906
12248DOPC   PO416189   4.884   0.737  18.637  0.1827  0.1155 -0.0381
12248DOPC   GL116190   4.854   0.740  19.075  0.2146 -0.0339 -0.0452
12248DOPC   GL216191   5.004   0.957  19.022  0.0579 -0.1270  0.0185
12248DOPC   C1A16192   5.072   0.526  19.408  0.1322  0.1606  0.0786
12248DOPC   D2A16193   5.408   0.473  19.744  0.1466 -0.1982  0.1320
12248DOPC   C3A16194   5.286   0.203  20.106  0.0206  0.1803 -0.0393
12248DOPC   C4A16195   5.101   0.067  20.546  0.0246 -0.0890 -0.1367
12248DOPC   C1B16196   4.797   1.173  19.348 -0.1633  0.0024  0.3100
12248DOPC   D2B16197   4.568   1.252  19.874 -0.0852 -0.1081 -0.1517
12248DOPC   C3B16198   4.807   1.501  20.192  0.0497 -0.2224  0.0615
12248DOPC   C4B16199   4.946   1.513  20.686 -0.1682 -0.1756  0.3044
12249DOPC   NC316200   0.042   1.159  16.124 -0.2362 -0.1228  0.3423
12249DOPC   PO416201   0.129   0.811  15.899  0.3463  0.0786 -0.0035
12249DOPC   GL116202  -0.265   0.715  16.134 -0.3906 -0.0513  0.3467
12249DOPC   GL216203  -0.082   0.490  16.228 -0.1364 -0.1454  0.4848
12249DOPC   C1A16204  -0.674   0.822  16.380 -0.3534  0.1342  0.0983
12249DOPC   D2A16205  -0.808   1.011  16.819  0.0582  0.3434 -0.3368
12249DOPC   C3A16206  -1.029   1.389  17.028 -0.0629  0.2093 -0.2327
12249DOPC   C4A16207  -0.831   1.551  17.470 -0.0469 -0.2004 -0.0019
12249DOPC   C1B16208  -0.030   0.154  16.434  0.2332  0.2286  0.2258
12249DOPC   D2B16209   0.027  -0.079  16.907  0.0489 -0.1694  0.0483
12249DOPC   C3B16210  -0.147  -0.356  17.224 -0.0228 -0.2296 -0.2236
12249DOPC   C4B16211  -0.293  -0.829  17.436 -0.0610  0.1082 -0.1690
12250DOPC   NC316212  10.572   6.908  13.172  0.1223  0.1953  0.0089
12250DOPC   PO416213  10.837   6.931  12.952 -0.3514 -0.2588  0.0906
12250DOPC   GL116214  11.155   7.015  13.179 -0.0195 -0.1454 -0.1830
12250DOPC   GL216215  10.991   6.856  13.327  0.1175 -0.2709 -0.3860
12250DOPC   C1A16216  11.348   7.338  13.355 -0.0374  0.0945 -0.1132
12250DOPC   D2A16217  11.621   7.310  13.832  0.4042 -0.0517  0.1742
12250DOPC   C3A16218  11.896   7.513  14.189 -0.1523 -0.3124 -0.0594
12250DOPC   C4A16219  12.220   7.454  14.556  0.1118  0.0946  0.2577
12250DOPC   C1B16220  11.352   6.763  13.571 -0.0164  0.0411 -0.1099
12250DOPC   D2B16221  11.841   6.787  13.692 -0.1382 -0.2043 -0.1533
12250DOPC   C3B16222  11.871   6.863  14.162 -0.1309 -0.1533  0.1230
12250DOPC   C4B16223  11.845   6.692  14.634  0.1097 -0.0657  0.1866
12251DOPC   NC316224  18.825   3.021  10.736  0.4192 -0.1502  0.0807
12251DOPC   PO416225  18.786   2.702  10.510 -0.1420  0.1378 -0.2464
12251DOPC   GL116226  18.500   2.634  10.798 -0.2605 -0.1667  0.2181
12251DOPC   GL216227  18.494   2.391  10.789 -0.2116  0.1930 -0.1749
12251DOPC   C1A16228  18.547   2.642  11.243  0.0712 -0.2015 -0.2183
12251DOPC   D2A16229  18.649   2.591  11.764 -0.1468 -0.1020  0.0658
12251DOPC   C3A16230  18.670   3.086  11.970 -0.0815  0.0448 -0.0207
12251DOPC   C4A16231  18.663   3.578  12.138 -0.0635 -0.0846  0.1341
12251DOPC   C1B16232  18.559   2.080  11.079 -0.0468  0.0277 -0.1226
12251DOPC   D2B16233  18.463   1.683  11.479  0.1707  0.2974 -0.0296
12251DOPC   C3B16234  18.199   1.649  11.907  0.0869 -0.0300  0.0675
12251DOPC   C4B16235  18.109   1.782  12.354 -0.2397 -0.0522 -0.1073
12252DOPC   NC316236   4.061   4.762  18.401 -0.0558  0.2799 -0.1314
12252DOPC   PO416237   3.822   4.445  18.388 -0.2640  0.3253  0.2637
12252DOPC   GL116238   3.643   4.243  18.754 -0.5158 -0.5401 -0.0902
12252DOPC   GL216239   3.904   4.373  18.851 -0.1163  0.0919 -0.0567
12252DOPC   C1A16240   3.284   4.329  18.997 -0.0280 -0.1732 -0.0513
12252DOPC   D2A16241   2.859   4.086  19.168 -0.0594 -0.2867 -0.0186
12252DOPC   C3A16242   2.854   4.125  19.689  0.1084  0.3611  0.1555
12252DOPC   C4A16243   2.688   3.836  20.025 -0.0052 -0.0815 -0.2034
12252DOPC   C1B16244   3.980   4.732  19.086  0.2798 -0.0373 -0.2337
12252DOPC   D2B16245   4.293   5.028  19.369 -0.1384 -0.0381 -0.0726
12252DOPC   C3B16246   4.133   4.730  19.671  0.0594  0.3881  0.1946
12252DOPC   C4B16247   4.068   4.607  20.117 -0.3439  0.0149 -0.0024
12253DOPC   NC316248   5.413   2.569  18.326 -0.2334 -0.3552  0.1737
12253DOPC   PO416249   5.320   2.221  18.469 -0.0240  0.2687  0.0541
12253DOPC   GL116250   5.439   2.321  18.928 -0.0061  0.0642  0.3833
12253DOPC   GL216251   5.504   2.587  18.862  0.1877 -0.0277  0.1143
12253DOPC   C1A16252   5.427   2.264  19.369 -0.0243  0.1578 -0.1788
12253DOPC   D2A16253   5.425   2.128  19.797 -0.0156 -0.0458  0.0435
12253DOPC   C3A16254   5.755   1.986  20.080  0.2025  0.0872 -0.0552
12253DOPC   C4A16255   5.864   1.946  20.546  0.0143 -0.2998  0.0117
12253DOPC   C1B16256   5.914   2.550  19.052  0.0578 -0.1021 -0.1927
12253DOPC   D2B16257   6.105   2.779  19.424  0.0449 -0.1560 -0.1213
12253DOPC   C3B16258   6.100   2.925  19.868  0.0358 -0.2610 -0.0021
12253DOPC   C4B16259   6.209   3.278  20.221  0.2262  0.0997  0.0850
12254DOPC   NC316260  16.769   1.581   9.956 -0.2768 -0.0043 -0.1021
12254DOPC   PO416261  16.635   1.511  10.302 -0.0670  0.2005  0.1709
12254DOPC   GL116262  16.657   1.819  10.543  0.0678 -0.2374 -0.2533
12254DOPC   GL216263  16.942   1.710  10.696  0.1328  0.0701  0.1232
12254DOPC   C1A16264  16.486   1.968  10.908 -0.0798 -0.1245 -0.0861
12254DOPC   D2A16265  16.243   2.145  11.306  0.2517  0.1330 -0.2376
12254DOPC   C3A16266  15.961   2.127  11.638 -0.0871  0.2302  0.0510
12254DOPC   C4A16267  15.683   2.321  12.026 -0.0522  0.2507  0.0467
12254DOPC   C1B16268  16.910   1.700  11.080  0.0934 -0.2803 -0.0254
12254DOPC   D2B16269  16.852   1.928  11.491 -0.3518 -0.1798  0.2070
12254DOPC   C3B16270  16.853   1.934  11.902  0.0300 -0.1534 -0.1654
12254DOPC   C4B16271  16.865   1.951  12.367 -0.3407  0.3620 -0.0592
12255DOPC   NC316272   5.390   4.893  18.507  0.1384 -0.0135  0.0239
12255DOPC   PO416273   4.987   5.007  18.427  0.1612  0.2464 -0.0379
12255DOPC   GL116274   4.995   4.964  18.787  0.2425 -0.1778  0.2447
12255DOPC   GL216275   5.046   4.763  18.946 -0.4832  0.0603 -0.0661
12255DOPC   C1A16276   4.950   5.246  19.124 -0.0407  0.0491  0.1555
12255DOPC   D2A16277   4.632   5.446  19.353 -0.3615  0.2851  0.1124
12255DOPC   C3A16278   4.488   5.396  19.749  0.2224  0.1919 -0.1056
12255DOPC   C4A16279   4.347   5.055  20.097  0.1640  0.2274  0.2865
12255DOPC   C1B16280   5.117   4.530  19.333  0.2729  0.1842  0.0689
12255DOPC   D2B16281   5.140   4.384  19.846  0.2428  0.3261 -0.1766
12255DOPC   C3B16282   5.345   4.528  20.217  0.0711  0.0305 -0.2355
12255DOPC   C4B16283   5.716   4.611  20.532 -0.0506 -0.1972  0.1203
12256DOPC   NC316284  12.004   2.625  11.161  0.0021 -0.2971 -0.2687
12256DOPC   PO416285  11.910   2.878  11.445 -0.1962 -0.0304  0.2080
12256DOPC   GL116286  12.329   2.861  11.704 -0.4643 -0.1079  0.0388
12256DOPC   GL216287  12.101   2.853  11.836 -0.2819 -0.0081  0.3902
12256DOPC   C1A16288  12.560   3.071  12.000  0.1108  0.1170 -0.3543
12256DOPC   D2A16289  12.708   3.430  12.307  0.0020  0.2765 -0.3340
12256DOPC   C3A16290  13.151   3.325  12.526 -0.1088  0.4089  0.1978
12256DOPC   C4A16291  13.474   3.326  12.840  0.0163  0.0172  0.0515
12256DOPC   C1B16292  12.112   2.892  12.319 -0.2518  0.1056 -0.0781
12256DOPC   D2B16293  12.282   3.136  12.712  0.0851  0.2436  0.3265
12256DOPC   C3B16294  12.734   3.369  12.817  0.0493  0.4382 -0.3245
12256DOPC   C4B16295  13.098   3.566  13.068  0.0752 -0.2835  0.0032
12257DOPC   NC316296   5.720   3.560  17.855 -0.3068 -0.0320 -0.0136
12257DOPC   PO416297   6.117   3.615  18.019 -0.0103  0.0842 -0.0622
12257DOPC   GL116298   6.422   3.475  18.310 -0.1976  0.2101 -0.1110
12257DOPC   GL216299   6.177   3.225  18.339 -0.1091 -0.1061 -0.1082
12257DOPC   C1A16300   6.683   3.675  18.648 -0.0651  0.1518  0.0609
12257DOPC   D2A16301   7.180   3.732  18.711 -0.1640  0.0693 -0.2260
12257DOPC   C3A16302   7.545   3.855  19.029  0.0097  0.3144 -0.3208
12257DOPC   C4A16303   7.961   3.914  19.223  0.2506 -0.0977  0.0097
12257DOPC   C1B16304   6.302   3.167  18.690  0.2802 -0.3784  0.2447
12257DOPC   D2B16305   6.590   3.136  19.089 -0.1251  0.3105  0.2130
12257DOPC   C3B16306   6.572   2.850  19.457 -0.1208 -0.0543 -0.0378
12257DOPC   C4B16307   6.906   2.678  19.842 -0.1175 -0.0864 -0.4263
12258DOPA   PO416308   1.602   2.409  17.422  0.3330  0.5670 -0.1608
12258DOPA   GL116309   1.370   2.594  17.719  0.0855 -0.1528 -0.0929
12258DOPA   GL216310   1.469   2.416  17.929  0.1059 -0.3803 -0.2524
12258DOPA   C1A16311   1.047   2.609  18.053 -0.1878 -0.1582  0.2915
12258DOPA   D2A16312   0.987   2.754  18.538  0.0461  0.0499 -0.2623
12258DOPA   C3A16313   1.054   3.245  18.733 -0.2815  0.0922  0.0390
12258DOPA   C4A16314   1.167   3.659  18.929  0.0623 -0.2468 -0.0637
12258DOPA   C1B16315   1.407   2.480  18.355 -0.0403 -0.0586  0.0714
12258DOPA   D2B16316   1.192   2.307  18.753  0.0453 -0.1317  0.0895
12258DOPA   C3B16317   0.983   2.524  19.081  0.0385 -0.1043 -0.1590
12258DOPA   C4B16318   0.625   2.503  19.375  0.4104 -0.1027 -0.1299
12259DOPA   PO416319  20.600   3.303  11.432  0.0395 -0.0165  0.0876
12259DOPA   GL116320  20.665   3.389  11.828 -0.0558  0.0788  0.3529
12259DOPA   GL216321  20.592   3.684  11.826  0.2237  0.3279  0.1585
12259DOPA   C1A16322  20.450   3.228  12.167  0.2562  0.2106  0.0092
12259DOPA   D2A16323  20.149   3.450  12.496 -0.0942 -0.1704 -0.2987
12259DOPA   C3A16324  19.882   3.475  12.810 -0.3084  0.4005 -0.1931
12259DOPA   C4A16325  19.602   3.604  13.178  0.1672  0.0643 -0.2449
12259DOPA   C1B16326  20.467   3.739  12.189 -0.2586 -0.0928 -0.2094
12259DOPA   D2B16327  20.244   3.919  12.581 -0.1807 -0.1274  0.0903
12259DOPA   C3B16328  20.429   4.006  12.996 -0.0720 -0.3768 -0.0973
12259DOPA   C4B16329  20.672   4.367  13.202  0.0897  0.0751  0.3464
12260DOPA   PO416330  13.701   0.646  10.805 -0.0721 -0.1449  0.2284
12260DOPA   GL116331  13.683   0.690  11.169 -0.0105  0.3404  0.1617
12260DOPA   GL216332  13.408   0.683  11.200 -0.1072 -0.0650  0.1230
12260DOPA   C1A16333  13.774   0.351  11.512  0.1735  0.3591  0.1738
12260DOPA   D2A16334  13.698   0.257  12.022 -0.3260  0.1548 -0.3194
12260DOPA   C3A16335  13.741   0.540  12.348  0.0628 -0.1485  0.1067
12260DOPA   C4A16336  13.565   0.751  12.777  0.0565  0.1112  0.0269
12260DOPA   C1B16337  13.500   0.852  11.629 -0.1953  0.0763 -0.0500
12260DOPA   D2B16338  13.456   0.963  12.158 -0.1840 -0.1164  0.0052
12260DOPA   C3B16339  13.545   1.300  12.438 -0.0695 -0.2491  0.0179
12260DOPA   C4B16340  13.307   1.576  12.789  0.0108  0.2142  0.0532
12261DOPA   PO416341   5.815   2.656  17.888 -0.1036  0.3815  0.0159
12261DOPA   GL116342   5.969   2.815  18.278 -0.1405 -0.3710 -0.0880
12261DOPA   GL216343   5.745   2.898  18.382  0.4697 -0.1535  0.1037
12261DOPA   C1A16344   6.125   2.650  18.580  0.1728 -0.2414 -0.0317
12261DOPA   D2A16345   6.268   2.201  18.793 -0.1821 -0.1052  0.1610
12261DOPA   C3A16346   6.365   1.899  19.110  0.0512  0.0647  0.2500
12261DOPA   C4A16347   6.649   1.772  19.512  0.1405  0.0698  0.2216
12261DOPA   C1B16348   5.826   3.000  18.826  0.2001  0.0538  0.1122
12261DOPA   D2B16349   6.077   3.255  19.144 -0.0304  0.1443  0.1841
12261DOPA   C3B16350   5.991   3.669  19.406  0.4493 -0.2411 -0.1178
12261DOPA   C4B16351   5.914   4.034  19.733  0.0939  0.2610 -0.4567
12262DOPA   PO416352  23.569   5.128  14.705 -0.1686  0.0166 -0.0065
12262DOPA   GL116353  23.339   4.846  14.905 -0.0205  0.2383 -0.3298
12262DOPA   GL216354  23.155   4.924  14.659  0.0511 -0.0548 -0.2283
12262DOPA   C1A16355  23.036   4.668  15.183  0.2553  0.2181 -0.0261
12262DOPA   D2A16356  22.821   4.558  15.690  0.2128  0.0388 -0.2652
12262DOPA   C3A16357  22.937   4.270  16.059  0.0684 -0.3906  0.0739
12262DOPA   C4A16358  23.123   4.094  16.455 -0.3382 -0.0182  0.2637
12262DOPA   C1B16359  22.671   5.045  14.726  0.1346  0.2749  0.2801
12262DOPA   D2B16360  22.234   5.205  14.995 -0.2498  0.0595  0.1824
12262DOPA   C3B16361  21.984   5.560  14.915 -0.5745 -0.2572  0.2348
12262DOPA   C4B16362  21.907   6.075  14.846 -0.1221 -0.1213  0.0595
12263DOPA   PO416363   7.822   5.315  16.532 -0.1627 -0.1901 -0.1165
12263DOPA   GL116364   8.204   5.494  16.578  0.1565 -0.2212  0.1391
12263DOPA   GL216365   8.246   5.762  16.488  0.0417 -0.0825 -0.0586
12263DOPA   C1A16366   8.441   5.084  16.755  0.2317  0.0915 -0.2076
12263DOPA   D2A16367   8.880   5.166  16.980 -0.1664  0.0455 -0.0958
12263DOPA   C3A16368   8.932   5.223  17.406 -0.1266  0.0901 -0.1099
12263DOPA   C4A16369   8.945   5.231  17.924 -0.2586  0.2042  0.3607
12263DOPA   C1B16370   8.392   5.708  16.934 -0.4523 -0.4797  0.0903
12263DOPA   D2B16371   8.429   5.571  17.402 -0.1524 -0.2727 -0.2509
12263DOPA   C3B16372   8.587   6.011  17.420  0.1832  0.1839  0.1654
12263DOPA   C4B16373   8.656   6.501  17.287 -0.1929 -0.1379  0.0742
12264DOPA   PO416374  24.525   5.658  15.666  0.0952 -0.0572  0.1512
12264DOPA   GL116375  24.265   5.934  15.867 -0.1966  0.0264  0.0702
12264DOPA   GL216376  24.488   6.037  16.029  0.1137 -0.1472  0.1193
12264DOPA   C1A16377  24.053   6.144  16.180 -0.0010  0.4587 -0.1450
12264DOPA   D2A16378  23.618   6.233  16.517 -0.3039 -0.1027 -0.2859
12264DOPA   C3A16379  23.531   6.511  16.850  0.3428  0.0610  0.2531
12264DOPA   C4A16380  23.411   6.877  17.256 -0.1791 -0.2654 -0.0351
12264DOPA   C1B16381  24.519   6.229  16.494 -0.0598  0.1289 -0.3061
12264DOPA   D2B16382  24.096   6.504  16.692 -0.2606  0.1595  0.1493
12264DOPA   C3B16383  23.764   6.909  16.684  0.3663 -0.2204 -0.0655
12264DOPA   C4B16384  23.421   7.265  16.619 -0.0501  0.1845 -0.4558
12265DOPA   PO416385  23.584   5.846  14.289 -0.1205 -0.3481 -0.2910
12265DOPA   GL116386  23.313   6.046  14.705  0.0390  0.0996  0.2917
12265DOPA   GL216387  23.130   5.815  14.674 -0.3106  0.0622 -0.4210
12265DOPA   C1A16388  23.232   6.291  15.121 -0.2041  0.0792  0.2553
12265DOPA   D2A16389  23.336   6.090  15.562  0.1258  0.0244 -0.2137
12265DOPA   C3A16390  22.889   6.079  15.739  0.0050 -0.0707  0.0072
12265DOPA   C4A16391  22.514   6.197  15.978  0.2518  0.0771  0.0698
12265DOPA   C1B16392  22.822   5.632  14.960  0.3079  0.2119  0.0378
12265DOPA   D2B16393  22.537   5.406  15.333 -0.1040 -0.2217 -0.2555
12265DOPA   C3B16394  22.027   5.423  15.434  0.2142  0.0380  0.2694
12265DOPA   C4B16395  21.652   5.439  15.786  0.0090 -0.2878  0.0188
12266DOPA   PO416396  17.949   0.841  10.584  0.2555  0.1422 -0.0368
12266DOPA   GL116397  17.834   0.994  10.933  0.1604  0.0675  0.2861
12266DOPA   GL216398  17.545   1.107  10.811  0.2264 -0.2283 -0.1262
12266DOPA   C1A16399  17.767   0.810  11.364 -0.1861  0.2089  0.0053
12266DOPA   D2A16400  17.544   0.509  11.662 -0.1468  0.0314 -0.1856
12266DOPA   C3A16401  17.574   0.476  12.134 -0.0390  0.0607  0.0522
12266DOPA   C4A16402  17.481   0.408  12.600 -0.0155  0.0806  0.1719
12266DOPA   C1B16403  17.251   1.312  11.079 -0.5295 -0.0491 -0.0966
12266DOPA   D2B16404  17.085   1.474  11.530 -0.1199  0.2401  0.2478
12266DOPA   C3B16405  17.119   1.350  11.904  0.0725 -0.3049  0.2724
12266DOPA   C4B16406  17.208   1.164  12.350  0.0779  0.1448 -0.2688
12267DOPA   PO416407  15.032   5.584  10.517  0.1213  0.1838  0.0354
12267DOPA   GL116408  15.058   5.703  10.858 -0.1187  0.1849 -0.3314
12267DOPA   GL216409  15.011   5.944  10.809  0.1137 -0.1212 -0.2158
12267DOPA   C1A16410  15.475   5.772  11.147  0.0264  0.1335  0.2944
12267DOPA   D2A16411  15.937   5.697  11.446 -0.0388  0.1829  0.3543
12267DOPA   C3A16412  15.901   5.282  11.576  0.0739  0.1004 -0.3134
12267DOPA   C4A16413  16.227   5.053  11.912  0.2696 -0.1677  0.1131
12267DOPA   C1B16414  15.055   6.149  11.249  0.2378  0.0909  0.0469
12267DOPA   D2B16415  15.239   6.365  11.702  0.3624  0.1684  0.2465
12267DOPA   C3B16416  15.276   6.476  12.154  0.1221  0.0102  0.0029
12267DOPA   C4B16417  14.976   6.668  12.490  0.2388  0.0551 -0.0954
12268DOPA   PO416418   4.907   7.636  18.275  0.1653  0.1691  0.3300
12268DOPA   GL116419   4.885   7.521  18.715  0.4440  0.1549 -0.3368
12268DOPA   GL216420   4.894   7.763  18.809  0.2871  0.2882  0.2484
12268DOPA   C1A16421   5.074   7.241  19.007 -0.1581 -0.1222  0.3038
12268DOPA   D2A16422   5.213   7.406  19.443  0.1556  0.0124  0.2682
12268DOPA   C3A16423   5.033   7.773  19.670 -0.0573  0.0733  0.1834
12268DOPA   C4A16424   4.820   7.798  20.076  0.0475  0.0466 -0.1597
12268DOPA   C1B16425   5.100   7.793  19.148  0.0372  0.2506 -0.0156
12268DOPA   D2B16426   5.521   8.014  19.298 -0.1695  0.2693  0.1948
12268DOPA   C3B16427   5.876   8.085  19.606  0.2704  0.1099  0.1171
12268DOPA   C4B16428   6.222   8.184  19.898  0.2999  0.0106 -0.0913
12269DOPA   PO416429  24.382   4.778  15.070 -0.1530 -0.0728  0.1209
12269DOPA   GL116430  24.211   4.619  15.389  0.2493 -0.2820  0.0033
12269DOPA   GL216431  24.165   4.962  15.399  0.0712 -0.2844  0.1361
12269DOPA   C1A16432  24.264   4.564  15.834 -0.1509  0.4762 -0.3134
12269DOPA   D2A16433  24.467   4.678  16.217 -0.2754  0.1793  0.0484
12269DOPA   C3A16434  24.168   4.746  16.569  0.0043 -0.0446 -0.2995
12269DOPA   C4A16435  23.842   5.107  16.517  0.2809  0.1442  0.3532
12269DOPA   C1B16436  23.840   5.065  15.654  0.5063 -0.0642 -0.1998
12269DOPA   D2B16437  23.532   5.229  16.065 -0.1545 -0.0207  0.0239
12269DOPA   C3B16438  23.072   5.189  16.137 -0.1735 -0.2111 -0.0409
12269DOPA   C4B16439  22.621   5.226  16.024  0.0123  0.1054 -0.1706
12270DOPA   PO416440  21.030   5.653  12.188 -0.2138  0.2665  0.1653
12270DOPA   GL116441  20.906   5.689  12.554 -0.0544 -0.2930  0.2591
12270DOPA   GL216442  21.012   5.444  12.710 -0.0096 -0.0220  0.5073
12270DOPA   C1A16443  20.515   5.894  12.597  0.0329 -0.0639 -0.2625
12270DOPA   D2A16444  20.096   6.165  12.706  0.0651  0.2755 -0.2986
12270DOPA   C3A16445  19.781   6.219  13.047  0.1030 -0.0204  0.1012
12270DOPA   C4A16446  19.378   6.397  13.267 -0.0659 -0.1789 -0.0257
12270DOPA   C1B16447  20.528   5.370  12.680  0.2752 -0.0143 -0.1500
12270DOPA   D2B16448  20.121   5.641  12.942 -0.0648  0.0818  0.0414
12270DOPA   C3B16449  19.940   5.814  13.304 -0.1287  0.2186 -0.1666
12270DOPA   C4B16450  19.730   5.927  13.728  0.1952 -0.0220 -0.1378
12271DOPA   PO416451  15.764   1.554  10.502 -0.0211  0.2742 -0.1647
12271DOPA   GL116452  15.756   1.386  10.903 -0.1644 -0.2192 -0.1425
12271DOPA   GL216453  15.466   1.544  10.851  0.0952  0.2859  0.0198
12271DOPA   C1A16454  16.128   1.299  11.149  0.5603 -0.0109  0.1078
12271DOPA   D2A16455  16.343   1.265  11.528  0.0370 -0.1252 -0.0851
12271DOPA   C3A16456  16.176   1.317  11.944 -0.1136  0.1030 -0.2002
12271DOPA   C4A16457  16.306   1.227  12.404 -0.0549 -0.1125 -0.1550
12271DOPA   C1B16458  15.539   1.797  11.167 -0.0580 -0.0235  0.1408
12271DOPA   D2B16459  15.491   1.974  11.629 -0.1325  0.0785 -0.2853
12271DOPA   C3B16460  15.835   1.725  11.962 -0.1894 -0.4385  0.1578
12271DOPA   C4B16461  15.972   1.586  12.390  0.2907 -0.0217 -0.0791
12272DOPA   PO416462   4.144   0.362  18.639  0.1850  0.3526  0.0612
12272DOPA   GL116463   4.201   0.346  19.049 -0.3027 -0.0062 -0.4348
12272DOPA   GL216464   4.151   0.064  19.076 -0.4435  0.0671 -0.2670
12272DOPA   C1A16465   4.413   0.517  19.289 -0.0390 -0.2035  0.0905
12272DOPA   D2A16466   4.725   0.780  19.611  0.3629 -0.0493  0.2744
12272DOPA   C3A16467   4.937   0.916  19.986 -0.1737  0.0475  0.0860
12272DOPA   C4A16468   5.163   1.109  20.383  0.0396 -0.2273  0.0833
12272DOPA   C1B16469   4.248  -0.001  19.470  0.1150 -0.0072  0.1233
12272DOPA   D2B16470   4.332  -0.301  19.834 -0.0085 -0.0093 -0.2452
12272DOPA   C3B16471   4.507  -0.477  20.199  0.0511 -0.1481 -0.0572
12272DOPA   C4B16472   4.687  -0.771  20.509 -0.0191 -0.2906  0.0001
12273DOPA   PO416473  18.953   6.784  10.886  0.0988 -0.3008 -0.1826
12273DOPA   GL116474  18.969   6.980  11.309  0.0395  0.0911 -0.4150
12273DOPA   GL216475  18.702   6.904  11.254 -0.0314  0.1522 -0.1493
12273DOPA   C1A16476  18.914   7.079  11.730  0.0250 -0.1289 -0.2429
12273DOPA   D2A16477  18.802   6.987  12.177  0.0218 -0.1441  0.2063
12273DOPA   C3A16478  18.741   7.347  12.422  0.0174 -0.1471  0.2893
12273DOPA   C4A16479  18.678   7.652  12.851  0.2118  0.0601  0.1813
12273DOPA   C1B16480  18.504   7.241  11.587  0.0672  0.4039  0.0638
12273DOPA   D2B16481  18.368   7.201  12.040 -0.2820 -0.0273  0.0441
12273DOPA   C3B16482  18.094   7.489  12.210 -0.1237  0.0084 -0.4389
12273DOPA   C4B16483  18.231   7.733  12.606 -0.1352  0.0167  0.0725
12274DOPA   PO416484   8.414   2.502  15.331 -0.0476 -0.2084  0.2040
12274DOPA   GL116485   8.842   2.505  15.484  0.1153  0.2072  0.1763
12274DOPA   GL216486   8.774   2.303  15.690  0.5754 -0.1257 -0.3352
12274DOPA   C1A16487   9.065   2.724  15.802  0.2536  0.1971  0.0144
12274DOPA   D2A16488   9.511   2.626  15.955 -0.0398  0.1783  0.1790
12274DOPA   C3A16489   9.822   2.459  16.276  0.1274  0.3189  0.2055
12274DOPA   C4A16490   9.973   2.066  16.490 -0.0412  0.0864  0.3441
12274DOPA   C1B16491   9.182   2.245  15.664  0.1270  0.0377 -0.2596
12274DOPA   D2B16492   9.663   2.404  15.487 -0.0828  0.1772 -0.0204
12274DOPA   C3B16493  10.006   2.427  15.794  0.1823 -0.5086  0.0551
12274DOPA   C4B16494  10.246   2.567  16.149  0.1157  0.1224 -0.2215
12275DOPA   PO416495  10.026   0.639  13.139  0.2979 -0.2086  0.0441
12275DOPA   GL116496  10.271   0.746  13.497 -0.1780 -0.2113 -0.1473
12275DOPA   GL216497  10.522   0.794  13.375 -0.2645 -0.0184 -0.0579
12275DOPA   C1A16498  10.446   0.630  13.923  0.1272  0.0286  0.0147
12275DOPA   D2A16499  10.911   0.722  14.135  0.1856 -0.2637  0.2053
12275DOPA   C3A16500  11.180   0.510  14.484  0.1700 -0.3478  0.3128
12275DOPA   C4A16501  11.333   0.100  14.803  0.1076  0.1373 -0.0837
12275DOPA   C1B16502  10.816   0.915  13.678 -0.0548 -0.3078  0.2731
12275DOPA   D2B16503  11.216   1.094  13.962  0.0538  0.0368 -0.0702
12275DOPA   C3B16504  11.228   1.425  14.322 -0.2217 -0.1374  0.0571
12275DOPA   C4B16505  11.365   1.673  14.708 -0.1711  0.1094 -0.1243
12276DOPA   PO416506  10.514   7.405  13.235  0.1045  0.1927 -0.0199
12276DOPA   GL116507  10.711   7.197  13.491  0.0196  0.1737 -0.1894
12276DOPA   GL216508  10.932   7.290  13.514  0.5982  0.3183  0.1249
12276DOPA   C1A16509  10.715   6.869  13.743 -0.0815 -0.2237  0.0515
12276DOPA   D2A16510  11.030   6.726  14.019  0.5164 -0.0941 -0.2330
12276DOPA   C3A16511  10.887   6.330  14.179 -0.1383 -0.0667 -0.0810
12276DOPA   C4A16512  10.575   5.973  14.111  0.2290  0.0543  0.1616
12276DOPA   C1B16513  11.143   7.158  13.801 -0.0558 -0.3352  0.0097
12276DOPA   D2B16514  11.383   6.984  14.151 -0.3286 -0.0677 -0.3027
12276DOPA   C3B16515  11.352   6.566  14.437  0.0735  0.1747 -0.2854
12276DOPA   C4B16516  11.232   6.080  14.582 -0.2132  0.0827  0.0188
12277DOPA   PO416517   9.895   2.356  12.910 -0.3671 -0.2731 -0.1125
12277DOPA   GL116518  10.145   2.250  13.276 -0.0216 -0.1204  0.1130
12277DOPA   GL216519   9.977   2.275  13.453  0.0470  0.0094 -0.0783
12277DOPA   C1A16520  10.533   2.285  13.443 -0.1846  0.1368 -0.2821
12277DOPA   D2A16521  10.918   2.526  13.686  0.2448  0.0481  0.1321
12277DOPA   C3A16522  11.235   2.491  13.987 -0.0365 -0.2008 -0.2146
12277DOPA   C4A16523  11.647   2.367  14.250 -0.3059  0.0723  0.1144
12277DOPA   C1B16524  10.074   2.327  13.908  0.0426 -0.1913  0.0039
12277DOPA   D2B16525  10.136   2.111  14.347 -0.4009 -0.0144  0.0842
12277DOPA   C3B16526  10.224   1.925  14.729  0.2693  0.2607 -0.0889
12277DOPA   C4B16527  10.542   1.859  15.073 -0.0856 -0.0824 -0.0247
12278DOPA   PO416528  22.375   4.933  13.291 -0.0848 -0.3485  0.3551
12278DOPA   GL116529  22.031   4.909  13.622  0.1326  0.2994 -0.1637
12278DOPA   GL216530  22.168   4.634  13.573 -0.1703 -0.0514 -0.0473
12278DOPA   C1A16531  21.771   4.719  13.894 -0.2895 -0.1622 -0.0103
12278DOPA   D2A16532  21.377   4.580  14.208 -0.3995  0.0309  0.0111
12278DOPA   C3A16533  21.305   4.187  14.379  0.0260 -0.4573 -0.3052
12278DOPA   C4A16534  21.360   3.750  14.627  0.2216 -0.0708 -0.0658
12278DOPA   C1B16535  21.839   4.260  13.559 -0.0622 -0.2364  0.3109
12278DOPA   D2B16536  21.533   3.895  13.728 -0.0146  0.3898  0.3825
12278DOPA   C3B16537  21.151   3.906  13.967  0.0802  0.0082  0.0072
12278DOPA   C4B16538  20.638   3.806  13.996  0.2567  0.0055  0.3045
12279DOPA   PO416539  21.053   1.041  12.465 -0.0381 -0.0802  0.1449
12279DOPA   GL116540  20.724   0.967  12.601 -0.0190 -0.0147  0.1844
12279DOPA   GL216541  20.707   0.675  12.499 -0.0627 -0.1362  0.0601
12279DOPA   C1A16542  20.627   1.090  13.021 -0.2424  0.0745  0.3186
12279DOPA   D2A16543  20.376   0.969  13.387 -0.1026 -0.2710 -0.4009
12279DOPA   C3A16544  20.467   0.921  13.861  0.0313 -0.0557  0.3347
12279DOPA   C4A16545  20.562   0.803  14.274  0.0897 -0.2795 -0.0460
12279DOPA   C1B16546  20.431   0.329  12.714  0.1431 -0.2818  0.1072
12279DOPA   D2B16547  20.333   0.209  13.158 -0.2429  0.0048  0.0127
12279DOPA   C3B16548  20.059  -0.010  13.496 -0.4273 -0.4088  0.1161
12279DOPA   C4B16549  19.735  -0.200  13.830 -0.1886 -0.0462 -0.0867
12280DOPA   PO416550  21.557   7.058  12.617  0.1656  0.0177  0.0819
12280DOPA   GL116551  21.347   6.780  12.915 -0.1008  0.0814 -0.3168
12280DOPA   GL216552  21.050   7.018  12.860 -0.1036  0.1911 -0.1508
12280DOPA   C1A16553  21.274   6.806  13.358  0.0965 -0.1214 -0.1068
12280DOPA   D2A16554  21.106   6.457  13.633 -0.0465  0.1401 -0.0649
12280DOPA   C3A16555  20.702   6.244  13.799  0.1436 -0.0685  0.0151
12280DOPA   C4A16556  20.260   6.232  13.608  0.0835 -0.1691  0.0645
12280DOPA   C1B16557  20.934   7.146  13.273  0.2073 -0.2940 -0.1433
12280DOPA   D2B16558  20.900   7.146  13.751  0.0526  0.0398  0.3745
12280DOPA   C3B16559  20.537   7.167  14.032 -0.1806 -0.0920 -0.0452
12280DOPA   C4B16560  20.062   7.125  14.049 -0.1953  0.0567 -0.2245
12281DOPA   PO416561  20.034   0.962  11.465  0.1198  0.0181  0.0558
12281DOPA   GL116562  19.876   1.231  11.758  0.1621 -0.5168  0.3344
12281DOPA   GL216563  19.676   1.293  11.543 -0.0481  0.2380  0.0689
12281DOPA   C1A16564  19.804   1.393  12.146  0.1651  0.0640 -0.0219
12281DOPA   D2A16565  19.521   1.588  12.462 -0.3655  0.1829 -0.0676
12281DOPA   C3A16566  19.393   1.724  12.904  0.2955 -0.3759  0.3175
12281DOPA   C4A16567  19.194   1.779  13.383  0.3674  0.1688  0.3069
12281DOPA   C1B16568  19.295   1.197  11.699  0.0137 -0.3046 -0.2603
12281DOPA   D2B16569  18.951   1.010  12.045  0.0101  0.1017 -0.0382
12281DOPA   C3B16570  18.848   1.017  12.534  0.1542 -0.2440  0.1142
12281DOPA   C4B16571  18.721   0.976  12.965 -0.2066  0.0434 -0.0717
12282DOPA   PO416572  12.053   4.212  11.119 -0.2480  0.1029 -0.2362
12282DOPA   GL116573  12.372   4.074  11.381 -0.2564  0.2094 -0.1485
12282DOPA   GL216574  12.585   4.090  11.268  0.1263 -0.0868  0.0268
12282DOPA   C1A16575  12.381   4.326  11.748  0.1472  0.1404  0.1474
12282DOPA   D2A16576  12.475   4.656  12.039  0.0083  0.2725  0.1114
12282DOPA   C3A16577  12.885   4.809  12.182 -0.1842  0.2347  0.2690
12282DOPA   C4A16578  13.333   5.080  12.161 -0.0287 -0.1481 -0.1958
12282DOPA   C1B16579  12.816   4.022  11.648 -0.0286 -0.0083 -0.0613
12282DOPA   D2B16580  12.775   4.062  12.171  0.0697 -0.1041 -0.0923
12282DOPA   C3B16581  13.173   4.184  12.251 -0.0625 -0.0863 -0.1578
12282DOPA   C4B16582  13.311   4.558  12.468 -0.3232  0.1175  0.1247
12283W        W16583   4.324   4.315  26.368  0.0030 -0.1311 -0.1514
12284W        W16584  22.695   2.481  28.235  0.1148  0.0510  0.0578
12285W        W16585  19.935   1.128  23.251  0.2703  0.2629 -0.1141
12286W        W16586  10.917   0.767   8.644 -0.2399 -0.1140 -0.0200
12287W        W16587   0.657   7.726  32.813 -0.3669  0.1486  0.1320
12288W        W16588  17.212   1.761   7.086  0.0562 -0.0654  0.2378
12289W        W16589   0.413   2.424   0.776  0.2534  0.1367 -0.1574
12290W        W16590  15.720   4.828  14.842 -0.1009 -0.2121 -0.0181
12291W        W16591  14.481   4.881   4.097 -0.2510  0.0299  0.0027
12292W        W16592  21.099   2.242  18.742 -0.1114  0.0398 -0.1485
12293W        W16593  17.596   4.129  18.285 -0.2301  0.2614 -0.3813
12294W        W16594  20.911   0.824  19.158  0.0686  0.0529  0.0897
12295W        W16595  24.735   4.627   7.677 -0.2333  0.0146  0.0218
12296W        W16596  15.945   7.148  21.887 -0.1181  0.1433 -0.1644
12297W        W16597  23.406   4.275   1.771 -0.0499 -0.0966  0.0386
12298W        W16598   6.096   3.926  24.935  0.1551  0.1908  0.0015
12299W        W16599  20.262   5.536   8.565 -0.0800  0.1185 -0.2233
12300W        W16600   7.489   1.286   5.966 -0.0295 -0.1891 -0.0936
12301W        W16601  19.265   0.177  23.124 -0.2585  0.2446 -0.1162
12302W        W16602  20.497   3.707  24.885 -0.0058  0.0717  0.3780
12303W        W16603  12.421   0.734  28.182  0.1571 -0.2839  0.1644
12304W        W16604  14.542   1.419   2.261  0.0616 -0.1633  0.3081
12305W        W16605   7.065   3.923  12.723 -0.2307 -0.1527 -0.2589
12306W        W16606   6.925   4.583  29.614  0.2322 -0.1830 -0.0294
12307W        W16607   0.678   6.669  26.842 -0.0830  0.0172 -0.1884
12308W        W16608   4.913   1.019  27.741  0.0389 -0.0374  0.0200
12309W        W16609   5.063   0.880  32.233 -0.0608 -0.1069 -0.0467
12310W        W16610  11.321   6.972   8.178 -0.1442  0.0008  0.1097
12311W        W16611   7.558   5.818   3.432 -0.3298  0.1343 -0.0418
12312W        W16612  15.884   5.367  15.872  0.0833 -0.0754 -0.0242
12313W        W16613   8.683   3.070  27.818 -0.2750 -0.0177  0.2066
12314W        W16614  10.282   6.295  25.947  0.3883  0.2137 -0.0256
12315W        W16615   4.354   6.620  26.617  0.0580  0.2539  0.0906
12316W        W16616   2.439   4.454   9.503  0.3724 -0.0505  0.2035
12317W        W16617   5.653   2.408  31.668 -0.0000 -0.0472  0.2266
12318W        W16618  21.198   6.581   9.686  0.0771  0.2012 -0.0629
12319W        W16619  18.845   7.103  30.226  0.1903  0.0062 -0.3307
12320W        W16620  14.804   5.817  20.763  0.3742 -0.0010  0.0739
12321W        W16621  13.511   5.047  20.526 -0.1545  0.0697  0.0188
12322W        W16622  23.064   7.223   8.193  0.0523  0.1674  0.2494
12323W        W16623  15.530   3.528   7.095  0.1563  0.0605 -0.0660
12324W        W16624  18.055   2.630  24.165 -0.0667 -0.1573 -0.1427
12325W        W16625   3.059   5.546  12.719 -0.2974  0.1146 -0.2635
12326W        W16626   4.681   3.953  14.370  0.1574 -0.0442  0.3005
12327W        W16627   2.559   0.573  13.612  0.0263 -0.2316  0.3097
12328W        W16628  10.336   4.069  21.578 -0.0664  0.0226  0.0298
12329W        W16629   1.179   2.521   1.368 -0.0634 -0.1106  0.0697
12330W        W16630   5.286   4.982   1.809  0.1019 -0.0582 -0.1922
12331W        W16631  24.070   7.282  14.230 -0.0535 -0.2169  0.1169
12332W        W16632  16.150   1.043  28.730 -0.1358 -0.1858  0.1282
12333W        W16633  11.602   2.168   9.826  0.1950 -0.0014 -0.0629
12334W        W16634   4.658   0.407  31.621 -0.0112  0.0476 -0.2051
12335W        W16635  12.021   2.119  25.055 -0.4090 -0.2093  0.0974
12336W        W16636   9.407   1.238  13.452 -0.2203 -0.0520  0.1414
12337W        W16637  16.885   6.677  18.624  0.0183 -0.3591  0.3081
12338W        W16638   9.897   4.881  11.403  0.0318  0.2446 -0.0862
12339W        W16639  11.965   5.414  19.773  0.0217  0.2760 -0.1761
12340W        W16640   7.536   0.784  24.223  0.0931  0.1093 -0.2333
12341W        W16641   7.403   0.331  24.451 -0.0165  0.0223 -0.1834
12342W        W16642   5.221   1.240   7.280 -0.0588 -0.0807 -0.1339
12343W        W16643  15.606   0.218  25.955 -0.1771  0.1703  0.0074
12344W        W16644  13.236   7.657  26.894 -0.1903  0.2703 -0.1615
12345W        W16645  16.294   3.787  31.272  0.0096 -0.0846  0.0999
12346W        W16646  20.766   2.914  22.745 -0.0923  0.0345  0.0966
12347W        W16647   6.606   0.284   5.298 -0.0538 -0.4887  0.2219
12348W        W16648   0.840   6.532   7.682  0.1178  0.0448 -0.0326
12349W        W16649  10.369   2.011  12.094 -0.2023  0.3053 -0.0297
12350W        W16650   6.475   2.013  10.984  0.0757 -0.1950  0.3063
12351W        W16651  16.233   3.836   9.498  0.0353 -0.1105  0.0698
12352W        W16652  21.787   5.902  26.722 -0.2220  0.0032 -0.3655
12353W        W16653   0.366   0.014  12.517 -0.0685  0.0417 -0.3325
12354W        W16654   9.033   6.403   2.535  0.0908  0.1382 -0.1730
12355W        W16655   5.912   3.487  22.387 -0.0396  0.1052  0.0235
12356W        W16656   1.705   4.877   8.239 -0.2560 -0.0593 -0.0502
12357W        W16657   5.807   6.948   1.947  0.3445  0.1501  0.0307
12358W        W16658  16.498   4.404  32.176 -0.0421  0.0889 -0.2182
12359W        W16659  19.166   0.157  11.347 -0.2267  0.4883 -0.2445
12360W        W16660   9.918   5.618   3.568 -0.0261  0.0546  0.0848
12361W        W16661  21.819   4.930  32.042  0.0505  0.1416  0.0366
12362W        W16662   8.536   6.666   6.267 -0.0780  0.0679  0.2269
12363W        W16663  20.938   0.374   6.686  0.0666  0.2169  0.2176
12364W        W16664  12.135   6.749   2.179  0.0947 -0.2805 -0.1668
12365W        W16665  17.785   2.618  19.300  0.0251 -0.3035 -0.1958
12366W        W16666   4.391   2.510  15.651 -0.3011 -0.0734 -0.2151
12367W        W16667  19.769   6.342  20.144  0.0769  0.4125 -0.1349
12368W        W16668  23.411   3.553   2.532  0.2138 -0.0719  0.1554
12369W        W16669   6.096   6.861   3.853  0.0533 -0.1879  0.6119
12370W        W16670   5.833   7.440  28.964 -0.3419  0.0531 -0.2349
12371W        W16671  15.431   6.437  19.992  0.2556  0.0622  0.0352
12372W        W16672  23.080   5.292  28.858 -0.1774  0.1536  0.0302
12373W        W16673  10.070   5.183   5.091  0.0308  0.0052  0.0008
12374W        W16674  10.168   2.710  22.135  0.0540  0.0121 -0.1114
12375W        W16675  21.117   1.156  24.625  0.1225 -0.0074 -0.0293
12376W        W16676  10.809   4.432  22.215  0.0971  0.2913  0.0805
12377W        W16677   4.702   4.866   0.674 -0.4047  0.0185 -0.2766
12378W        W16678  24.133   2.817  29.863  0.0035 -0.3364  0.0466
12379W        W16679  21.485   4.695  25.345 -0.0060  0.1294 -0.1533
12380W        W16680  14.296   5.841   0.027 -0.0655  0.0199  0.0972
12381W        W16681  20.882   7.051   1.344  0.1202 -0.0359 -0.0215
12382W        W16682   5.926   7.747  31.972 -0.0621 -0.0212  0.0940
12383W        W16683  23.830   0.813  11.249  0.1242 -0.2696 -0.0408
12384W        W16684  24.853   5.031   0.418  0.0327  0.1825 -0.0952
12385W        W16685  18.583   5.126  30.855  0.0844  0.0107  0.0130
12386W        W16686   1.362   3.735   9.314  0.0476  0.1944 -0.0034
12387W        W16687   3.189   0.986  18.323 -0.3725  0.2604 -0.0240
12388W        W16688   4.885   7.486  28.930 -0.0370  0.0894 -0.0317
12389W        W16689   1.316   5.586  15.907 -0.0698  0.0490  0.2134
12390W        W16690  15.104   4.446   1.130 -0.0436  0.1898  0.1158
12391W        W16691  19.179   2.578   8.280 -0.2895  0.5169 -0.0426
12392W        W16692   9.620   2.947  27.159  0.0970  0.1693  0.1282
12393W        W16693   2.025   6.878  14.327  0.1136  0.2596  0.3312
12394W        W16694   3.946   4.912   8.733  0.1342 -0.2190 -0.1169
12395W        W16695   9.078   3.058   3.249 -0.2001 -0.0937 -0.0985
12396W        W16696  12.987   1.097  30.039 -0.2268 -0.2301 -0.3314
12397W        W16697   8.984   6.227   8.684  0.0958  0.4537  0.0649
12398W        W16698  20.383   7.338  25.361  0.2810  0.1834  0.3443
12399W        W16699  16.731   3.780  15.354  0.1157  0.0170  0.2650
12400W        W16700  19.479   0.533   5.916  0.1944  0.3033  0.2229
12401W        W16701   5.992   5.087  29.615  0.0732  0.2495  0.2403
12402W        W16702  12.639   6.159  24.372 -0.1051  0.0781 -0.0383
12403W        W16703   4.901   4.981  25.800 -0.0949 -0.0591 -0.4220
12404W        W16704   0.032   7.002  21.233 -0.1628  0.1057 -0.5497
12405W        W16705  15.838   7.305   7.600 -0.0047  0.0110 -0.2232
12406W        W16706  18.814   1.896   8.878  0.3839 -0.1318 -0.1683
12407W        W16707  10.118   4.944  29.970 -0.3036  0.1406 -0.2547
12408W        W16708  17.344   5.109   6.742 -0.0800 -0.2266  0.1742
12409W        W16709   5.260   4.807  16.408  0.2544 -0.2133 -0.1052
12410W        W16710  16.638   4.123   6.864  0.1073 -0.1249  0.0640
12411W        W16711   0.338   0.499   5.172  0.3261  0.0765  0.0148
12412W        W16712  21.536   7.713  21.077  0.4551 -0.0498  0.0074
12413W        W16713  11.456   3.808   9.659 -0.0702 -0.1639 -0.0602
12414W        W16714   3.660   0.645  31.783 -0.1013 -0.0220  0.0102
12415W        W16715   4.318   0.915  27.403 -0.2419 -0.1702 -0.0940
12416W        W16716   3.131   5.630  22.999 -0.1862  0.2094  0.2390
12417W        W16717  23.538   0.254   4.988 -0.0751 -0.0573  0.1094
12418W        W16718  15.684   0.230  24.417 -0.1058 -0.0400  0.0743
12419W        W16719  13.823   7.501   7.825 -0.0335 -0.1436  0.6998
12420W        W16720  20.331   5.785  17.664 -0.3068  0.0580  0.0851
12421W        W16721  17.867   1.644  26.120  0.1010  0.1098 -0.0775
12422W        W16722   4.454   3.884   6.998 -0.0701 -0.0524  0.3003
12423W        W16723   5.111   4.482   9.920 -0.0922  0.1228 -0.3810
12424W        W16724   7.575   5.049   3.435 -0.0283 -0.0468  0.2625
12425W        W16725  16.029   0.377  18.628  0.2477 -0.3511  0.1471
12426W        W16726  14.290   0.146  29.092  0.1623  0.0983  0.0931
12427W        W16727  11.864   0.263   6.277 -0.3473  0.1443  0.0287
12428W        W16728  24.585   4.241  28.847 -0.1993 -0.1912 -0.0833
12429W        W16729  12.050   4.540  20.012  0.1786  0.1729  0.2026
12430W        W16730   0.800   4.744   3.256  0.0090  0.1966  0.1829
12431W        W16731  13.461   6.933   9.439 -0.0752 -0.1927  0.1419
12432W        W16732  18.443   0.113  22.242 -0.0077 -0.0079 -0.1169
12433W        W16733  12.139   5.037   7.755  0.0054 -0.3016 -0.0297
12434W        W16734  20.772   6.561  17.944 -0.1204  0.0715  0.0488
12435W        W16735  16.324   1.705  15.714 -0.1070 -0.1859  0.0127
12436W        W16736   5.874   7.740  13.643 -0.1721  0.3774 -0.2985
12437W        W16737   5.901   3.647  13.035  0.1248  0.1059 -0.2520
12438W        W16738   5.552   2.554  25.076  0.0911 -0.1501  0.1586
12439W        W16739   3.304   2.473  14.885  0.1700 -0.0938  0.0876
12440W        W16740  21.960   5.886  19.926 -0.0487 -0.1150  0.2413
12441W        W16741   1.690   7.734  25.899 -0.1640 -0.2118 -0.0469
12442W        W16742  17.406   4.910  32.731 -0.1881 -0.0090  0.2363
12443W        W16743   0.450   1.946  32.904 -0.1232  0.0893  0.1931
12444W        W16744  24.468   4.308  10.917  0.2357 -0.0309 -0.2808
12445W        W16745   7.339   5.727  14.766  0.0840 -0.1260 -0.1727
12446W        W16746  14.348   0.286  23.947  0.1095 -0.2399  0.0815
12447W        W16747  20.211   5.827   6.878 -0.1451 -0.1973 -0.3584
12448W        W16748  22.208   1.920  22.258 -0.1470  0.1791 -0.0303
12449W        W16749   0.916   5.471  11.864  0.1882 -0.1105  0.0631
12450W        W16750  10.744   2.731  11.720 -0.1488 -0.3855 -0.1405
12451W        W16751  22.566   4.516  28.496 -0.0363  0.3202 -0.1096
12452W        W16752  12.774   4.675  17.459 -0.1054 -0.2486 -0.0289
12453W        W16753  16.409   4.280   3.233  0.2821  0.1516 -0.0812
12454W        W16754  14.140   6.264  17.419 -0.0547 -0.1646  0.0703
12455W        W16755  22.149   1.915  11.330  0.0320 -0.0811 -0.2508
12456W        W16756  20.585   7.216   4.309  0.0641 -0.2227 -0.2222
12457W        W16757  11.366   3.506  31.381  0.2430 -0.0733  0.2487
12458W        W16758   9.830   1.949  22.618 -0.1044 -0.2451  0.2089
12459W        W16759   2.284   1.506   8.348  0.0037  0.1709 -0.0200
12460W        W16760   5.825   2.071  27.514 -0.0345  0.0127  0.0465
12461W        W16761   4.738   7.467   7.696 -0.2019  0.0894 -0.3095
12462W        W16762   5.291   3.523   6.023 -0.1179 -0.0942 -0.1675
12463W        W16763  12.467   2.879  27.824 -0.2212 -0.0828  0.0015
12464W        W16764  23.867   3.419  24.783 -0.1868  0.1830 -0.2095
12465W        W16765  13.256   3.752  23.963 -0.0123  0.3120  0.1678
12466W        W16766  18.551   6.325  17.564 -0.1903 -0.1933 -0.0364
12467W        W16767  12.086   5.355  28.801  0.2404 -0.1579  0.1609
12468W        W16768  15.215   0.411  31.275  0.2920  0.1149  0.1294
12469W        W16769   5.245   7.136  25.427 -0.0142 -0.0808  0.2164
12470W        W16770   5.617   0.967   1.584 -0.1980  0.5324 -0.0169
12471W        W16771  21.276   3.953  31.231 -0.2186  0.3940 -0.2166
12472W        W16772   7.908   1.105  25.198  0.3742 -0.2471  0.0680
12473W        W16773   9.562   6.095   4.785 -0.1618 -0.0091  0.2609
12474W        W16774   3.356   7.481   5.397 -0.0175  0.3283  0.0945
12475W        W16775   8.539   1.601   2.141 -0.1024 -0.2270 -0.1046
12476W        W16776   2.726   3.865  17.602  0.1243  0.0965 -0.2081
12477W        W16777  13.162   6.370   3.731  0.2665  0.1507  0.2127
12478W        W16778   4.025   0.398  27.698 -0.0386  0.1133  0.1644
12479W        W16779   7.785   5.431  30.568  0.1295 -0.1532  0.0177
12480W        W16780  24.964   6.607  26.576 -0.1624 -0.0469  0.1954
12481W        W16781  16.276   0.091  26.150 -0.3016 -0.0250  0.0786
12482W        W16782   0.173   3.257   9.992  0.2120 -0.2196  0.3637
12483W        W16783  12.675   6.896  32.682  0.1389 -0.0290  0.2086
12484W        W16784  24.404   2.922   9.832 -0.2191  0.0139  0.1302
12485W        W16785  19.765   5.038   6.131  0.1975  0.0558  0.0303
12486W        W16786  15.712   5.222  22.089  0.0627  0.1553  0.0970
12487W        W16787   7.974   4.710  28.198 -0.0078  0.6380  0.2025
12488W        W16788   1.537   3.381  16.051 -0.2620  0.2035  0.0006
12489W        W16789  15.571   1.063  27.662 -0.2332  0.0638  0.2101
12490W        W16790  12.033   0.759  28.525 -0.3479  0.1703 -0.1725
12491W        W16791  15.365   2.383  20.365 -0.1300  0.1048 -0.1784
12492W        W16792  22.805   3.668  27.600  0.3531 -0.0078 -0.1254
12493W        W16793  23.446   3.984  30.360  0.0124  0.0506  0.0238
12494W        W16794   8.973   7.751   8.515  0.0794 -0.0066 -0.1229
12495W        W16795   2.654   2.463  31.402  0.0148  0.3088 -0.3799
12496W        W16796  22.687   5.677  19.411 -0.3672 -0.3704 -0.0018
12497W        W16797  15.452   2.387   9.473 -0.1463 -0.1275  0.1465
12498W        W16798  23.301   4.950  30.577  0.2001 -0.0221  0.0292
12499W        W16799  21.234   3.279  28.405 -0.2091  0.0052 -0.4334
12500W        W16800  24.688   4.070  12.924  0.0009  0.0899  0.2566
12501W        W16801  10.056   6.231  24.219  0.1085  0.1033 -0.1697
12502W        W16802  19.616   5.570  31.922 -0.0842  0.1058  0.2955
12503W        W16803   3.326   7.531  14.677  0.0125  0.0939  0.2015
12504W        W16804   9.259   4.020  28.341 -0.0030 -0.1212  0.0285
12505W        W16805   2.243   2.647  14.856 -0.1267  0.2440 -0.2293
12506W        W16806   4.813   1.062   2.628 -0.2029  0.2430 -0.0902
12507W        W16807   9.824   4.961  29.605  0.1790 -0.1899 -0.2822
12508W        W16808  23.033   5.225  27.922  0.0342 -0.0993 -0.0738
12509W        W16809  14.707   2.882  16.912 -0.0593 -0.1525 -0.1841
12510W        W16810  14.652   3.072   1.597 -0.0517  0.0148 -0.0080
12511W        W16811   6.796   7.002  32.315 -0.1449 -0.0744 -0.2045
12512W        W16812  23.022   0.215   4.987 -0.0077 -0.1627  0.4738
12513W        W16813   8.023   2.843  23.344  0.0631 -0.0275 -0.1083
12514W        W16814  17.475   2.916  24.843 -0.0207 -0.3647 -0.0648
12515W        W16815  14.597   6.562  20.339  0.0173  0.2449  0.1563
12516W        W16816  16.284   0.854  30.443 -0.2789 -0.1673  0.0680
12517W        W16817   6.766   3.459   0.096  0.0786 -0.0584 -0.2841
12518W        W16818  19.294   2.654  18.174 -0.5164  0.4652  0.1495
12519W        W16819  12.849   1.474   7.501  0.1144 -0.1995  0.0551
12520W        W16820   6.602   3.568   8.941  0.0518  0.2501  0.2059
12521W        W16821  15.307   6.289  27.372 -0.0153 -0.1873 -0.0863
12522W        W16822  14.856   6.104   1.806  0.1219 -0.2238 -0.1067
12523W        W16823   1.853   5.099   2.591  0.0042 -0.0653 -0.1562
12524W        W16824   1.524   4.844  23.283  0.2200 -0.2162 -0.1076
12525W        W16825  14.292   6.902   1.035 -0.1286 -0.0811  0.0020
12526W        W16826  15.342   5.888  23.576 -0.0582  0.1372 -0.0892
12527W        W16827  15.511   5.509   2.133  0.1535 -0.1789 -0.0774
12528W        W16828  21.299   0.492  20.330 -0.0002 -0.1516  0.2035
12529W        W16829   8.670   5.760  27.370 -0.2713 -0.0882  0.0558
12530W        W16830  13.576   1.568   3.514  0.0175  0.1485  0.1572
12531W        W16831   1.412   0.559  11.130 -0.0716  0.1482 -0.2422
12532W        W16832  23.669   3.342  27.787 -0.0334  0.1148 -0.1186
12533W        W16833   9.386   6.626  26.191 -0.2458  0.3054  0.0263
12534W        W16834  17.027   2.198  23.492 -0.1421 -0.0644 -0.2420
12535W        W16835  20.588   3.166   8.304  0.1138 -0.0070 -0.0018
12536W        W16836  24.480   6.354  32.529  0.1567 -0.0384 -0.2045
12537W        W16837   8.587   2.397   1.990 -0.0156 -0.0198 -0.0901
12538W        W16838  19.103   6.185  32.188  0.2526 -0.2174  0.0895
12539W        W16839  20.741   3.827   4.885 -0.4868  0.0729  0.0853
12540W        W16840   4.414   0.323   9.645  0.0408  0.0202  0.2103
12541W        W16841  13.352   7.319  17.337 -0.0034 -0.1363 -0.1778
12542W        W16842   9.861   5.346  27.676 -0.0278  0.0597 -0.0043
12543W        W16843   1.200   1.326  29.513  0.2321 -0.1715 -0.1683
12544W        W16844  18.878   1.310  20.063 -0.0288 -0.1331 -0.1978
12545W        W16845  13.834   1.084  20.428 -0.1573  0.0459  0.3687
12546W        W16846   1.987   6.996  17.905  0.2143 -0.1791  0.0183
12547W        W16847  21.109   1.153   4.796 -0.1613 -0.3255 -0.2653
12548W        W16848  14.735   6.985  23.102  0.1060  0.1416  0.0358
12549W        W16849   6.038   6.354   6.311  0.1731  0.1015 -0.0568
12550W        W16850   1.055   4.799  10.468  0.0466 -0.1037  0.2988
12551W        W16851  23.867   3.993   7.881  0.2839 -0.2085  0.2168
12552W        W16852  17.443   2.644  22.835 -0.0581  0.0103  0.2258
12553W        W16853   0.999   3.852   1.078  0.2040 -0.1340 -0.2463
12554W        W16854   3.226   5.202  29.282 -0.1054 -0.2422 -0.0086
12555W        W16855  15.617   2.810  19.579  0.2887  0.3794  0.1709
12556W        W16856  16.126   7.642   3.040 -0.1055  0.1433 -0.0712
12557W        W16857  24.891   6.871  24.893 -0.1372 -0.2171 -0.2200
12558W        W16858   8.903   5.973   7.860  0.0069  0.0282  0.1176
12559W        W16859   2.324   0.840  11.345 -0.1936  0.1799 -0.1059
12560W        W16860   8.349   0.848   8.454  0.4754  0.0014  0.0242
12561W        W16861   9.798   5.093   9.202  0.0037  0.1253  0.0127
12562W        W16862   5.387   1.316  16.479 -0.0391 -0.4121 -0.1510
12563W        W16863  11.001   3.663  21.901  0.1021  0.0247  0.2074
12564W        W16864  18.233   4.346  30.321 -0.0323  0.0760  0.0849
12565W        W16865  12.619   3.431  20.662  0.1154  0.2656  0.0045
12566W        W16866  10.737   3.197  12.035 -0.0786 -0.3259 -0.2416
12567W        W16867   1.733   4.346  14.001 -0.1455 -0.1965 -0.0272
12568W        W16868   1.885   3.356  10.390  0.0666 -0.1607  0.0855
12569W        W16869  19.825   7.668  28.704 -0.2538  0.0289  0.1531
12570W        W16870  11.924   3.563  19.877  0.2818  0.0609 -0.0705
12571W        W16871  18.905   2.188   3.919  0.0035  0.1233  0.0020
12572W        W16872   9.770   1.960  21.745  0.0163 -0.1743 -0.2092
12573W        W16873  16.463   4.424  23.940 -0.1782 -0.3381 -0.1428
12574W        W16874   5.133   1.006  31.772 -0.1460 -0.1936  0.0345
12575W        W16875  21.158   5.119   9.581 -0.4197 -0.1634 -0.0672
12576W        W16876  12.556   7.425  17.315  0.1127 -0.0565 -0.1490
12577W        W16877   6.002   6.764  22.947 -0.0531 -0.3855  0.0767
12578W        W16878   2.823   4.517  32.209 -0.2109 -0.1801  0.0607
12579W        W16879   7.140   4.435  12.767 -0.2902 -0.0482 -0.0088
12580W        W16880  14.983   4.300  24.827  0.0280  0.0740  0.2498
12581W        W16881   0.582   3.092  23.268 -0.3832  0.0041 -0.0738
12582W        W16882   4.459   6.535  30.779 -0.0092 -0.1806 -0.0061
12583W        W16883   2.954   1.210  24.970  0.0442 -0.0057  0.0534
12584W        W16884   0.493   2.629   7.361 -0.1093  0.1489 -0.2715
12585W        W16885  10.449   2.385  19.598 -0.1981  0.0604 -0.1223
12586W        W16886   4.618   2.604  28.230  0.0162 -0.0530 -0.0992
12587W        W16887  16.829   6.667   6.311 -0.2064 -0.0394 -0.0747
12588W        W16888   7.160   1.005   6.764  0.0916 -0.0798 -0.1834
12589W        W16889   8.901   6.463  14.459 -0.1074  0.2364 -0.2049
12590W        W16890  22.081   6.650   0.724 -0.2331 -0.0380  0.1441
12591W        W16891  19.091   5.918  27.644 -0.1512  0.0845  0.2826
12592W        W16892  18.081   2.195   8.944 -0.1089  0.2707  0.0269
12593W        W16893  13.602   2.610  24.712 -0.0651 -0.0850  0.0545
12594W        W16894  10.756   5.650  24.711 -0.0605  0.0293  0.1611
12595W        W16895   0.740   0.702  22.422  0.0612  0.2672 -0.0810
12596W        W16896  12.156   7.646  22.134  0.2598 -0.3575 -0.1210
12597W        W16897   3.445   7.481  25.482  0.0029 -0.2845 -0.0855
12598W        W16898   4.653   0.537  32.666  0.1448  0.0701  0.0130
12599W        W16899  12.582   4.782   9.007  0.1501 -0.1827 -0.2146
12600W        W16900   6.038   3.374  17.475 -0.0735 -0.0210 -0.2875
12601W        W16901   6.050   0.675  27.568 -0.0582 -0.3341  0.0703
12602W        W16902   0.081   3.680   1.914 -0.1136  0.1449  0.1543
12603W        W16903  10.131   0.574  28.249  0.0228  0.2550 -0.1176
12604W        W16904  22.470   5.972  11.761 -0.0462 -0.1944  0.2484
12605W        W16905  15.525   4.038  31.805 -0.0654 -0.0277  0.1996
12606W        W16906  12.128   1.096   2.808  0.0640  0.1010 -0.0705
12607W        W16907   8.620   2.526   0.075 -0.2486  0.2091 -0.0064
12608W        W16908  11.268   6.509   1.901  0.1198 -0.2095 -0.2735
12609W        W16909  20.236   2.375   9.298  0.3277 -0.3008 -0.0538
12610W        W16910  13.223   2.005  17.156  0.2534  0.0960 -0.2430
12611W        W16911   2.783   3.758  22.609  0.0215  0.1737 -0.1056
12612W        W16912  19.610   5.101  10.809 -0.1484  0.2257  0.1292
12613W        W16913  21.629   2.447   0.340 -0.0980  0.1258  0.0695
12614W        W16914  15.737   3.141   3.759  0.1187 -0.0750  0.3252
12615W        W16915  16.416   6.484  24.945  0.0126 -0.0645  0.2641
12616W        W16916  18.160   4.878  20.203  0.0365  0.3038  0.1383
12617W        W16917  17.259   5.090  24.770  0.1023 -0.1440  0.0035
12618W        W16918  15.250   3.603  15.388  0.1697 -0.1851 -0.1610
12619W        W16919   7.545   4.973  27.985 -0.2897  0.1109  0.3816
12620W        W16920  10.110   4.642  19.529  0.1616  0.2146 -0.2873
12621W        W16921  20.724   2.383   6.164  0.0693  0.0251  0.2242
12622W        W16922  10.599   4.380  28.812  0.1157 -0.2296  0.0751
12623W        W16923  19.984   5.241  20.621 -0.0378  0.0364  0.1440
12624W        W16924   7.930   5.511  13.095 -0.1864  0.1952 -0.0396
12625W        W16925  22.002   0.286  25.424 -0.0241 -0.0256 -0.0618
12626W        W16926   3.797   3.896  27.568 -0.2511 -0.1979  0.2599
12627W        W16927   3.256   4.047  11.050  0.0193  0.1389 -0.1790
12628W        W16928  24.949   5.934  22.902 -0.0005 -0.1452 -0.0503
12629W        W16929   7.722   2.461   7.431  0.0885  0.1726  0.0056
12630W        W16930  16.232   3.137   0.439  0.0966 -0.0917 -0.2378
12631W        W16931  15.893   0.344   8.409  0.0459  0.2851 -0.1303
12632W        W16932  15.297   1.558   8.358  0.3736  0.0601 -0.1103
12633W        W16933  19.878   2.001   9.377  0.0728  0.1708  0.0499
12634W        W16934   1.201   7.128  25.234 -0.1493  0.2714 -0.0608
12635W        W16935  20.482   7.382  12.433 -0.0234 -0.2326 -0.1177
12636W        W16936   0.028   0.185   5.316  0.0655  0.0586 -0.2028
12637W        W16937   4.911   5.374  22.758  0.0145  0.2085 -0.0548
12638W        W16938   8.683   4.365  14.234 -0.1684 -0.1898  0.1592
12639W        W16939   8.606   6.660  12.932  0.0654  0.1744 -0.3218
12640W        W16940   3.173   4.005  29.646  0.4054  0.1672 -0.1361
12641W        W16941  22.206   3.296  21.636  0.1292 -0.3835  0.0402
12642W        W16942  13.791   1.188   7.572 -0.0276 -0.0522 -0.0126
12643W        W16943   6.428   6.469  24.642  0.0330 -0.0111 -0.0642
12644W        W16944   6.943   0.293  32.641 -0.0935  0.1207  0.2068
12645W        W16945  17.157   2.171   2.758 -0.3091  0.1428 -0.3686
12646W        W16946   5.841   1.285   9.755 -0.2370  0.0041  0.0382
12647W        W16947  14.928   5.961   8.985 -0.2309 -0.0827  0.1946
12648W        W16948  19.678   0.604   2.398 -0.0323  0.0065  0.1450
12649W        W16949  17.527   1.376   0.768 -0.0763  0.1586  0.1808
12650W        W16950   7.983   5.397   5.090 -0.2041 -0.0539  0.2416
12651W        W16951   6.413   6.626  27.572 -0.0053 -0.0675  0.0627
12652W        W16952   2.417   1.263  27.246 -0.1107 -0.2279 -0.2730
12653W        W16953  12.276   6.894   3.255  0.1897  0.1012  0.0497
12654W        W16954  12.369   1.705  21.504 -0.1085 -0.2139  0.0724
12655W        W16955   6.322   2.385   8.472 -0.1754  0.2066  0.0980
12656W        W16956  13.016   5.867  19.741 -0.0020  0.0223 -0.3271
12657W        W16957  12.556   1.601  10.006  0.1794  0.0858  0.0776
12658W        W16958  20.621   2.332   8.496  0.0888  0.1061  0.1843
12659W        W16959  21.078   7.495  25.612 -0.2188 -0.0274  0.2197
12660W        W16960   7.662   6.167  15.999 -0.3865  0.0258 -0.1540
12661W        W16961   6.439   3.797  26.830 -0.3076 -0.1841 -0.2369
12662W        W16962   7.898   7.734  26.875 -0.0521 -0.1739  0.1663
12663W        W16963  20.610   3.556   3.799  0.0142 -0.4218  0.0124
12664W        W16964  16.458   3.162  27.168  0.1207 -0.0218 -0.1006
12665W        W16965  15.607   3.975  20.878  0.0065  0.1503 -0.1373
12666W        W16966  19.707   1.238   1.405  0.0254 -0.2446 -0.1031
12667W        W16967  20.573   6.961   7.659 -0.0753 -0.1918  0.1073
12668W        W16968  11.246   5.838  11.560  0.2266 -0.4063  0.1869
12669W        W16969  17.948   1.153  18.386  0.1641 -0.0544  0.2130
12670W        W16970   4.571   0.024  28.535  0.1031 -0.2779 -0.1123
12671W        W16971  10.951   4.270  30.796  0.0660 -0.0332 -0.2531
12672W        W16972  21.632   4.031  23.707 -0.0064  0.3055  0.0634
12673W        W16973   3.182   2.245  27.513 -0.1385 -0.1827 -0.0441
12674W        W16974   3.309   6.170   7.378 -0.3870 -0.3498 -0.0444
12675W        W16975  13.163   1.685  11.188 -0.1229 -0.1187  0.2345
12676W        W16976  23.145   0.122   6.673 -0.0371  0.2217 -0.0141
12677W        W16977  16.612   5.701  24.261  0.1622  0.1444  0.0323
12678W        W16978  16.326   0.951  20.439  0.3100 -0.2820  0.2631
12679W        W16979  24.759   1.817   1.633 -0.0973  0.1284 -0.0187
12680W        W16980  24.043   1.643  24.319 -0.0012 -0.0565 -0.0631
12681W        W16981  12.812   5.547  31.805  0.4152  0.0111 -0.0933
12682W        W16982  10.107   6.528  30.718  0.0936 -0.1153  0.1814
12683W        W16983  10.581   7.099  21.256 -0.2281  0.4475 -0.1711
12684W        W16984  12.228   2.506  26.574  0.4731  0.4887  0.0479
12685W        W16985  10.233   4.019  25.745  0.2205  0.2609 -0.2671
12686W        W16986   4.630   0.255  25.380  0.1621 -0.0974 -0.1501
12687W        W16987  22.726   7.308   5.013 -0.0487 -0.0208  0.1643
12688W        W16988   1.237   2.001   2.126 -0.0903 -0.0390 -0.1251
12689W        W16989  14.140   6.266   0.171  0.1898 -0.0488 -0.0556
12690W        W16990   3.399   0.915  30.918  0.0882 -0.1138  0.1948
12691W        W16991  22.463   6.154   7.395 -0.2444  0.1322  0.2109
12692W        W16992  13.996   7.620  27.115  0.0237 -0.3015 -0.0830
12693W        W16993  14.102   5.391  25.972  0.3092 -0.0680 -0.1538
12694W        W16994  11.488   1.208  32.014  0.1159  0.1539 -0.0759
12695W        W16995  14.645   2.796  30.521  0.0649  0.3524  0.0469
12696W        W16996  22.679   6.545  29.957 -0.1897 -0.1740 -0.1495
12697W        W16997  23.385   4.921   1.495 -0.1598  0.1230  0.0236
12698W        W16998  14.419   0.718   2.822 -0.0340 -0.1274  0.1731
12699W        W16999  24.458   5.659   0.351  0.1038 -0.0475 -0.3835
12700W        W17000  24.121   6.811  30.831 -0.3782  0.2306 -0.0512
12701W        W17001   3.150   4.510   3.028 -0.0496  0.1445 -0.0512
12702W        W17002  23.627   5.005  30.947  0.0669 -0.0673  0.0326
12703W        W17003  15.837   3.050   9.373  0.1870 -0.1314  0.0168
12704W        W17004   7.237   7.274  32.614  0.2251  0.1762  0.1680
12705W        W17005  22.039   5.736   3.458  0.0658  0.1297 -0.3039
12706W        W17006  19.623   4.231  28.390  0.0680 -0.1973  0.2214
12707W        W17007   1.594   5.280  15.039 -0.0599  0.0740 -0.0589
12708W        W17008   0.293   2.609  25.780 -0.0762 -0.1124  0.3104
12709W        W17009  16.999   1.858  29.978 -0.1606  0.2191 -0.2738
12710W        W17010   1.229   0.085  10.235 -0.0497 -0.2909 -0.1160
12711W        W17011  10.899   4.667  10.205 -0.1286  0.0254 -0.1582
12712W        W17012  24.453   3.573  22.135 -0.0323  0.0386 -0.0275
12713W        W17013   4.652   2.445  11.882  0.0247 -0.1776 -0.1601
12714W        W17014   1.351   3.364   2.902 -0.3543 -0.0768  0.0662
12715W        W17015   0.676   6.659   6.467  0.1697  0.2371 -0.3836
12716W        W17016  22.828   3.482  29.912  0.0238  0.0634 -0.1489
12717W        W17017   0.287   5.256   5.431 -0.0532 -0.0003 -0.0904
12718W        W17018  14.061   1.980  22.060  0.0664  0.0251 -0.4239
12719W        W17019   3.507   2.119  29.631  0.1851  0.0399 -0.0725
12720W        W17020  10.339   6.193   0.167 -0.2672  0.1959 -0.1285
12721W        W17021   3.888   6.225  24.235  0.0497 -0.2182  0.0919
12722W        W17022  24.035   2.502  24.373 -0.0531  0.0228  0.1523
12723W        W17023   4.607   5.106  31.091 -0.1051  0.0732 -0.0216
12724W        W17024  22.032   3.471   2.223 -0.0072  0.0294  0.0270
12725W        W17025   2.926   7.484  30.980  0.0463  0.1583 -0.2413
12726W        W17026  19.746   1.275  18.877 -0.0119  0.2291  0.2022
12727W        W17027  16.232   1.589  30.047 -0.2523 -0.1634 -0.2125
12728W        W17028  19.077   1.743  19.810 -0.1881 -0.0617  0.0491
12729W        W17029   4.664   6.522  23.296 -0.4768  0.1396  0.0273
12730W        W17030   5.059   5.385  28.653  0.0059 -0.1764  0.2114
12731W        W17031  21.419   1.717  26.804 -0.0248 -0.1626 -0.1778
12732W        W17032  14.788   1.034   1.412  0.1963 -0.0846  0.1104
12733W        W17033  14.798   7.512   3.722 -0.4007  0.2140 -0.1136
12734W        W17034  15.085   2.044  16.964  0.0630 -0.2011 -0.1279
12735W        W17035  18.803   3.725  19.492  0.0365  0.1508  0.1575
12736W        W17036   7.026   7.168   6.620 -0.0948  0.2011 -0.2121
12737W        W17037  24.315   6.858  30.344 -0.1912  0.1735 -0.1461
12738W        W17038  17.130   2.252  21.942 -0.1252  0.1036 -0.0053
12739W        W17039  18.329   5.660  27.453 -0.1453 -0.2075 -0.0162
12740W        W17040   1.089   6.200   2.010 -0.0442 -0.1392 -0.1784
12741W        W17041   5.037   0.465   2.842  0.1667  0.0159 -0.1166
12742W        W17042  21.264   5.798   3.870  0.0278 -0.0257  0.0289
12743W        W17043   1.221   1.813  10.543  0.0785  0.0616  0.0086
12744W        W17044   8.438   4.728   4.200 -0.1688  0.2530  0.2804
12745W        W17045  22.439   6.632  20.442 -0.1187 -0.1692  0.1345
12746W        W17046  24.821   3.481  20.828  0.2399  0.0699 -0.1405
12747W        W17047   4.345   5.616   9.174  0.0952 -0.2201  0.1959
12748W        W17048  16.672   3.360  23.179  0.4731 -0.0446  0.3018
12749W        W17049  20.772   0.635  20.562 -0.1291 -0.2207  0.2115
12750W        W17050   6.333   4.507  13.716 -0.2674  0.1288 -0.0157
12751W        W17051  18.946   5.550  31.486 -0.0466  0.0269  0.0453
12752W        W17052  13.178   6.104  30.997  0.2184 -0.1119  0.1241
12753W        W17053  16.002   6.819  16.756  0.3088  0.0780  0.0836
12754W        W17054  18.650   6.762   0.880  0.1300  0.0102  0.0735
12755W        W17055   0.696   1.827   0.867  0.2031 -0.0588  0.1123
12756W        W17056   1.921   6.047   9.187  0.0086 -0.0403  0.2397
12757W        W17057  20.704   4.000  10.103  0.2249 -0.0589  0.0085
12758W        W17058   5.674   7.730   2.302  0.2116  0.1154 -0.1148
12759W        W17059   4.621   3.646  17.624  0.1259  0.1384  0.3390
12760W        W17060  23.240   0.031  27.421 -0.1527  0.0849  0.1421
12761W        W17061   2.910   0.652   6.648  0.0101 -0.1944  0.2515
12762W        W17062  12.976   0.564   7.254 -0.1779 -0.1916 -0.3056
12763W        W17063  10.987   7.758  18.677  0.0735 -0.1152  0.2783
12764W        W17064   8.673   1.682  32.662  0.0148 -0.1078 -0.0320
12765W        W17065  14.381   2.637  19.759 -0.0136  0.3377  0.0267
12766W        W17066   2.381   4.148   8.054 -0.0673 -0.2851 -0.2438
12767W        W17067  21.446   4.511   9.921  0.0600  0.1402 -0.0773
12768W        W17068   6.615   7.598   9.443 -0.2156  0.2197 -0.1539
12769W        W17069   5.446   2.639   3.468  0.3087  0.0072 -0.2563
12770W        W17070   9.913   4.057  23.877 -0.1529  0.0679 -0.1796
12771W        W17071  18.541   1.482   7.527  0.0101 -0.3494  0.1794
12772W        W17072  23.026   4.672  12.470 -0.1377 -0.0758 -0.0662
12773W        W17073  22.374   7.478   8.890  0.0060 -0.1781 -0.0574
12774W        W17074   7.849   1.073  32.344 -0.0949  0.0118  0.1227
12775W        W17075  19.523   6.608  10.878  0.2769 -0.0775 -0.1290
12776W        W17076   0.713   2.790  32.839 -0.3792 -0.1831 -0.0355
12777W        W17077   7.972   5.359  29.255 -0.0535  0.0979 -0.4025
12778W        W17078  16.072   2.499  24.462  0.0380  0.4106  0.0383
12779W        W17079  12.546   0.898  20.797  0.0557  0.0840  0.1691
12780W        W17080  24.582   2.059   6.970 -0.2160 -0.2070  0.2564
12781W        W17081  18.505   7.053  24.586 -0.0680  0.0621  0.1373
12782W        W17082  12.595   1.378   3.649  0.2597 -0.1302 -0.1777
12783W        W17083  15.034   5.544  31.843  0.0806  0.0962  0.1280
12784W        W17084   3.280   2.736   9.644  0.0671 -0.1482  0.0392
12785W        W17085  23.544   0.847  29.564  0.0570  0.0254  0.1042
12786W        W17086   9.839   1.434   7.700  0.3169  0.0069 -0.1198
12787W        W17087  17.072   5.483  31.600 -0.2514  0.0537 -0.0242
12788W        W17088   7.730   3.894  32.239  0.2947  0.1864 -0.0458
12789W        W17089  21.498   2.458   4.005 -0.3265  0.2779  0.0131
12790W        W17090  10.600   5.223   1.356 -0.4315 -0.1328  0.1059
12791W        W17091   4.235   0.114  30.990 -0.0307 -0.1047  0.0151
12792W        W17092  24.191   4.357   4.151  0.0379 -0.0712 -0.3823
12793W        W17093  20.522   3.967  20.055  0.6759 -0.0350  0.0584
12794W        W17094   8.975   2.532   2.319  0.2030  0.1715  0.1625
12795W        W17095   2.350   2.606  14.007  0.4398  0.2762 -0.1715
12796W        W17096   5.586   2.703  14.593 -0.4659 -0.2522 -0.2432
12797W        W17097  23.381   1.275  23.588  0.1003  0.0380 -0.1845
12798W        W17098  16.110   3.234   3.479  0.0879  0.0746  0.1845
12799W        W17099  13.670   3.318  28.369  0.1382  0.1092 -0.1078
12800W        W17100  23.468   4.326   3.570  0.0416  0.0545  0.2250
12801W        W17101   0.199   4.098  11.824 -0.2573 -0.2884  0.0355
12802W        W17102   0.615   5.878  13.272 -0.0336 -0.1594  0.3293
12803W        W17103  16.528   4.516  20.652 -0.2251  0.1675 -0.2896
12804W        W17104  10.778   6.667  28.297 -0.2638  0.1860  0.0608
12805W        W17105   6.251   1.327  30.282 -0.1093  0.1544 -0.3170
12806W        W17106  23.641   0.988  23.278 -0.1706  0.4498 -0.0314
12807W        W17107  21.147   0.968  21.978  0.2500  0.1930 -0.0578
12808W        W17108   0.643   5.055  27.605 -0.1826 -0.1698 -0.1786
12809W        W17109   5.012   6.657  32.776  0.0128 -0.0918 -0.3286
12810W        W17110  18.322   7.384  15.229  0.3130 -0.0781 -0.0288
12811W        W17111  19.787   0.440  18.885  0.0932  0.4207 -0.0016
12812W        W17112   7.383   2.296  24.050 -0.1979 -0.2381 -0.1788
12813W        W17113  13.620   6.216  21.132 -0.0845  0.1112  0.0807
12814W        W17114  19.663   7.776  22.846 -0.2131 -0.0267 -0.1686
12815W        W17115  18.558   5.923  25.228  0.1514 -0.1255 -0.0970
12816W        W17116  21.919   3.726   8.684 -0.0724  0.0816  0.1761
12817W        W17117  16.996   3.264  17.702 -0.0929 -0.1422 -0.2429
12818W        W17118   9.705   2.308  11.601  0.0195  0.0386  0.1033
12819W        W17119  19.446   1.481   2.761  0.1892 -0.2440  0.0154
12820W        W17120  13.294   1.194  19.726 -0.2170 -0.2739 -0.0324
12821W        W17121   8.641   5.186  27.684 -0.1165  0.0133 -0.0742
12822W        W17122  17.024   0.658   1.650 -0.2790 -0.2422 -0.0593
12823W        W17123  10.098   5.806  26.024  0.0963  0.1352  0.1130
12824W        W17124  24.387   2.855   0.892  0.2457 -0.1682  0.0141
12825W        W17125  20.978   6.563  30.126  0.1178  0.0445  0.0143
12826W        W17126   4.083   2.766  31.473 -0.0947 -0.0747 -0.0818
12827W        W17127  12.284   0.348  25.153 -0.1163 -0.0490 -0.1111
12828W        W17128   6.752   7.428  14.824 -0.0575 -0.0551  0.0530
12829W        W17129  16.416   1.558  22.929  0.0516 -0.0747  0.1232
12830W        W17130   1.429   3.994  30.045  0.0232  0.0746 -0.3682
12831W        W17131   3.388   3.591  31.298  0.1031 -0.3001  0.0451
12832W        W17132   7.682   0.214  22.167  0.1612 -0.4797 -0.0708
12833W        W17133  17.528   6.973  18.865  0.0754 -0.2977 -0.1040
12834W        W17134   4.925   1.036  13.575  0.0573  0.0940  0.0409
12835W        W17135  12.018   3.244  31.255  0.1463  0.3620 -0.4779
12836W        W17136  13.869   1.032   0.354  0.0049 -0.1733 -0.1040
12837W        W17137   4.983   2.717   5.550  0.1641  0.0554  0.1014
12838W        W17138   8.197   3.953   5.975 -0.1678 -0.1346  0.1248
12839W        W17139  21.810   3.149   1.397 -0.2296  0.3956 -0.0754
12840W        W17140   3.962   0.753   2.229 -0.0905  0.0498 -0.0444
12841W        W17141   9.904   4.755   8.822 -0.0104  0.4466 -0.1086
12842W        W17142  17.437   2.116  26.160 -0.0466  0.1834 -0.0864
12843W        W17143  17.528   0.854  20.470 -0.0496 -0.0662 -0.2331
12844W        W17144   7.170   0.739   2.999  0.0165  0.1749 -0.2928
12845W        W17145  20.912   0.081  23.536  0.1252  0.0102 -0.1246
12846W        W17146  12.481   6.760   2.557  0.2761  0.0619  0.1205
12847W        W17147   5.949   3.181  15.231 -0.1202 -0.2723  0.2087
12848W        W17148   7.774   5.902  14.986 -0.1371 -0.1391  0.1110
12849W        W17149  24.337   7.323  31.123 -0.0552 -0.2871 -0.2050
12850W        W17150   8.023   0.739  23.946 -0.0310 -0.0870 -0.0007
12851W        W17151  24.097   0.762  23.984  0.0276  0.0872 -0.4564
12852W        W17152  22.000   6.848  19.717  0.1029  0.1695 -0.3618
12853W        W17153  14.924   4.026  23.013  0.3370  0.2864  0.1444
12854W        W17154  24.359   6.231  28.644  0.1520 -0.0717  0.3345
12855W        W17155  22.566   1.121  11.140  0.0693  0.1423 -0.2383
12856W        W17156   9.412   6.605  23.999 -0.0647 -0.2921 -0.1472
12857W        W17157  18.582   5.508  29.784  0.4404  0.0977  0.0882
12858W        W17158  14.221   7.004  25.938  0.0787  0.0594  0.1456
12859W        W17159   2.043   0.459  23.320 -0.0772 -0.0544  0.2473
12860W        W17160  17.629   6.774  15.498 -0.3652  0.0702  0.1262
12861W        W17161   1.442   5.021  15.708 -0.0635  0.1176 -0.2186
12862W        W17162   9.324   3.034   4.239  0.2227 -0.0084 -0.2807
12863W        W17163   0.874   2.848  30.773  0.5417 -0.2769  0.0952
12864W        W17164  10.301   0.931   0.724 -0.0553 -0.2485 -0.1602
12865W        W17165  11.579   5.459  21.056  0.1080  0.2125 -0.1264
12866W        W17166  13.798   7.261   3.372  0.2111 -0.2619 -0.1116
12867W        W17167  16.509   7.049  17.620 -0.1601  0.0497 -0.0849
12868W        W17168  10.434   1.534  25.105 -0.1062  0.0522 -0.0170
12869W        W17169  15.709   1.964  31.920  0.0782 -0.1116  0.1826
12870W        W17170  13.323   7.592  20.243 -0.1387 -0.2482 -0.0703
12871W        W17171  14.165   1.001  23.298 -0.0335 -0.1460  0.3601
12872W        W17172  22.701   0.319   9.327 -0.0634  0.0904 -0.1565
12873W        W17173   0.312   1.982  21.242 -0.4869 -0.0795  0.3153
12874W        W17174  15.471   4.322   1.661 -0.0089 -0.0298  0.0136
12875W        W17175   0.492   2.112   8.951  0.0204 -0.1192  0.3441
12876W        W17176  21.274   6.379   9.187  0.2360  0.1430  0.0284
12877W        W17177   5.939   3.346  16.860  0.0168  0.0051  0.1681
12878W        W17178   7.787   0.153   0.417  0.0662  0.1721 -0.1700
12879W        W17179  12.144   3.848  18.991 -0.0478 -0.2182  0.0623
12880W        W17180   2.624   3.621  17.144  0.0032 -0.0642 -0.1497
12881W        W17181   2.149   0.772   1.532 -0.1558 -0.3744 -0.0053
12882W        W17182   7.523   2.803   0.938 -0.5383 -0.0113  0.0260
12883W        W17183  24.243   5.341  23.298  0.0718 -0.1485  0.2496
12884W        W17184   7.401   6.212  26.155 -0.0829 -0.2623 -0.1724
12885W        W17185   5.583   1.628  11.701  0.1826 -0.1037  0.0772
12886W        W17186  23.119   4.097  27.462 -0.1352 -0.0196 -0.0731
12887W        W17187   4.747   1.184  11.734  0.2019 -0.0443  0.0862
12888W        W17188  15.321   5.939   5.730  0.1061 -0.1430 -0.0118
12889W        W17189  16.214   2.315  21.521  0.2992 -0.1983 -0.0741
12890W        W17190   2.059   7.030   1.161 -0.1658 -0.0611 -0.1004
12891W        W17191  13.407   3.064  24.084 -0.0431 -0.2337  0.2480
12892W        W17192  23.989   5.755  23.074  0.0517 -0.0598 -0.0251
12893W        W17193   8.012   7.089   5.659 -0.1691  0.0998 -0.1301
12894W        W17194  21.195   1.946  30.195 -0.2528 -0.1126  0.1135
12895W        W17195  14.380   0.512  29.783 -0.1100  0.2234 -0.2701
12896W        W17196  17.400   4.961  30.353 -0.0536  0.2163  0.0536
12897W        W17197  13.124   1.383   3.588  0.2030 -0.2015 -0.2057
12898W        W17198   1.400   4.182  26.766 -0.2614 -0.1064 -0.2679
12899W        W17199  10.945   6.022   7.312  0.0538 -0.2440  0.0833
12900W        W17200   5.874   3.260   2.201  0.0709 -0.1396  0.0865
12901W        W17201  15.546   0.399   5.444  0.3035  0.0678  0.0740
12902W        W17202   3.936   5.130  26.382  0.1199  0.0064  0.1373
12903W        W17203   0.973   1.461  13.491  0.1687  0.3390 -0.1475
12904W        W17204  14.327   2.634   7.268 -0.3793  0.0392 -0.2091
12905W        W17205   9.114   0.710   8.021 -0.2695  0.0611  0.3360
12906W        W17206   4.848   1.256  16.572  0.0745  0.0527 -0.0208
12907W        W17207  24.638   6.057   5.361  0.0634  0.2298 -0.2976
12908W        W17208   0.751   6.312  13.514 -0.0994  0.2997  0.0869
12909W        W17209   4.252   0.411   6.624 -0.1434 -0.1895  0.3189
12910W        W17210  14.949   2.888  26.594 -0.0027 -0.0993 -0.1561
12911W        W17211   1.277   6.720   7.238 -0.3077  0.0671  0.0566
12912W        W17212   1.629   7.657   3.700  0.4614  0.0650  0.2092
12913W        W17213   5.777   1.643   0.318 -0.0911  0.3527 -0.0822
12914W        W17214  11.780   2.923  30.435 -0.1303 -0.1825  0.0136
12915W        W17215  22.465   7.734  29.465  0.0865  0.0093 -0.2472
12916W        W17216   0.936   2.761  11.027 -0.4921 -0.1260  0.2564
12917W        W17217  20.698   6.198   0.798  0.1487 -0.0420  0.1191
12918W        W17218  20.524   0.734  32.517  0.0538  0.1463 -0.2069
12919W        W17219   7.443   5.580   5.882  0.0572  0.0688  0.0601
12920W        W17220  13.676   4.160  21.004 -0.0505  0.2864 -0.2248
12921W        W17221  19.809   0.860  18.617  0.1791 -0.0370 -0.1347
12922W        W17222   9.703   6.465  21.207  0.1348  0.0773 -0.3030
12923W        W17223  14.560   2.841   3.143 -0.1749  0.2799 -0.0878
12924W        W17224  20.040   4.079  16.809  0.0248 -0.0899 -0.3557
12925W        W17225  16.014   4.407   8.609 -0.1758 -0.1566  0.0965
12926W        W17226  17.608   7.440  16.256 -0.0412 -0.4718  0.1028
12927W        W17227  14.749   7.445  21.747  0.0155  0.0685  0.4149
12928W        W17228   2.768   2.015  32.655 -0.2026  0.0353  0.0618
12929W        W17229  20.386   3.865  27.783  0.0066 -0.1031 -0.1490
12930W        W17230   1.471   4.331   0.937 -0.1230 -0.0216  0.0584
12931W        W17231  19.597   3.638   2.134  0.0298  0.0919  0.1138
12932W        W17232   8.335   3.365  30.980  0.0624  0.0075  0.1515
12933W        W17233  23.015   7.600  11.905  0.2346 -0.2171 -0.2686
12934W        W17234   2.409   0.477   4.214 -0.0245 -0.1731 -0.2938
12935W        W17235  13.328   0.121   9.611  0.3196  0.0963  0.0294
12936W        W17236  23.622   4.319  22.234 -0.1658  0.0558 -0.0670
12937W        W17237  19.182   5.679  18.213  0.1490 -0.2609  0.1125
12938W        W17238   1.587   2.784  30.797 -0.1450 -0.2653  0.2135
12939W        W17239   7.155   0.021   0.857 -0.0448  0.2131 -0.1319
12940W        W17240  13.315   7.458  22.969  0.1606  0.2097 -0.0488
12941W        W17241  23.181   0.488  30.342  0.1979  0.0973  0.0896
12942W        W17242  14.853   1.359  17.801  0.1550 -0.0491 -0.1581
12943W        W17243  12.058   0.070   4.270 -0.3237 -0.2409 -0.2835
12944W        W17244   8.543   1.546  27.048 -0.3845 -0.1642  0.3129
12945W        W17245  19.447   0.170   2.532 -0.0227 -0.0824  0.0617
12946W        W17246   3.661   1.700   3.398  0.0156 -0.0742 -0.0344
12947W        W17247   3.403   5.399   1.557 -0.0853 -0.3079 -0.0581
12948W        W17248  12.255   4.370   5.256 -0.1938 -0.1950  0.1235
12949W        W17249  16.550   7.341  27.224  0.0976  0.0602 -0.0540
12950W        W17250   0.294   1.899   9.577  0.1088  0.0492 -0.1514
12951W        W17251  15.011   6.675   6.254 -0.0690  0.1489  0.0230
12952W        W17252  24.244   4.270   7.742  0.0931  0.1481  0.1988
12953W        W17253   3.581   0.571  13.573  0.0071  0.1311 -0.1211
12954W        W17254   0.942   7.116   5.612  0.1391  0.2822  0.1087
12955W        W17255  12.565   2.961  18.926 -0.1805  0.1315 -0.4020
12956W        W17256  12.774   5.544  10.003  0.3345 -0.1747  0.1593
12957W        W17257   4.597   2.612   0.993 -0.0141  0.3010 -0.0734
12958W        W17258  16.895   2.270  17.352  0.0943  0.3876  0.3874
12959W        W17259  13.564   0.665  17.114  0.4429  0.0821  0.0651
12960W        W17260  13.431   5.646   0.572 -0.3533  0.0390  0.2877
12961W        W17261  14.652   6.268  19.540  0.1528 -0.2172  0.1735
12962W        W17262  17.995   6.143  28.288  0.0423  0.3422 -0.2340
12963W        W17263   7.709   0.073   1.860 -0.0404  0.2621  0.1361
12964W        W17264  16.093   4.171  30.928 -0.0459  0.2368 -0.1103
12965W        W17265   5.501   2.964   2.620 -0.1792  0.0235 -0.1465
12966W        W17266  20.652   5.664  19.744 -0.1351 -0.0477 -0.2124
12967W        W17267  21.219   5.155   6.253 -0.0980  0.0151 -0.1760
12968W        W17268  19.535   2.451  33.003  0.2528  0.0696  0.0304
12969W        W17269  13.742   2.296   6.218  0.2155  0.1869  0.2148
12970W        W17270  10.074   7.720   8.636 -0.2030 -0.0582  0.2491
12971W        W17271   0.110   2.133   2.853 -0.0507  0.1667  0.0781
12972W        W17272  12.719   6.792   0.550 -0.0439 -0.0825 -0.2434
12973W        W17273   4.872   6.110  10.008  0.0777  0.1177 -0.1972
12974W        W17274   1.377   4.412  15.193  0.1902 -0.2703 -0.0435
12975W        W17275   5.184   2.183  29.568  0.0472  0.0873  0.0714
12976W        W17276  24.594   7.619   3.224  0.1414 -0.3353 -0.2539
12977W        W17277   8.511   3.755  23.953 -0.1747  0.4812 -0.1790
12978W        W17278  22.631   2.268  26.954  0.0144  0.2083  0.2768
12979W        W17279  10.282   3.933  22.866  0.1487  0.0973  0.1523
12980W        W17280   6.462   5.064  11.202  0.2051 -0.2089  0.0003
12981W        W17281  11.202   4.155  26.391 -0.0087  0.1575  0.1201
12982W        W17282  19.040   5.478  22.838  0.0113  0.0591  0.1565
12983W        W17283   0.926   3.844   9.374 -0.0989 -0.0305 -0.3189
12984W        W17284  19.483   2.234  29.604  0.1262  0.0507  0.4247
12985W        W17285  18.629   2.475  32.868  0.0769  0.0593 -0.3856
12986W        W17286  21.655   0.195  22.486  0.0767  0.2090  0.0564
12987W        W17287   1.734   7.358   1.761  0.2777 -0.0585 -0.0843
12988W        W17288   9.271   3.272  10.566  0.2108  0.0316  0.0436
12989W        W17289  18.059   7.108   3.810  0.0253  0.0228 -0.1501
12990W        W17290   5.534   3.155  32.633 -0.0162  0.0362  0.1169
12991W        W17291   0.370   5.275  31.570  0.2973  0.0185 -0.0172
12992W        W17292  23.224   5.611   2.436  0.2912  0.0280  0.0271
12993W        W17293  16.817   3.425   7.131 -0.0594  0.1076  0.2083
12994W        W17294   0.577   1.407   8.163 -0.1653  0.0323 -0.0103
12995W        W17295  16.401   5.806  19.162 -0.1542 -0.3685  0.2666
12996W        W17296   8.022   3.571  29.215 -0.2479 -0.0627 -0.2523
12997W        W17297   3.328   5.442  30.537 -0.1989  0.2351  0.0880
12998W        W17298   1.076   4.828  28.401  0.1720 -0.2516  0.3435
12999W        W17299   4.228   2.522   2.664 -0.1256  0.2314 -0.0922
13000W        W17300  14.245   5.911  31.438 -0.3370  0.0705  0.0755
13001W        W17301   1.517   1.094   4.880  0.0931 -0.0163  0.0321
13002W        W17302   4.304   2.269   7.654  0.1836 -0.0425 -0.0892
13003W        W17303  16.127   4.051  21.639  0.1279 -0.1222  0.0695
13004W        W17304  12.598   1.927  29.340 -0.1580 -0.2138 -0.2923
13005W        W17305   6.137   0.737  26.283  0.0796  0.0284 -0.1131
13006W        W17306   0.949   7.512  26.595  0.2487  0.1597  0.1075
13007W        W17307  24.409   1.208   8.843 -0.0980  0.1059  0.5458
13008W        W17308  23.850   7.419  31.339  0.2737 -0.0572 -0.1086
13009W        W17309  15.535   6.096   0.598 -0.0003 -0.1122  0.0912
13010W        W17310   8.369   7.028  26.228 -0.2464 -0.1771 -0.0719
13011W        W17311  23.201   2.604  14.326 -0.2757 -0.0770 -0.0863
13012W        W17312   2.411   4.775  21.708  0.0385 -0.0992 -0.0270
13013W        W17313  15.727   0.262  31.148 -0.2636 -0.0639 -0.1338
13014W        W17314  20.522   1.700  31.594  0.2657  0.0618  0.1344
13015W        W17315  22.189   4.686   1.701 -0.0100 -0.0385 -0.0366
13016W        W17316  24.320   6.346  12.846  0.2265 -0.0710  0.0013
13017W        W17317   1.758   6.796   3.946 -0.3126  0.1870  0.0192
13018W        W17318   6.248   1.303  13.731 -0.0622 -0.2291  0.1563
13019W        W17319   5.399   4.917  32.221  0.1858  0.1099  0.2381
13020W        W17320   3.588   2.811  15.280 -0.2999  0.0108  0.2470
13021W        W17321  10.479   3.223  11.576 -0.0719 -0.0402  0.0913
13022W        W17322  18.118   1.833  18.142 -0.3158  0.1772  0.2553
13023W        W17323  12.888   4.531   6.186  0.0526 -0.0724 -0.2188
13024W        W17324   5.102   3.383   9.986  0.1698  0.3589 -0.1020
13025W        W17325  20.282   6.388  25.774 -0.1615  0.0493 -0.2265
13026W        W17326  16.767   1.265  28.775 -0.0793 -0.0699  0.0292
13027W        W17327  17.963   0.548   7.492  0.2378 -0.0331 -0.0832
13028W        W17328   3.876   7.747  24.997 -0.0636  0.1352  0.0220
13029W        W17329  24.547   5.219  11.911 -0.1063 -0.0041  0.2117
13030W        W17330   0.132   7.139  32.182  0.0061  0.1601  0.1050
13031W        W17331  19.558   2.371  18.561  0.0226  0.0741 -0.1028
13032W        W17332  13.002   2.199  27.380 -0.1155 -0.1956 -0.4055
13033W        W17333   7.293   0.457  12.193  0.0982  0.4535  0.0619
13034W        W17334  20.201   6.639   6.854  0.3005  0.2067 -0.0973
13035W        W17335   7.899   6.131  15.534 -0.0781  0.2538 -0.0644
13036W        W17336   5.586   0.951  17.819  0.0782 -0.0946 -0.1654
13037W        W17337   0.215   0.908  26.028 -0.0903  0.0095 -0.2311
13038W        W17338   1.727   5.837  15.792 -0.0328 -0.3269  0.1227
13039W        W17339   5.860   6.565  17.809 -0.2794 -0.1364 -0.2079
13040W        W17340  12.290   2.529  22.016 -0.2420 -0.1689  0.0438
13041W        W17341  19.357   0.092  21.301 -0.0466 -0.1729 -0.0258
13042W        W17342  15.092   0.145   3.047 -0.1899  0.2726  0.0761
13043W        W17343   7.559   4.381  31.670 -0.0493  0.3431 -0.1090
13044W        W17344   2.731   5.728   3.630  0.2107  0.3517  0.1959
13045W        W17345  12.190   0.536  32.537 -0.3429 -0.1550  0.0499
13046W        W17346  24.790   4.136  23.755 -0.0661 -0.3342  0.0674
13047W        W17347   5.233   1.323  11.841 -0.0521 -0.0975  0.0723
13048W        W17348  18.906   2.208  17.462 -0.1613  0.1805 -0.2433
13049W        W17349  17.801   1.815   8.207 -0.2330 -0.0148 -0.1913
13050W        W17350  22.523   5.200   6.769 -0.0620  0.0462 -0.1773
13051W        W17351   2.574   6.846   7.713  0.4710  0.0457  0.0483
13052W        W17352   7.693   6.560  12.275 -0.2945  0.0130 -0.0199
13053W        W17353  11.558   1.007  32.945  0.0494  0.1628  0.1486
13054W        W17354  21.843   3.581  27.257 -0.1762  0.0912  0.1056
13055W        W17355  19.778   6.033  26.115  0.1518  0.6475  0.3964
13056W        W17356   7.389   7.443  14.622 -0.2362  0.2321  0.0025
13057W        W17357  23.077   7.322  13.983 -0.0064  0.0446  0.3041
13058W        W17358  18.285   7.693   1.154 -0.2088 -0.3631  0.1553
13059W        W17359  24.505   3.550   8.194 -0.1386  0.1241 -0.2041
13060W        W17360  14.567   5.707  25.601 -0.0060 -0.1302  0.0225
13061W        W17361  11.984   3.262   7.260 -0.0001 -0.1385  0.1473
13062W        W17362  14.837   5.841   1.349  0.0955  0.0647  0.0588
13063W        W17363   1.977   4.754   1.404 -0.2267 -0.0801 -0.0445
13064W        W17364   1.788   2.988   3.603  0.1139 -0.0776 -0.0618
13065W        W17365   7.844   0.635  28.576 -0.2327  0.2910  0.0479
13066W        W17366   7.055   2.308  25.436 -0.1746  0.0498 -0.0844
13067W        W17367  23.786   2.353  22.098  0.0371 -0.1206  0.1984
13068W        W17368   0.236   3.957   7.865 -0.2353  0.2253  0.0094
13069W        W17369  15.892   3.110  29.944  0.2604 -0.0327 -0.1444
13070W        W17370  23.646   3.967  32.331  0.1448 -0.1917  0.1542
13071W        W17371   0.900   7.050   3.948 -0.1578 -0.0498 -0.0081
13072W        W17372  20.722   3.082  28.923  0.0134  0.1163 -0.0400
13073W        W17373  13.767   6.463  32.470 -0.0343 -0.1073 -0.1401
13074W        W17374   3.518   5.225  12.849  0.0593  0.1936  0.0667
13075W        W17375   3.896   2.430  30.072  0.0832  0.2013 -0.0598
13076W        W17376   5.440   3.434  23.316  0.1383  0.0609 -0.1731
13077W        W17377  17.241   5.901  26.459 -0.2284 -0.2001 -0.0332
13078W        W17378   7.149   5.484   9.000  0.0378  0.2561 -0.0965
13079W        W17379  10.722   7.635  28.722 -0.1256 -0.1355 -0.1020
13080W        W17380  19.497   1.670  29.106  0.0704 -0.0634  0.1381
13081W        W17381  21.147   4.723  28.485 -0.1335  0.4306  0.0347
13082W        W17382   5.301   7.382  10.478 -0.1215 -0.1020  0.0133
13083W        W17383   8.895   7.711  29.910 -0.1239 -0.0731 -0.0422
13084W        W17384  13.520   5.277  31.355 -0.1469 -0.0412 -0.0811
13085W        W17385  17.813   4.845   5.609  0.2324 -0.0337  0.3031
13086W        W17386  10.494   6.497  10.763 -0.1606  0.2276  0.1812
13087W        W17387  21.845   6.937  30.418 -0.2106 -0.4426  0.1470
13088W        W17388  15.536   5.491  31.144  0.0911 -0.1861  0.1650
13089W        W17389  16.752   2.503  21.638 -0.3493  0.2297  0.0379
13090W        W17390  14.295   5.683  32.518  0.0205 -0.4009  0.1105
13091W        W17391  10.018   4.659  10.543  0.1205  0.1492  0.1225
13092W        W17392  22.275   4.041  21.376 -0.0191 -0.1672  0.4093
13093W        W17393   6.852   5.422   3.115  0.1291 -0.2599  0.0513
13094W        W17394  13.478   0.905   5.863 -0.0155 -0.1725 -0.1977
13095W        W17395   2.018   6.681  16.123  0.3297  0.0840  0.0593
13096W        W17396   5.353   5.691  31.621  0.1255 -0.1395  0.2541
13097W        W17397  12.674   5.048  30.206  0.1295  0.4412  0.1032
13098W        W17398  11.342   1.043   4.958 -0.1559 -0.6036  0.1339
13099W        W17399  22.785   5.251   4.812 -0.1574  0.0641 -0.0124
13100W        W17400   5.071   7.382  11.655  0.1280  0.2056  0.2712
13101W        W17401  14.979   3.253  16.695 -0.1021 -0.2866  0.2482
13102W        W17402  23.696   0.274  21.773 -0.1399  0.0118  0.1079
13103W        W17403  10.887   5.629   5.130 -0.0728 -0.2142  0.2652
13104W        W17404   4.348   3.170  24.191 -0.1940  0.1596  0.2391
13105W        W17405  24.310   3.201   7.329  0.0256 -0.2807  0.1721
13106W        W17406   1.561   2.617  31.966  0.0076 -0.3305 -0.3019
13107W        W17407  11.786   1.717  11.992 -0.0657  0.1097  0.0296
13108W        W17408   9.713   7.782  27.205 -0.1630  0.1560 -0.0142
13109W        W17409  17.964   1.685  28.624  0.2543 -0.2569  0.2640
13110W        W17410  19.002   4.204   9.852  0.0346  0.1374 -0.0355
13111W        W17411  21.047   6.369  19.778  0.2158 -0.0806 -0.0257
13112W        W17412  10.062   1.996  30.389 -0.0002 -0.1235 -0.0778
13113W        W17413  16.830   0.916   3.036  0.1797  0.1068 -0.0223
13114W        W17414  13.227   6.534   1.020 -0.1045 -0.2595  0.0232
13115W        W17415  21.342   1.139  31.446 -0.3076 -0.0675  0.1263
13116W        W17416  11.584   0.339  28.600 -0.2801  0.0846 -0.1757
13117W        W17417   2.815   4.215   9.323 -0.1426  0.0662 -0.1558
13118W        W17418  20.650   2.124  27.930  0.0788  0.0403  0.2933
13119W        W17419   2.105   6.728  24.393 -0.3101 -0.2044 -0.2675
13120W        W17420   9.508   6.449  32.685 -0.0523  0.1026  0.2995
13121W        W17421  13.214   5.091  31.744  0.0084 -0.0056  0.1221
13122W        W17422   6.220   0.716  32.280 -0.1171 -0.2015  0.4489
13123W        W17423   5.428   5.279   0.843  0.0384  0.2489 -0.0480
13124W        W17424   4.700   2.700   1.544 -0.0578 -0.0354  0.0165
13125W        W17425  20.973   2.857  10.978 -0.2427  0.1674 -0.3460
13126W        W17426  21.264   2.736  19.851  0.2300  0.0109 -0.0216
13127W        W17427  12.600   1.099   6.216  0.2467  0.0672 -0.0425
13128W        W17428   1.494   1.086   8.002 -0.0925 -0.3543 -0.0268
13129W        W17429  13.216   0.182  25.115  0.0485  0.2039 -0.0102
13130W        W17430  24.111   5.593  13.198 -0.1014 -0.0350 -0.2847
13131W        W17431   6.134   5.226  26.662  0.2611 -0.0506 -0.0106
13132W        W17432   4.708   7.164  25.406 -0.0306 -0.2431 -0.0154
13133W        W17433  16.840   3.881  18.483  0.1519 -0.2193 -0.2854
13134W        W17434  24.188   3.140   9.120  0.0858 -0.0488 -0.3073
13135W        W17435  10.701   4.266  26.617 -0.2589 -0.2498  0.1994
13136W        W17436   0.986   1.718  22.114  0.1271 -0.0586 -0.1853
13137W        W17437   3.681   5.877   7.699 -0.0358 -0.1504 -0.0025
13138W        W17438  12.480   6.041  22.797 -0.1988 -0.1776 -0.0104
13139W        W17439   6.595   7.059  16.818 -0.0991  0.0418  0.0293
13140W        W17440  22.342   5.101   0.913  0.1271  0.1148  0.0005
13141W        W17441  20.105   2.190  22.954  0.1654  0.0504  0.1413
13142W        W17442  21.968   0.836   2.902 -0.2331 -0.3979  0.3524
13143W        W17443  23.942   6.897  21.136 -0.2064  0.0454 -0.0082
13144W        W17444  17.091   6.709  26.430  0.0283  0.1091 -0.2334
13145W        W17445  22.165   3.104   6.799 -0.2118 -0.1355 -0.1667
13146W        W17446  14.294   3.467   1.732 -0.1011 -0.3053  0.0457
13147W        W17447   0.046   1.421  14.575 -0.0944  0.0912 -0.0420
13148W        W17448  24.164   2.616  10.414  0.3356  0.1764  0.1427
13149W        W17449  21.197   3.139  21.017  0.2093 -0.0902 -0.0756
13150W        W17450   0.907   0.496  11.451  0.2046 -0.0305  0.2555
13151W        W17451   4.932   2.638  12.325 -0.0266 -0.0846 -0.4080
13152W        W17452  13.881   7.227  29.784  0.0228  0.2563  0.3729
13153W        W17453  10.550   5.340  23.552 -0.2290  0.0692  0.0517
13154W        W17454  14.190   1.525  23.914  0.0899  0.1158  0.3542
13155W        W17455  10.889   0.346   5.008 -0.2761 -0.1113  0.3251
13156W        W17456  16.894   6.811   0.451  0.0614  0.1634 -0.0770
13157W        W17457  14.459   2.852  26.073  0.0104 -0.0466 -0.1355
13158W        W17458  20.944   5.917  32.685  0.0968  0.2523  0.1123
13159W        W17459  22.194   2.002  27.166 -0.0193  0.2424  0.1919
13160W        W17460  11.339   1.326  27.526  0.0385 -0.0111  0.0391
13161W        W17461  12.893   7.351   2.340 -0.3797  0.1627  0.1198
13162W        W17462  13.689   1.441  16.784  0.0158 -0.4620 -0.2971
13163W        W17463  14.238   0.600  19.875 -0.1861 -0.0942 -0.1207
13164W        W17464   8.584   3.582  27.713 -0.2024  0.1673 -0.1498
13165W        W17465  15.357   0.675  29.794 -0.1463 -0.1723  0.1721
13166W        W17466  10.973   5.139   8.285  0.3329  0.1298 -0.0198
13167W        W17467   2.916   4.153  27.522 -0.0988 -0.1847 -0.2182
13168W        W17468  19.474   1.454   4.563  0.0182 -0.2690  0.0153
13169W        W17469   6.780   1.534  17.572 -0.0376  0.0250  0.1369
13170W        W17470   7.114   6.111  31.170  0.0287 -0.2953  0.0149
13171W        W17471  13.814   4.153  15.717 -0.1168  0.1573  0.1823
13172W        W17472  13.062   1.371   6.390 -0.1619 -0.0567 -0.0924
13173W        W17473  23.961   5.598  27.838  0.0856  0.0403  0.0074
13174W        W17474  16.740   0.649  22.113 -0.4691 -0.1025  0.2763
13175W        W17475  20.839   5.143  12.375 -0.0257  0.3532  0.3096
13176W        W17476   5.023   6.777   9.278  0.0754  0.2723 -0.0608
13177W        W17477  15.373   3.400  19.265  0.0539 -0.1478  0.0872
13178W        W17478   9.884   0.854  10.674  0.1502  0.2016  0.3015
13179W        W17479  18.908   1.210  21.077  0.1551  0.1635  0.1215
13180W        W17480  20.693   3.097  20.820  0.1684 -0.1959  0.2207
13181W        W17481  14.803   2.937   9.396  0.3467 -0.0876 -0.1613
13182W        W17482   8.247   2.717   9.608 -0.2305 -0.0053  0.0596
13183W        W17483  10.423   3.683   7.785 -0.0984 -0.0798  0.1030
13184W        W17484  23.462   1.748  12.152  0.2489  0.1437 -0.0792
13185W        W17485   1.013   4.885  10.987 -0.3207 -0.1374  0.0497
13186W        W17486  15.246   5.827  27.237 -0.0152  0.0322 -0.0927
13187W        W17487   5.815   1.349  11.999 -0.2845 -0.0198 -0.0200
13188W        W17488   8.927   5.268   9.343 -0.0962 -0.0807 -0.1913
13189W        W17489   8.142   4.719   7.791  0.0611  0.1217  0.1308
13190W        W17490   9.997   7.493  25.956  0.2170 -0.0620 -0.0589
13191W        W17491  13.832   0.043  20.304  0.0404  0.1167  0.2530
13192W        W17492  18.324   4.839  16.993  0.0194  0.2103  0.0381
13193W        W17493   4.096   6.051  16.103  0.0349 -0.1616 -0.1687
13194W        W17494  10.938   2.039  12.948  0.4321 -0.2574 -0.1403
13195W        W17495  17.837   1.702  24.841 -0.2068  0.1463 -0.0726
13196W        W17496  14.858   5.997  22.976 -0.0396 -0.0153 -0.1005
13197W        W17497  23.432   4.187   7.371  0.0105 -0.1479 -0.0888
13198W        W17498  23.601   5.684   3.784  0.0682  0.0875  0.0367
13199W        W17499  15.125   6.883   4.450  0.0595 -0.0484 -0.2128
13200W        W17500  10.003   6.345  32.811  0.0679  0.0897 -0.0505
13201W        W17501  15.660   2.512  27.868 -0.1555  0.0175  0.3689
13202W        W17502  17.127   5.598  20.212  0.0741 -0.0590  0.1589
13203W        W17503   8.985   1.229   0.034  0.0578  0.1766 -0.0078
13204W        W17504   1.031   2.219  21.937 -0.0417 -0.1257  0.2723
13205W        W17505  22.807   6.249   7.746 -0.2580  0.0515 -0.1599
13206W        W17506   5.196   5.773  30.321 -0.1469 -0.1320  0.0375
13207W        W17507   2.680   6.916  30.531  0.1455  0.2962  0.3323
13208W        W17508   8.321   1.463   6.470 -0.1807 -0.0204  0.0375
13209W        W17509  15.395   1.168  27.127 -0.1796  0.0615 -0.1114
13210W        W17510  13.795   3.284  31.974 -0.1054 -0.3582 -0.2468
13211W        W17511  13.015   6.718  28.766 -0.0721 -0.0169  0.0936
13212W        W17512  10.496   3.767   3.789  0.0924  0.1768 -0.1288
13213W        W17513  15.825   0.998  20.508 -0.0502  0.2124  0.0541
13214W        W17514   8.990   5.262  12.879  0.2513 -0.1833 -0.2767
13215W        W17515  24.598   6.704   0.511 -0.0334  0.4373 -0.0661
13216W        W17516   6.089   6.353   2.528  0.2338 -0.0445  0.0450
13217W        W17517  17.526   3.700   4.411  0.3083  0.1144  0.0626
13218W        W17518  22.622   0.703  31.051 -0.0951 -0.0575 -0.1511
13219W        W17519  12.241   1.656  23.130  0.1945  0.0918 -0.1231
13220W        W17520  18.187   0.829  16.664 -0.1878 -0.1490  0.0195
13221W        W17521  20.426   1.902   3.103  0.0455  0.1244 -0.0601
13222W        W17522   4.008   6.878  23.562 -0.2644  0.1306 -0.0272
13223W        W17523   1.126   3.118  32.505  0.1006  0.0317  0.1266
13224W        W17524   2.951   5.121  12.958 -0.1356 -0.0627 -0.1295
13225W        W17525  19.860   6.686  29.665 -0.1982 -0.0895  0.1128
13226W        W17526   0.551   5.504  26.833 -0.1674  0.0930 -0.1421
13227W        W17527  18.315   7.524   3.284  0.0704  0.0922  0.1238
13228W        W17528   1.893   6.921  15.286 -0.2023  0.2828  0.1147
13229W        W17529   8.606   6.366  15.952  0.1463  0.0321  0.0487
13230W        W17530   8.251   5.209  27.311  0.1039  0.2904 -0.1979
13231W        W17531   7.869   2.326  11.976  0.0711  0.0867 -0.0567
13232W        W17532  20.257   7.576   6.961  0.0827  0.1918  0.0902
13233W        W17533  17.521   0.288   6.112 -0.0392 -0.2312  0.0790
13234W        W17534  11.460   7.449   4.623  0.0460 -0.1219  0.0543
13235W        W17535  12.598   5.216  10.359 -0.0992  0.1678 -0.0411
13236W        W17536  13.314   2.692   5.038  0.0464 -0.0689  0.0115
13237W        W17537   1.082   7.606  26.107 -0.0166  0.2130 -0.0953
13238W        W17538   6.065   2.712  11.238  0.0650 -0.1328 -0.3152
13239W        W17539   7.376   2.808  10.339  0.0920 -0.1462 -0.1988
13240W        W17540  19.816   4.188  25.439 -0.0664 -0.1836 -0.0151
13241W        W17541  11.333   7.077  27.644 -0.1560  0.0628 -0.4095
13242W        W17542  16.913   5.193  24.344 -0.0012  0.2190  0.1851
13243W        W17543   7.648   1.858  10.487 -0.1208  0.0629  0.2118
13244W        W17544  23.612   5.083  26.187 -0.2123  0.0477  0.3718
13245W        W17545  21.609   0.167  25.101 -0.3465 -0.0253 -0.2548
13246W        W17546  16.119   0.389  22.666 -0.3128  0.2775 -0.1096
13247W        W17547   7.611   1.001   4.550 -0.0974  0.2587 -0.0322
13248W        W17548   7.439   0.135  15.849  0.1788 -0.2322 -0.0777
13249W        W17549  15.890   5.163  30.213  0.1861 -0.1418 -0.0089
13250W        W17550   9.347   2.165   9.806 -0.0050  0.0415 -0.0566
13251W        W17551  24.889   2.917  26.934 -0.3028  0.0425  0.0608
13252W        W17552   9.912   7.539  12.642  0.1664  0.0207  0.1579
13253W        W17553  22.763   4.991   3.667  0.0554 -0.1954  0.1373
13254W        W17554  21.429   4.405  26.373 -0.0175 -0.4266 -0.0945
13255W        W17555  13.901   7.110   0.985 -0.1493 -0.0925  0.1108
13256W        W17556  17.927   2.140  24.008  0.1859  0.0721 -0.2564
13257W        W17557  19.774   7.301  29.992 -0.0885 -0.1049 -0.0029
13258W        W17558  10.818   6.717   8.978 -0.2035  0.1117 -0.2480
13259W        W17559   3.834   0.758  30.685 -0.1153  0.0758 -0.5412
13260W        W17560   0.582   4.317  26.887 -0.2171  0.0619 -0.5193
13261W        W17561   9.837   4.528  29.813  0.0615  0.0351 -0.1528
13262W        W17562  12.850   7.012  22.228  0.3535 -0.2937 -0.0542
13263W        W17563  17.700   2.050  30.639  0.1166 -0.0027  0.2325
13264W        W17564   7.786   1.659   0.961 -0.0052  0.2396 -0.1658
13265W        W17565  12.264   7.678   2.194  0.0909  0.2940 -0.0029
13266W        W17566  11.307   3.797   7.393  0.2263  0.2369  0.1229
13267W        W17567   5.585   2.938  22.051  0.2734 -0.0041 -0.0323
13268W        W17568  11.682   1.510  30.214 -0.0527  0.0823 -0.1589
13269W        W17569   1.682   7.441  27.546 -0.1126 -0.0554 -0.3709
13270W        W17570   3.719   4.786  11.233  0.0912  0.1589  0.1240
13271W        W17571  18.996   0.539   1.219  0.3661  0.3832  0.0561
13272W        W17572  15.380   0.375   2.650 -0.2171  0.0069 -0.1145
13273W        W17573  15.442   0.251  17.009  0.2139  0.0795  0.0023
13274W        W17574   6.816   2.126  22.428 -0.1016 -0.0335 -0.0100
13275W        W17575  18.843   5.771  17.877 -0.0738  0.0331 -0.0269
13276W        W17576   6.912   3.366  25.000  0.0154  0.1370 -0.0799
13277W        W17577  23.506   5.120   6.854 -0.4308 -0.3386 -0.2449
13278W        W17578   6.356   3.641   3.387  0.0786 -0.1137  0.0852
13279W        W17579   6.202   0.179  29.536 -0.0470 -0.1685  0.3348
13280W        W17580   0.406   5.137   3.091  0.0329 -0.0093  0.0516
13281W        W17581   1.941   4.383   8.246 -0.0938  0.1059 -0.0240
13282W        W17582   3.779   6.511   0.662 -0.0671 -0.2110  0.2827
13283W        W17583  20.763   7.389  30.920 -0.1291 -0.1389  0.0765
13284W        W17584   4.559   0.695   2.889  0.1155 -0.2670 -0.2035
13285W        W17585   2.491   2.466  15.276  0.2470 -0.1802 -0.1736
13286W        W17586   9.548   2.399   5.577 -0.0490 -0.0794  0.0242
13287W        W17587  13.848   4.044   0.869  0.0111 -0.0542  0.2020
13288W        W17588  22.149   1.540  30.637 -0.0472 -0.0325 -0.1010
13289W        W17589  14.282   4.077  15.496  0.2115  0.0653 -0.3560
13290W        W17590  24.154   2.711  32.540  0.1182  0.0047 -0.0534
13291W        W17591  19.018   3.389  21.995  0.1563 -0.1451  0.0184
13292W        W17592  21.525   1.646  25.426 -0.1622  0.2334 -0.1634
13293W        W17593   6.304   7.653  23.097  0.2073 -0.0569 -0.0895
13294W        W17594   0.849   6.413  28.697 -0.3263  0.1943 -0.0910
13295W        W17595  18.721   7.472  26.117  0.1055 -0.4402  0.1084
13296W        W17596  24.627   7.098  31.489  0.2087 -0.1490 -0.0933
13297W        W17597  12.067   6.635  31.425 -0.3183  0.0145 -0.0111
13298W        W17598   4.254   1.766  10.308 -0.2746  0.0609 -0.0200
13299W        W17599   9.041   5.767   1.291 -0.3309 -0.1703  0.0791
13300W        W17600   6.657   5.660  31.880 -0.1524 -0.0299  0.1862
13301W        W17601   4.004   6.880  16.236  0.0427  0.0038  0.1722
13302W        W17602  24.529   5.641  11.128  0.1290  0.1537 -0.0789
13303W        W17603  10.353   1.244  24.645 -0.3965 -0.2268 -0.2177
13304W        W17604   1.880   4.475  15.017 -0.0501 -0.2477  0.1262
13305W        W17605   9.543   2.148  12.601 -0.0293  0.1370 -0.0231
13306W        W17606   6.679   5.956  22.630  0.2610 -0.1676 -0.0281
13307W        W17607   8.417   4.706   1.641  0.1603 -0.2199 -0.1339
13308W        W17608  12.606   1.090  24.474  0.3201 -0.3401  0.2387
13309W        W17609   1.563   2.419   2.401  0.0212  0.0568 -0.1512
13310W        W17610  16.772   2.715  20.297 -0.2916  0.0659 -0.0596
13311W        W17611   9.781   3.821   6.507  0.3319  0.2926  0.0538
13312W        W17612  16.395   4.979   0.486  0.2186 -0.1200 -0.0358
13313W        W17613  13.062   0.064  31.017  0.0520 -0.1300  0.2184
13314W        W17614   6.309   0.760  16.946  0.0431  0.1942 -0.0843
13315W        W17615  22.864   3.701   8.693  0.0225  0.2378  0.1304
13316W        W17616   1.306   2.013  16.214  0.0744  0.0991 -0.1904
13317W        W17617  13.491   6.323   7.249 -0.0127 -0.0712 -0.1695
13318W        W17618   4.169   2.912  16.975  0.2870 -0.0047  0.1297
13319W        W17619  20.049   4.723   7.338 -0.0952  0.0207  0.0959
13320W        W17620  13.404   6.011   9.492 -0.1609 -0.2276 -0.1149
13321W        W17621  16.311   6.716   4.134 -0.2258 -0.0902  0.2753
13322W        W17622  16.191   5.809  31.609  0.1248  0.1905 -0.1800
13323W        W17623   3.576   3.507  27.973 -0.1686  0.0817 -0.2059
13324W        W17624  18.617   5.472  25.418 -0.3754 -0.1758 -0.1232
13325W        W17625  16.922   7.181  28.241 -0.3275  0.0665  0.0257
13326W        W17626   2.864   2.629  16.228 -0.1095  0.0031  0.0286
13327W        W17627   8.673   0.252  13.448  0.0738  0.1652 -0.0690
13328W        W17628   6.822   7.708  30.636 -0.0053  0.0206 -0.0565
13329W        W17629  16.360   3.723   3.462  0.1688 -0.0108 -0.1010
13330W        W17630  18.093   1.572  19.891  0.1994  0.0515 -0.2058
13331W        W17631   8.462   5.217  26.093  0.0043 -0.3323  0.0192
13332W        W17632  12.502   3.940  22.600 -0.0113 -0.1173 -0.0935
13333W        W17633   6.148   6.940  10.098 -0.1013 -0.1474 -0.6360
13334W        W17634   5.955   6.150  11.443 -0.2008 -0.0865 -0.1933
13335W        W17635  19.915   1.034   0.466  0.0548  0.2790 -0.0760
13336W        W17636   5.896   5.465   1.006  0.0048  0.0916  0.2422
13337W        W17637   2.166   3.648  12.137  0.0275  0.2118 -0.1112
13338W        W17638   7.966   4.194  27.321  0.2030  0.0810 -0.3400
13339W        W17639   4.182   4.275  27.687  0.0813 -0.0290 -0.0533
13340W        W17640  10.893   4.619   8.527  0.2834 -0.2436 -0.0210
13341W        W17641   9.755   2.096  29.682  0.0297 -0.2396 -0.1182
13342W        W17642  20.905   6.025   8.291 -0.1469  0.0198 -0.3092
13343W        W17643  22.386   5.162  21.502  0.3626  0.3200 -0.1334
13344W        W17644   9.260   3.719   6.392  0.0930 -0.3610 -0.2491
13345W        W17645  20.322   4.474  22.266 -0.1067  0.2288 -0.3214
13346W        W17646  16.875   7.602  26.819  0.2670  0.1347 -0.1887
13347W        W17647   1.878   3.459  25.643  0.2272 -0.1023  0.0820
13348W        W17648  11.442   2.369  31.215 -0.2180  0.2843  0.1146
13349W        W17649   1.550   0.471  10.317  0.1922 -0.0833 -0.0402
13350W        W17650  11.076   0.801   7.646  0.4206  0.0245 -0.0438
13351W        W17651  10.176   2.009   6.286 -0.0958  0.5062  0.0182
13352W        W17652   9.694   7.735  29.413  0.0146 -0.0615 -0.0516
13353W        W17653   4.863   7.525  23.322  0.2233  0.3083 -0.1202
13354W        W17654  24.240   4.527  33.006  0.1300  0.0701 -0.0930
13355W        W17655  15.253   3.934  31.324  0.1723 -0.4022  0.1841
13356W        W17656  12.607   6.952   1.574 -0.0667 -0.1989  0.2050
13357W        W17657   3.056   1.023  18.870 -0.3014 -0.1257  0.1313
13358W        W17658  14.332   4.922  27.503 -0.1010  0.1573 -0.2432
13359W        W17659   0.740   6.055  15.975 -0.0601 -0.1648 -0.0439
13360W        W17660   2.970   3.078  17.027 -0.0094  0.1515 -0.1310
13361W        W17661   8.977   1.946  25.497 -0.3196  0.2043 -0.2586
13362W        W17662  22.703   1.818  27.207 -0.1297  0.0130 -0.2653
13363W        W17663  13.372   4.170  26.329 -0.4651 -0.5189  0.3757
13364W        W17664  10.863   6.207  28.277  0.3026  0.4455  0.2893
13365W        W17665   5.688   1.943  22.779 -0.4977 -0.1641  0.0448
13366W        W17666  12.532   0.048   5.427  0.0264  0.1968  0.3897
13367W        W17667  17.513   0.774  29.212 -0.1146 -0.1973 -0.2543
13368W        W17668   5.877   7.183  32.426 -0.1828 -0.0985 -0.0742
13369W        W17669  21.621   6.873  30.914 -0.2186  0.1534 -0.1902
13370W        W17670  12.545   0.489   7.519  0.2094 -0.0256  0.3102
13371W        W17671  11.749   1.225  19.380 -0.0925 -0.1773  0.2162
13372W        W17672   8.444   6.704  13.843 -0.0427  0.0599  0.1332
13373W        W17673  12.656   3.151   4.671  0.1761 -0.0386 -0.0890
13374W        W17674  20.215   7.015   8.549  0.1385  0.0431 -0.3810
13375W        W17675   7.708   1.886  25.488  0.4711 -0.1130  0.1844
13376W        W17676  20.536   0.722  28.819  0.1940 -0.0124  0.0087
13377W        W17677   4.855   4.724  15.536 -0.1140 -0.2730 -0.0107
13378W        W17678   9.474   4.125  29.714  0.3080  0.1813  0.0587
13379W        W17679   4.712   6.681  11.255  0.2828 -0.0544  0.0884
13380W        W17680   6.590   5.084  32.799  0.0846 -0.0579 -0.0492
13381W        W17681   3.904   6.495  11.411  0.1203  0.0225  0.0104
13382W        W17682   5.076   7.068  11.284  0.2462  0.0169  0.2217
13383W        W17683   4.296   3.528  22.559 -0.3185 -0.0384  0.0087
13384W        W17684  12.021   5.020  27.287 -0.0735 -0.0249 -0.0538
13385W        W17685  10.542   0.113   8.365  0.1811  0.0611  0.0850
13386W        W17686   3.723   5.983  25.085  0.0647 -0.0721 -0.0250
13387W        W17687   3.976   0.983  28.804  0.1396 -0.0538 -0.1464
13388W        W17688  13.232   7.121  20.494 -0.0679 -0.0710  0.3321
13389W        W17689  18.303   4.400  24.549  0.1742  0.0875  0.1892
13390W        W17690   5.748   6.611   8.614 -0.0711  0.3990 -0.2882
13391W        W17691   2.843   5.884  23.369  0.0913  0.0086  0.0070
13392W        W17692  22.278   2.695  22.730  0.1458  0.0899 -0.4099
13393W        W17693  16.671   7.649   9.421 -0.2191  0.1220 -0.0126
13394W        W17694   8.082   6.029  11.960 -0.0698 -0.2650  0.1360
13395W        W17695  22.513   2.600   0.088 -0.0269 -0.5118 -0.0612
13396W        W17696   3.676   3.373  10.786  0.0876  0.1847 -0.0506
13397W        W17697  13.856   5.819  25.811 -0.0509 -0.4144  0.0467
13398W        W17698   3.085   4.680   7.719  0.0570  0.0517  0.0751
13399W        W17699  20.858   1.022  31.404 -0.0277 -0.0778  0.0360
13400W        W17700  22.437   5.070  22.797  0.4221  0.3387  0.4570
13401W        W17701  11.705   5.251  19.018 -0.2757  0.1156  0.0344
13402W        W17702  13.417   1.120  10.336  0.1859  0.1572  0.1503
13403W        W17703  15.163   0.250  18.063 -0.0402 -0.0542 -0.1058
13404W        W17704  11.813   2.548  21.013 -0.1815  0.0574 -0.2194
13405W        W17705  21.335   4.636  24.228 -0.1571 -0.3858  0.2543
13406W        W17706   4.972   5.859  25.607  0.0816  0.1206  0.0459
13407W        W17707   1.548   0.937  10.058  0.0355 -0.0040 -0.0893
13408W        W17708   2.570   0.012  25.712 -0.0061  0.1413  0.3147
13409W        W17709  22.489   7.043  22.174  0.2737  0.2233  0.0606
13410W        W17710  16.874   6.727  23.387  0.0867  0.1113 -0.0703
13411W        W17711  12.871   0.167  31.968 -0.3319  0.0215 -0.0784
13412W        W17712   6.363   6.451  10.013 -0.1445  0.0832 -0.0586
13413W        W17713  11.877   6.325  27.969  0.0170  0.1278  0.1386
13414W        W17714   4.507   4.498  31.273  0.2046 -0.0892  0.1238
13415W        W17715   4.155   3.180  10.527  0.3474 -0.0267 -0.1797
13416W        W17716  24.087   2.816  28.645 -0.0071 -0.1027 -0.0712
13417W        W17717  24.162   7.776   6.683 -0.1587 -0.3051  0.0889
13418W        W17718  15.402   7.419  14.745 -0.1554 -0.1954 -0.2319
13419W        W17719   2.485   6.382  22.854  0.0006 -0.1391 -0.1406
13420W        W17720   2.687   6.054  25.000  0.0459 -0.0985 -0.2303
13421W        W17721  21.400   5.156  27.371 -0.2686  0.0250 -0.0147
13422W        W17722  17.971   3.644  24.412  0.1385  0.1561 -0.0269
13423W        W17723   7.906   0.703  22.973 -0.1480  0.3011  0.0339
13424W        W17724  24.367   0.329  25.819 -0.1466 -0.2799 -0.0638
13425W        W17725  11.444   4.944   3.638  0.0919 -0.0556 -0.1691
13426W        W17726   3.240   2.301  23.837  0.0795 -0.1191 -0.1547
13427W        W17727   4.342   1.269  32.245 -0.2476  0.2512 -0.1862
13428W        W17728  13.621   6.687  10.409  0.3896  0.1629 -0.0235
13429W        W17729  22.757   4.129  11.772  0.0464  0.0079 -0.0560
13430W        W17730   9.557   1.778   8.473 -0.1531  0.1176 -0.1087
13431W        W17731  11.940   2.301  32.684  0.1504  0.2216 -0.1923
13432W        W17732  19.316   4.909  23.729  0.0139 -0.3056  0.1207
13433W        W17733  15.127   4.250  26.468 -0.1629  0.2345 -0.1753
13434W        W17734  21.138   1.357  31.975  0.0559 -0.1721  0.0655
13435W        W17735   9.061   6.611  28.787 -0.0104 -0.0177  0.0946
13436W        W17736  23.183   1.494  30.754 -0.0424 -0.1252  0.1414
13437W        W17737  18.814   2.356   2.707  0.2909 -0.0061 -0.3204
13438W        W17738  12.685   5.674   5.698 -0.2469  0.2796 -0.2054
13439W        W17739  10.037   1.303  20.668  0.0672 -0.4005 -0.4103
13440W        W17740  10.374   3.258  23.626  0.3769  0.0253  0.0993
13441W        W17741  10.235   1.256  26.665  0.1037 -0.1616  0.0538
13442W        W17742  20.027   4.133  22.442  0.0584  0.1570 -0.0429
13443W        W17743  11.630   2.821  19.265  0.0435  0.0094  0.0531
13444W        W17744   9.361   4.439  25.588  0.1222 -0.0287  0.0322
13445W        W17745   5.305   6.196   9.733  0.1713 -0.0307 -0.0569
13446W        W17746  10.668   5.807   9.392  0.0375  0.0795  0.2971
13447W        W17747   4.987   1.208  15.734  0.0365 -0.0268 -0.3111
13448W        W17748  21.562   3.086  20.435  0.0394 -0.0355 -0.4823
13449W        W17749  10.450   1.885  32.045  0.2719  0.3660 -0.2567
13450W        W17750  17.469   7.581   0.916 -0.2998  0.0781  0.0086
13451W        W17751   8.171   1.144   7.792 -0.0532  0.2817 -0.0115
13452W        W17752   2.538   0.934  13.933 -0.0731  0.0637  0.0284
13453W        W17753   6.855   5.032  30.374 -0.1278  0.0311 -0.1774
13454W        W17754  23.801   4.449   2.131 -0.3160 -0.0673  0.0904
13455W        W17755  23.718   1.233   6.117 -0.0271 -0.0104 -0.1737
13456W        W17756  14.680   0.181  31.891 -0.0711 -0.0253  0.2155
13457W        W17757  24.390   0.018  28.992 -0.0243 -0.2018 -0.0256
13458W        W17758   7.978   0.819   6.300  0.0411  0.1454 -0.1738
13459W        W17759   3.480   5.484   4.124  0.1698  0.0969 -0.2048
13460W        W17760   8.111   3.896  29.628  0.2686  0.3271  0.2717
13461W        W17761  23.471   5.412  30.716  0.0662  0.2634 -0.0968
13462W        W17762  24.037   2.471   7.546 -0.2625 -0.1043  0.3847
13463W        W17763  18.617   1.138  29.702 -0.1391  0.1603  0.0367
13464W        W17764   0.772   5.794  30.992  0.1388  0.2195 -0.2635
13465W        W17765   7.617   6.079   8.495 -0.0262  0.1324 -0.0471
13466W        W17766  17.041   0.656  15.995  0.0002  0.1616 -0.0413
13467W        W17767  24.567   4.861  24.392  0.1332 -0.0551 -0.2007
13468W        W17768  19.146   1.416   2.183  0.0615 -0.0962  0.2761
13469W        W17769  24.262   5.414   4.376  0.2392 -0.1104  0.1323
13470W        W17770  16.508   5.240  26.453 -0.1532 -0.6444 -0.1101
13471W        W17771   0.168   1.797  32.525  0.1550  0.1276  0.0128
13472W        W17772   1.834   5.278   6.174  0.1711  0.0825  0.0881
13473W        W17773  23.948   6.502   6.021  0.0198 -0.1010 -0.1274
13474W        W17774  23.682   6.367  27.549 -0.2931 -0.0190 -0.0920
13475W        W17775  13.164   2.439  20.615  0.1215 -0.1280 -0.3171
13476W        W17776  20.686   5.069  24.781 -0.3048  0.0189 -0.1598
13477W        W17777  24.699   1.485  22.715 -0.4270 -0.2585  0.0175
13478W        W17778  13.926   4.695   6.569  0.1882 -0.0871 -0.1854
13479W        W17779  15.565   1.874  16.812  0.1176 -0.2389 -0.0505
13480W        W17780  14.910   3.653   3.097  0.0086 -0.2032  0.0140
13481W        W17781   9.174   6.436  25.713 -0.1541  0.0899 -0.0120
13482W        W17782  11.294   7.388   1.792 -0.2749  0.1812 -0.0703
13483W        W17783   8.327   3.248  11.357  0.0621 -0.0304  0.3372
13484W        W17784  22.782   5.373   4.017  0.3707  0.2684 -0.0843
13485W        W17785   7.279   6.408   5.428 -0.2278  0.1339 -0.2709
13486W        W17786  24.083   2.528   9.749 -0.0889  0.0996 -0.0520
13487W        W17787  13.392   2.433  26.958 -0.0107 -0.3213  0.0723
13488W        W17788  15.198   1.007  28.638 -0.2407 -0.0138  0.3530
13489W        W17789   7.694   5.089  13.334 -0.1319  0.0159 -0.0677
13490W        W17790   9.874   0.710   6.501 -0.0224  0.2109 -0.0293
13491W        W17791  15.699   1.472  32.078  0.1525  0.0859  0.3048
13492W        W17792   9.114   0.984  27.857  0.1093 -0.1269  0.0903
13493W        W17793  10.353   5.899  24.551  0.3410 -0.1063  0.0664
13494W        W17794  18.604   4.081  24.234  0.0950  0.2876 -0.0711
13495W        W17795   3.445   0.861   4.723 -0.0645 -0.1523  0.1984
13496W        W17796   7.288   1.895  32.297 -0.1974 -0.1117 -0.0388
13497W        W17797   9.260   7.728   6.649 -0.1456  0.0373 -0.2911
13498W        W17798   7.838   2.569   9.883 -0.0388 -0.0431  0.2349
13499W        W17799  19.062   3.364  24.877 -0.0451  0.1561  0.0150
13500W        W17800  20.698   1.260   0.091 -0.3032 -0.1557 -0.0089
13501W        W17801   7.002   6.561   1.901 -0.2360 -0.3576  0.0974
13502W        W17802  14.890   3.357   9.658 -0.3357 -0.0270 -0.0264
13503W        W17803   2.127   5.294   4.940  0.1310 -0.2734  0.2007
13504W        W17804   6.578   5.079   9.490 -0.0670  0.3206  0.0639
13505W        W17805   2.569   3.024  25.643  0.1043 -0.3765 -0.2957
13506W        W17806  18.035   1.813  22.502 -0.2517 -0.0326 -0.1240
13507W        W17807   3.612   6.049  17.911  0.2365 -0.2160 -0.2514
13508W        W17808   8.743   3.947  11.554 -0.0916  0.0499 -0.1186
13509W        W17809   8.277   5.797  13.349 -0.2046 -0.1589  0.0735
13510W        W17810  10.468   1.788  30.307  0.1656  0.1723 -0.1040
13511W        W17811  21.031   2.540   5.835 -0.0315  0.3390 -0.1216
13512W        W17812   8.403   7.440   5.364  0.1710 -0.0647  0.1809
13513W        W17813  19.534   1.900   4.231 -0.0523 -0.3482  0.0353
13514W        W17814  11.959   1.679  32.090 -0.2940  0.3748 -0.0739
13515W        W17815   7.416   7.786   3.051 -0.1788  0.1141  0.2151
13516W        W17816   7.500   2.711  16.572  0.1178  0.0059 -0.2197
13517W        W17817   6.074   7.346   5.431  0.0220 -0.2015 -0.2440
13518W        W17818  23.005   5.469  21.136 -0.1313 -0.1427 -0.0609
13519W        W17819  16.685   0.701  16.877  0.1507  0.0694 -0.0869
13520W        W17820   1.876   6.157  12.561  0.1364 -0.1241  0.0250
13521W        W17821   1.274   2.661   5.724 -0.2169 -0.3043 -0.1300
13522W        W17822  24.034   1.943   8.308 -0.1258 -0.0928 -0.1892
13523W        W17823  11.371   4.732  23.531 -0.0318 -0.1726 -0.2818
13524W        W17824   4.709   6.615  32.380  0.1299  0.1886  0.0103
13525W        W17825   0.624   7.321  31.908 -0.3731 -0.2234 -0.2090
13526W        W17826   5.988   6.824   5.353  0.0391 -0.2818  0.2959
13527W        W17827  21.936   2.609   6.620 -0.2821  0.1448 -0.0340
13528W        W17828   0.501   2.755  29.860  0.0264 -0.0769  0.2739
13529W        W17829   0.030   0.608  28.736 -0.0937 -0.1441  0.1308
13530W        W17830  20.923   7.301  32.534 -0.2344  0.0444  0.1222
13531W        W17831   8.289   5.240   1.621 -0.1348 -0.3798 -0.2677
13532W        W17832  12.591   6.098  25.712 -0.0115  0.1644 -0.0957
13533W        W17833   9.785   0.874  25.283 -0.2143  0.1502  0.0196
13534W        W17834   4.072   3.605   1.255  0.1771  0.0755  0.1984
13535W        W17835  12.339   2.777   4.443  0.3325  0.1217 -0.0009
13536W        W17836  15.521   7.217   4.147  0.0207  0.2634 -0.0492
13537W        W17837   3.833   2.253  23.730  0.1328 -0.1080  0.1138
13538W        W17838  12.417   2.295  10.308  0.2790  0.0311 -0.1582
13539W        W17839  23.692   6.952   1.136 -0.0238 -0.1247 -0.2875
13540W        W17840  12.557   1.620   9.025 -0.1981  0.2475 -0.0678
13541W        W17841  13.612   0.072  23.035  0.1995 -0.1357  0.1736
13542W        W17842  24.312   2.555  21.831 -0.0636  0.1365 -0.3284
13543W        W17843  23.103   4.776  21.116  0.1539  0.1484  0.2131
13544W        W17844  19.749   3.918  21.891 -0.0691 -0.1034  0.0019
13545W        W17845   2.878   4.755   4.682 -0.2915  0.2174  0.1018
13546W        W17846   8.401   6.191  22.198  0.0452 -0.2641 -0.1601
13547W        W17847  11.687   6.898   7.551  0.1009  0.2117  0.1080
13548W        W17848   9.552   4.460  10.550 -0.0782  0.0763 -0.2616
13549W        W17849  14.272   2.353  16.563  0.0197  0.1434 -0.0292
13550W        W17850  17.988   6.729  19.008  0.2101  0.0882  0.0503
13551W        W17851  19.697   7.149  32.987 -0.3552 -0.0175 -0.0588
13552W        W17852  20.439   0.970  11.010 -0.2593  0.0077 -0.0797
13553W        W17853  11.347   5.540  21.459  0.0977  0.2063 -0.1363
13554W        W17854  17.178   1.667  18.025 -0.4400 -0.2415  0.0198
13555W        W17855  11.240   0.884   2.744  0.1657 -0.0666  0.2640
13556W        W17856   1.035   3.768   2.831 -0.0818 -0.0771  0.0965
13557W        W17857  18.942   5.275  26.285 -0.0690  0.0838  0.0782
13558W        W17858  11.275   1.742   6.758  0.2148 -0.0639  0.3062
13559W        W17859   8.332   2.328   6.248 -0.0054 -0.0086  0.1937
13560W        W17860  15.397   3.669   9.754 -0.1455  0.0831  0.2371
13561W        W17861  11.669   2.592  28.032  0.3200 -0.1075  0.1974
13562W        W17862   4.378   6.629   5.909 -0.2065  0.0707  0.3363
13563W        W17863   9.777   6.089  10.299  0.1088  0.3341  0.0603
13564W        W17864  18.129   5.599  25.077  0.1061  0.0512 -0.0168
13565W        W17865   8.852   1.889  26.662 -0.0919 -0.0007  0.0614
13566W        W17866   4.946   5.489  14.718  0.1974 -0.0289  0.1672
13567W        W17867  18.273   6.494  32.598 -0.0102  0.2316  0.0482
13568W        W17868   7.825   2.102  22.705  0.1648  0.1733  0.1450
13569W        W17869   7.362   1.434  23.586 -0.0548 -0.0726  0.2573
13570W        W17870  12.504   0.506  15.730 -0.1684 -0.0890 -0.1312
13571W        W17871  21.873   0.896  29.430  0.0847 -0.1958  0.1176
13572W        W17872   7.781   4.810   0.381 -0.1262 -0.2138  0.2530
13573W        W17873   8.054   3.013  32.517  0.3200  0.1323 -0.1217
13574W        W17874   3.840   6.105  31.171  0.5242 -0.1480 -0.1257
13575W        W17875   6.790   5.643   9.653 -0.1231 -0.0942  0.0936
13576W        W17876  21.844   0.499  29.009 -0.0083  0.0705  0.1864
13577W        W17877  22.350   0.375   2.207  0.0429 -0.1436 -0.3717
13578W        W17878  14.114   0.845   8.669  0.0479 -0.4560  0.0535
13579W        W17879  13.707   4.568  21.814  0.0374  0.0525 -0.1636
13580W        W17880  23.442   2.332  32.897  0.1430 -0.1025 -0.0766
13581W        W17881  24.318   2.692  33.033 -0.4183 -0.0875 -0.0219
13582W        W17882   4.336   4.641   5.938 -0.1086  0.0156  0.0862
13583W        W17883  21.936   0.345   7.798  0.2830  0.2452  0.0582
13584W        W17884  14.604   1.721  32.016 -0.1539  0.0522  0.0769
13585W        W17885  12.375   5.931   9.682 -0.4476  0.0991  0.0328
13586W        W17886   4.906   0.338   4.895  0.0334  0.1750 -0.1048
13587W        W17887  19.325   3.353  30.368  0.0896  0.0713  0.0291
13588W        W17888  24.576   5.674  11.588 -0.0227  0.0298 -0.1690
13589W        W17889  17.574   6.567  10.209  0.2756 -0.1813  0.0032
13590W        W17890  12.013   0.459  28.150 -0.1298 -0.2552 -0.1159
13591W        W17891  18.445   4.111  17.660 -0.0533 -0.3500 -0.0084
13592W        W17892   2.364   2.250   3.553 -0.1091 -0.1720  0.2410
13593W        W17893   4.906   5.640  29.375 -0.1818  0.2415 -0.2182
13594W        W17894   1.445   6.763   0.305  0.0818  0.1694  0.4028
13595W        W17895  11.161   2.496  23.843  0.1205 -0.1426  0.0457
13596W        W17896  13.570   4.691  20.925  0.1018 -0.1589 -0.1959
13597W        W17897   0.446   3.125   1.390 -0.0971 -0.1228 -0.0884
13598W        W17898   8.416   1.123  25.451 -0.3056  0.0303 -0.2349
13599W        W17899  18.122   4.913  32.125 -0.2781  0.2057  0.1448
13600W        W17900   6.630   3.437  16.633 -0.1148 -0.1139 -0.1048
13601W        W17901  16.575   7.597   7.786  0.0012 -0.0135 -0.1581
13602W        W17902  13.577   7.700  29.640  0.1002 -0.0391 -0.0220
13603W        W17903  23.650   0.461   2.923  0.1443  0.1119 -0.0366
13604W        W17904  10.281   6.597  25.506  0.1257  0.0626 -0.0989
13605W        W17905  10.239   5.689  23.787 -0.0578  0.1516  0.1075
13606W        W17906   3.416   6.366  25.333 -0.1149  0.2098  0.4149
13607W        W17907  13.053   4.720  30.924  0.0301 -0.0287 -0.0726
13608W        W17908  19.227   4.096   5.016  0.2671 -0.3710 -0.1857
13609W        W17909  10.514   6.842   2.134  0.0357 -0.2197  0.0003
13610W        W17910  10.883   5.181  31.433  0.1545 -0.1376 -0.1511
13611W        W17911   2.853   1.238   3.068 -0.0052  0.2692 -0.0122
13612W        W17912  13.119   1.811  23.939  0.0729  0.1060 -0.4694
13613W        W17913  13.699   1.650  26.227 -0.3701  0.0739 -0.2324
13614W        W17914   7.484   6.452  23.412 -0.0650  0.2598 -0.1309
13615W        W17915  10.227   2.334  32.166  0.1044  0.0586  0.0171
13616W        W17916   6.276   7.114   1.723 -0.0810 -0.0362  0.2062
13617W        W17917   9.133   3.000  25.910  0.2095 -0.0824  0.1308
13618W        W17918   2.964   4.205  22.706 -0.0611 -0.1628 -0.0753
13619W        W17919   2.992   2.228  13.923 -0.0389 -0.5107  0.0176
13620W        W17920   0.711   1.925   5.348 -0.1109  0.1626 -0.1713
13621W        W17921  13.241   2.367  31.731 -0.1983 -0.0688 -0.2341
13622W        W17922   5.265   2.643  11.486 -0.1476 -0.0362 -0.1978
13623W        W17923   5.774   4.096   9.189  0.0366 -0.1329  0.0654
13624W        W17924  24.465   4.895  31.572 -0.0135  0.4777 -0.2338
13625W        W17925  23.117   1.617   3.893 -0.0939  0.1472  0.0278
13626W        W17926  24.206   5.903   9.879 -0.2735 -0.1195 -0.1825
13627W        W17927   2.231   2.062  15.199  0.0629 -0.2329 -0.1590
13628W        W17928  21.545   4.671   8.448 -0.0895 -0.1809  0.2927
13629W        W17929  23.120   2.310   7.377  0.2416  0.2732  0.3220
13630W        W17930   0.284   4.356  28.073  0.1007  0.1411  0.1283
13631W        W17931  10.314   4.136  10.691  0.2128 -0.1580  0.2685
13632W        W17932  16.006   7.078   6.315 -0.1112  0.1639  0.0510
13633W        W17933  19.590   6.606  17.075  0.0027  0.0023  0.3204
13634W        W17934  21.545   1.336  29.099  0.0050  0.1876  0.0945
13635W        W17935   4.232   3.792  30.166  0.1766  0.0939 -0.0760
13636W        W17936   3.069   1.945  28.308 -0.1126  0.0426 -0.1008
13637W        W17937  20.082   5.869  10.244  0.2497 -0.2215  0.0733
13638W        W17938   6.248   4.439  14.448 -0.0102 -0.1771  0.0233
13639W        W17939   0.762   5.754  25.169 -0.1423  0.3432  0.0771
13640W        W17940  24.690   1.944  23.758 -0.2048  0.0520 -0.0144
13641W        W17941  21.379   2.945   0.565 -0.1635 -0.1138  0.1697
13642W        W17942  13.635   0.035   4.792  0.0488  0.2280  0.0691
13643W        W17943   1.375   6.523  23.387 -0.1880 -0.1674 -0.0254
13644W        W17944  11.921   1.815  22.766  0.2477 -0.0065 -0.2538
13645W        W17945  20.885   6.957  30.648 -0.1974 -0.0383  0.1394
13646W        W17946   0.862   2.931   2.729 -0.2751  0.0800 -0.0485
13647W        W17947   3.037   0.885  29.424 -0.2193 -0.3185 -0.0882
13648W        W17948  10.492   3.837  28.699 -0.3320  0.0343 -0.0506
13649W        W17949   1.989   5.853  16.215 -0.0510 -0.0578  0.1490
13650W        W17950  17.499   5.025   4.360  0.0396 -0.0778  0.3009
13651W        W17951   1.241   4.745   5.051  0.0848  0.1721  0.0745
13652W        W17952  17.548   1.431   7.093 -0.0106 -0.2709 -0.1931
13653W        W17953  21.963   7.222   8.853 -0.0781  0.1012 -0.1600
13654W        W17954   2.936   2.664  27.864 -0.1228  0.0812 -0.1295
13655W        W17955  14.571   0.082  29.560 -0.0034  0.1041  0.2602
13656W        W17956  22.619   2.292   7.213  0.1044  0.3616  0.1837
13657W        W17957  24.347   0.192   9.633  0.0747  0.1372 -0.0466
13658W        W17958  17.674   2.898  16.529  0.1173  0.1118  0.2315
13659W        W17959  20.821   2.964  30.659 -0.0062  0.1889  0.0561
13660W        W17960  13.371   0.135  19.713  0.2199  0.0757 -0.0065
13661W        W17961   8.355   5.670  29.916  0.0492 -0.1332 -0.0992
13662W        W17962   3.505   1.900  30.891  0.0088  0.0527  0.2350
13663W        W17963   2.733   4.319  15.912 -0.0973  0.2952 -0.2204
13664W        W17964   0.884   5.694  30.104  0.1805 -0.1796 -0.3204
13665W        W17965   0.743   5.054  30.197  0.2717  0.1168  0.1620
13666W        W17966   1.299   1.477  13.967 -0.0356  0.1601  0.3151
13667W        W17967   8.946   5.169  28.135  0.1158 -0.0793 -0.3959
13668W        W17968   5.546   7.542  29.972  0.1825  0.0478  0.0148
13669W        W17969  13.638   4.147  10.187 -0.5151  0.0341  0.0903
13670W        W17970  10.740   5.495   6.967 -0.0601 -0.1085 -0.1069
13671W        W17971   1.348   7.636   1.279  0.2088  0.1911  0.1107
13672W        W17972  19.875   3.547  31.440  0.0595 -0.1692 -0.1291
13673W        W17973  23.357   1.912  29.894  0.0430 -0.1648 -0.0429
13674W        W17974  12.470   2.451  18.828 -0.2524  0.1601 -0.1886
13675W        W17975   9.569   5.046  11.748  0.0619 -0.1820  0.1506
13676W        W17976   7.353   0.827  28.589 -0.1196  0.0917  0.2343
13677W        W17977   3.294   1.852  13.881  0.0008 -0.2308  0.1252
13678W        W17978  22.624   6.592  12.914 -0.0116 -0.2773  0.3922
13679W        W17979   5.437   5.533   4.174  0.0118 -0.2592 -0.1466
13680W        W17980  18.701   2.797  22.787  0.2879  0.1268 -0.1022
13681W        W17981   5.012   1.384   0.944  0.0333  0.0436 -0.2803
13682W        W17982  11.277   5.222  22.558  0.1391  0.1176  0.2815
13683W        W17983  20.384   5.898  29.816 -0.0286  0.0295  0.2423
13684W        W17984  11.318   5.172  27.319 -0.0168 -0.1946 -0.1362
13685W        W17985   8.845   0.165  10.238 -0.0501 -0.2369  0.1492
13686W        W17986  23.902   5.921   2.117 -0.1615  0.4153  0.0622
13687W        W17987  22.661   1.333   5.762  0.0106 -0.2224  0.2949
13688W        W17988  19.359   6.990  18.272  0.0027  0.0360  0.1408
13689W        W17989  20.220   6.444   3.256 -0.1595 -0.0127  0.0011
13690W        W17990  24.798   5.364   9.166  0.1008  0.1941  0.2509
13691W        W17991  10.827   1.623  21.086 -0.0658 -0.0389 -0.1986
13692W        W17992   3.549   7.464  23.042 -0.0031 -0.1477 -0.1768
13693W        W17993   7.773   0.502  15.725  0.1969  0.2708 -0.1141
13694W        W17994  17.419   5.214   7.356 -0.0112 -0.1876  0.1037
13695W        W17995  14.333   2.607   6.735  0.2329  0.0366 -0.0212
13696W        W17996  18.620   1.596  19.193  0.2470 -0.2416 -0.0819
13697W        W17997  12.208   3.742  25.147 -0.0283  0.1749  0.1194
13698W        W17998  11.619   6.372  23.990  0.1592 -0.0275  0.0112
13699W        W17999   2.647   6.341  13.073  0.1192  0.0947 -0.0211
13700W        W18000   9.446   3.056  21.067 -0.0184 -0.1035 -0.0176
13701W        W18001  13.980   7.216   8.284  0.1189  0.3498 -0.0678
13702W        W18002  11.761   0.379   8.348 -0.1159  0.0048 -0.0015
13703W        W18003  17.704   2.859   6.278  0.1756  0.1524 -0.1169
13704W        W18004   6.354   4.427   8.535 -0.0751 -0.1985 -0.3488
13705W        W18005   9.434   1.808  10.592  0.1739 -0.1861  0.3494
13706W        W18006  23.730   7.130  11.584  0.0431  0.3340  0.1288
13707W        W18007  20.704   2.596  26.178 -0.1247  0.2884  0.0216
13708W        W18008   1.791   6.056  22.401  0.0493 -0.1465 -0.0699
13709W        W18009  23.675   6.427   8.305 -0.3962 -0.3057 -0.0091
13710W        W18010   2.063   3.924   3.337  0.0032  0.1691  0.1882
13711W        W18011  17.012   6.529  20.101  0.1035  0.0381  0.4776
13712W        W18012   8.737   2.030  22.547  0.0693 -0.1429 -0.1960
13713W        W18013  13.976   2.164  30.944 -0.2163  0.2308  0.0637
13714W        W18014  16.314   2.252  15.660  0.0556 -0.2232  0.0062
13715W        W18015  13.756   6.365  21.628  0.1784 -0.0302  0.2302
13716W        W18016   4.226   4.538  10.062 -0.0843  0.1296 -0.0971
13717W        W18017  20.352   2.287  29.550  0.2628 -0.1285 -0.0010
13718W        W18018  24.807   5.364  13.793  0.1333  0.1147 -0.0228
13719W        W18019   8.491   3.233   1.972  0.1379 -0.0846  0.2276
13720W        W18020  13.553   4.907   3.425  0.0392 -0.1111 -0.3426
13721W        W18021  10.850   0.030  12.849  0.0505 -0.2268  0.2405
13722W        W18022   3.501   4.794   0.406 -0.0178  0.4629  0.0534
13723W        W18023  13.679   0.923  25.171  0.0390  0.0075  0.1220
13724W        W18024  15.547   4.729  24.608 -0.2792 -0.0514  0.0115
13725W        W18025   6.698   3.809  26.413  0.2107 -0.0491 -0.1081
13726W        W18026   6.667   5.553   1.937  0.1161 -0.0836  0.1114
13727W        W18027   0.047   6.763  28.151  0.0452 -0.1137  0.0333
13728W        W18028  17.219   6.748  28.290 -0.0008 -0.0286 -0.0982
13729W        W18029  12.020   7.141  23.449  0.1148  0.3751  0.1515
13730W        W18030  10.226   1.925  10.402  0.0041  0.0768  0.3121
13731W        W18031   1.023   5.949  30.544  0.0009 -0.0923  0.0168
13732W        W18032  13.552   7.559  26.053 -0.2099  0.1349  0.0033
13733W        W18033   3.556   1.139  31.800 -0.0946  0.1844  0.1381
13734W        W18034  21.353   7.203   6.419  0.0206 -0.2408 -0.1006
13735W        W18035   6.856   2.756   5.372 -0.1397 -0.1974  0.2557
13736W        W18036  22.751   2.193  31.033  0.0411  0.1302 -0.1316
13737W        W18037  14.396   1.646  31.423  0.0460 -0.0339  0.2459
13738W        W18038  24.882   3.833  28.926  0.0118  0.4103  0.2513
13739W        W18039  23.852   4.036   0.421  0.2066 -0.2514  0.2491
13740W        W18040  12.057   5.479   4.880 -0.3237 -0.0342 -0.0436
13741W        W18041   2.999   4.770  29.299  0.1741 -0.0099  0.1270
13742W        W18042   1.216   0.921  11.343  0.0001 -0.0635 -0.3117
13743W        W18043   2.368   2.943   0.406  0.0603 -0.1481 -0.1208
13744W        W18044   9.094   6.586  26.663  0.0547  0.1881  0.0508
13745W        W18045  24.839   1.274  31.333 -0.2132 -0.4364 -0.2430
13746W        W18046   5.405   0.540   1.523 -0.2285  0.0487 -0.0655
13747W        W18047   5.244   5.627   7.157  0.0801 -0.0246 -0.1557
13748W        W18048   5.293   5.985  15.460  0.0139  0.0771  0.3610
13749W        W18049  15.607   2.350  32.217 -0.0044  0.1260  0.0573
13750W        W18050  16.217   7.326  19.630  0.0486  0.1005  0.0342
13751W        W18051   3.849   2.370  17.641  0.0214 -0.0576  0.2163
13752W        W18052  18.129   7.638  21.295  0.1220 -0.2540 -0.0479
13753W        W18053  24.208   0.633   4.585  0.0867  0.1084  0.2051
13754W        W18054   3.259   1.258  22.965 -0.0929  0.1884  0.0740
13755W        W18055   6.995   0.862   1.747 -0.1276 -0.1877 -0.0456
13756W        W18056   2.373   0.321  14.994  0.0056 -0.2162 -0.4504
13757W        W18057  22.710   7.267  21.335 -0.2886 -0.1619 -0.0062
13758W        W18058  23.935   2.564   5.610 -0.0252 -0.0593  0.0388
13759W        W18059  17.765   7.173  25.822 -0.1892 -0.0165 -0.2546
13760W        W18060  14.046   0.528  18.336 -0.0792  0.0553 -0.2783
13761W        W18061  21.331   6.552  30.559  0.3205 -0.3649 -0.0323
13762W        W18062  18.216   7.764  20.786 -0.2328 -0.1392 -0.2114
13763W        W18063   0.513   7.528  30.511 -0.1352  0.1512 -0.4403
13764W        W18064   2.149   3.166  28.279  0.0495  0.2362 -0.2497
13765W        W18065   7.984   5.473   4.182  0.2925  0.0186 -0.2573
13766W        W18066   4.820   3.736  18.065  0.0127 -0.0389  0.0805
13767W        W18067  17.042   4.072   8.539  0.1239  0.0639  0.1828
13768W        W18068   0.169   1.943  25.744 -0.2058  0.2187 -0.0468
13769W        W18069  19.860   5.037   1.143  0.1008 -0.2588 -0.2416
13770W        W18070  13.387   7.206  22.276 -0.1340 -0.1175  0.2228
13771W        W18071   6.915   0.020  22.480 -0.0120 -0.0843  0.2845
13772W        W18072   0.385   0.212  32.214  0.1193 -0.1399  0.1398
13773W        W18073   3.310   5.570  11.614  0.0886  0.2320 -0.2985
13774W        W18074   4.469   7.125  22.519  0.0575  0.0219 -0.1136
13775W        W18075   8.376   7.771  30.001 -0.1446 -0.2089 -0.3675
13776W        W18076  19.005   4.811   1.710 -0.0108 -0.0356 -0.2909
13777W        W18077  13.051   7.567   1.799 -0.0334 -0.2886  0.0830
13778W        W18078   3.454   2.572  30.297  0.0187 -0.0984  0.2653
13779W        W18079   6.780   2.855  29.251 -0.2520 -0.1490 -0.1149
13780W        W18080  23.375   1.046  26.268 -0.2930 -0.1848 -0.0136
13781W        W18081  14.136   1.778   3.327 -0.2021  0.4127  0.1490
13782W        W18082  13.028   6.964  23.195  0.1342 -0.2448  0.0336
13783W        W18083  14.969   3.443  26.690 -0.0417 -0.2299  0.0029
13784W        W18084  23.267   2.045   3.561 -0.1531  0.0265  0.2003
13785W        W18085  11.399   5.382   2.965  0.1854 -0.1045 -0.3111
13786W        W18086   5.324   2.996  18.110 -0.0312  0.1587  0.1042
13787W        W18087  14.348   3.338   5.982 -0.0726  0.0285  0.2950
13788W        W18088  21.203   2.941  10.096  0.4437 -0.1852  0.0862
13789W        W18089  11.994   6.392  17.823 -0.2456 -0.1788 -0.1889
13790W        W18090  20.754   3.800  23.164  0.0184  0.0222 -0.0395
13791W        W18091  22.402   6.086  25.564 -0.0195 -0.0148 -0.1613
13792W        W18092   2.847   7.166  27.816 -0.1092  0.1146  0.0989
13793W        W18093  14.261   1.162  17.974  0.0300  0.3928 -0.0727
13794W        W18094  14.898   5.608   5.610 -0.1131 -0.1194 -0.2898
13795W        W18095  20.389   7.207   2.029  0.1986 -0.1735  0.0739
13796W        W18096   0.575   2.752  10.677  0.1340 -0.1743 -0.0990
13797W        W18097   8.947   2.749   5.246 -0.1000 -0.0221 -0.2520
13798W        W18098  10.603   6.653  25.940 -0.1697  0.0382  0.1363
13799W        W18099   9.733   6.777  22.984  0.0309  0.1303  0.2278
13800W        W18100   4.061   2.635  12.452 -0.2806 -0.0714 -0.0549
13801W        W18101  16.505   2.592   6.663 -0.4716  0.1281 -0.1314
13802W        W18102   7.096   0.402  13.304 -0.0793  0.2353 -0.1123
13803W        W18103  16.887   2.401  26.182  0.2688  0.0409  0.1044
13804W        W18104   3.882   2.314  10.660  0.1034  0.0068 -0.0620
13805W        W18105  23.558   7.591  27.841  0.0654  0.0868  0.3197
13806W        W18106  22.069   5.790  29.815 -0.3326 -0.0341 -0.2558
13807W        W18107  18.030   3.751   2.631 -0.3035 -0.0478 -0.1445
13808W        W18108  18.470   7.370  11.008 -0.0088  0.0630 -0.1517
13809W        W18109   3.783   1.514  17.045 -0.1455  0.0808 -0.0560
13810W        W18110  15.830   7.770  18.873  0.2322 -0.1558  0.0331
13811W        W18111  11.117   2.506  27.290  0.3202  0.1827  0.1319
13812W        W18112   9.892   1.818  12.253  0.0299 -0.0086  0.2627
13813W        W18113  18.250   2.387  19.498  0.2240  0.0240  0.0148
13814W        W18114  10.421   0.697  11.103  0.0797 -0.2127 -0.1368
13815W        W18115   2.273   2.125   6.900  0.2967 -0.0750  0.1661
13816W        W18116  13.574   1.135  17.221  0.2625  0.1987 -0.1750
13817W        W18117  18.258   2.481  28.096  0.0492  0.1178 -0.3352
13818W        W18118  22.697   4.067  32.070 -0.2906 -0.3937  0.3478
13819W        W18119   3.601   3.758  12.387 -0.1894 -0.3142 -0.0127
13820W        W18120  18.198   0.768   4.098 -0.0226  0.1951  0.0260
13821W        W18121   7.925   2.083  10.108  0.2660 -0.0921  0.1945
13822W        W18122  21.818   5.764  20.350  0.1597  0.0191 -0.0585
13823W        W18123   3.499   3.298  15.304 -0.0077  0.1670  0.0249
13824W        W18124  19.434   5.591  25.189 -0.1499  0.0081 -0.0667
13825W        W18125  21.327   2.600  11.201 -0.0421  0.0348  0.2862
13826W        W18126  15.262   3.386  27.792 -0.0129 -0.2406 -0.0395
13827W        W18127   8.649   3.328  26.106  0.3157  0.0682  0.0871
13828W        W18128   1.929   0.001  14.847 -0.0628 -0.0862  0.1411
13829W        W18129  15.444   1.733  31.576  0.0684 -0.2814  0.0957
13830W        W18130  11.536   3.552   8.766 -0.1560  0.1932  0.1052
13831W        W18131   7.564   3.836  27.309  0.3116  0.1819 -0.2749
13832W        W18132  20.097   5.561  28.550  0.2721 -0.0017  0.0589
13833W        W18133   5.733   1.559   5.004  0.0527 -0.0806  0.2895
13834W        W18134   2.737   1.274  25.413  0.3828  0.4294 -0.3115
13835W        W18135  16.334   0.862   5.247 -0.0187  0.1181  0.2630
13836W        W18136   3.522   5.189  15.706  0.2121 -0.0493  0.0766
13837W        W18137   8.402   4.651   9.199 -0.0231 -0.0758  0.0453
13838W        W18138   6.096   1.764   7.205  0.0466 -0.0314 -0.1259
13839W        W18139   1.754   0.912   1.770 -0.0454 -0.1947  0.1341
13840W        W18140   2.915   3.118   1.088  0.0013  0.2858  0.0648
13841W        W18141  21.874   4.771   7.332  0.0797 -0.1003 -0.0430
13842W        W18142  22.341   3.385  29.848  0.3052 -0.1244  0.0544
13843W        W18143   1.851   3.567  10.855 -0.6462  0.0524 -0.0069
13844W        W18144  17.380   0.657   8.362  0.0084  0.1839  0.2930
13845W        W18145  21.507   0.521   1.570 -0.1444  0.2035  0.1850
13846W        W18146  22.238   5.835  30.334 -0.1886 -0.0894  0.1989
13847W        W18147   3.965   6.650  27.665  0.3068  0.2950 -0.1353
13848W        W18148  10.828   2.246  11.394 -0.2244  0.0166 -0.1447
13849W        W18149   8.713   4.404  25.965  0.0679  0.1869 -0.1629
13850W        W18150  18.462   6.813  20.632  0.1360 -0.0601 -0.0414
13851W        W18151   6.627   3.559  13.508 -0.2406  0.0409 -0.1644
13852W        W18152  19.502   2.553   0.951 -0.0513 -0.3667  0.0328
13853W        W18153   0.116   2.036  27.327 -0.1347 -0.0064 -0.0818
13854W        W18154  12.740   3.866  25.607  0.1027 -0.3048  0.4157
13855W        W18155   0.874   5.454  22.922 -0.0391  0.0487 -0.0767
13856W        W18156  23.180   2.785  20.188 -0.1640  0.1184  0.2847
13857W        W18157  22.285   2.644   4.950  0.0674  0.2712  0.0034
13858W        W18158  14.325   1.343   9.886  0.0802 -0.2356  0.2377
13859W        W18159   9.040   3.769  11.970  0.1649 -0.0652  0.1653
13860W        W18160   2.118   5.085   3.119  0.0274 -0.2758 -0.0598
13861W        W18161  20.889   1.846  22.031  0.1927  0.0014  0.0270
13862W        W18162  10.782   3.718  11.960  0.1662  0.0874  0.1233
13863W        W18163  23.378   6.229  22.285 -0.2624 -0.2603 -0.0742
13864W        W18164   1.265   5.151  28.809  0.2225  0.0788 -0.1619
13865W        W18165   7.219   4.488   2.130 -0.0929 -0.3360 -0.1701
13866W        W18166   7.569   3.258  14.551  0.0688 -0.2806  0.2065
13867W        W18167   8.051   5.369  14.707 -0.0217 -0.5651  0.1003
13868W        W18168  18.979   7.012   1.320 -0.1443  0.0335 -0.1428
13869W        W18169  21.490   2.789  22.987 -0.2725  0.1650  0.3023
13870W        W18170   9.969   7.114  19.696  0.4370  0.0151  0.1661
13871W        W18171   4.992   5.307   7.670  0.3387 -0.1136 -0.0475
13872W        W18172  12.290   4.936  28.878  0.2747  0.2199 -0.0081
13873W        W18173  17.094   3.762  32.208  0.0212  0.1469  0.2748
13874W        W18174  17.657   5.488  16.563 -0.1016  0.1176 -0.1106
13875W        W18175  20.448   6.337   3.679  0.3111 -0.3862 -0.0280
13876W        W18176   6.416   5.444  17.628 -0.2242 -0.0173 -0.1648
13877W        W18177   8.283   7.574  23.634  0.1680 -0.0738  0.0371
13878W        W18178  22.012   6.840   4.962 -0.0931 -0.1455  0.1346
13879W        W18179  15.684   1.336   1.194  0.0664  0.1057 -0.3402
13880W        W18180   6.299   7.325  30.040  0.0330  0.0200 -0.1475
13881W        W18181  13.894   2.870  32.348 -0.0459 -0.1806  0.1808
13882W        W18182   1.039   6.259   3.384 -0.1693 -0.0741 -0.1646
13883W        W18183   3.259   4.804  13.791  0.1564  0.0548 -0.1728
13884W        W18184  19.966   0.995  29.496  0.0173  0.0255 -0.0503
13885W        W18185   3.879   1.393  24.222  0.0951  0.5742 -0.0183
13886W        W18186   6.015   5.481   6.518  0.0524 -0.0136  0.1440
13887W        W18187   4.745   1.742  10.573  0.0708  0.1590  0.0839
13888W        W18188  17.318   3.323  27.957  0.1027 -0.0451  0.1728
13889W        W18189  22.988   2.810   7.173  0.1308  0.4748  0.3617
13890W        W18190   2.962   5.522   4.087 -0.2079 -0.0584  0.1683
13891W        W18191   4.634   5.649  27.831  0.0541 -0.0841  0.3338
13892W        W18192  18.530   5.564  22.037 -0.0020  0.1749  0.3502
13893W        W18193   8.865   3.192   9.421  0.2216  0.0152  0.2514
13894W        W18194  19.066   4.738  19.868  0.0431 -0.0581 -0.0524
13895W        W18195   7.380   0.870  16.174 -0.0545  0.0227 -0.2320
13896W        W18196  10.917   7.594  10.243 -0.2250  0.0414  0.3821
13897W        W18197   1.699   1.640  25.278  0.1400  0.0127  0.0901
13898W        W18198  12.715   5.536  11.115 -0.0475  0.0950  0.2875
13899W        W18199  17.882   1.204   3.951 -0.1491 -0.3027  0.0798
13900W        W18200  10.170   1.831  29.926  0.2402 -0.0310 -0.2468
13901W        W18201   0.033   6.946  31.110 -0.2209  0.0001  0.0903
13902W        W18202   5.856   5.976   5.053  0.1091 -0.0287  0.1605
13903W        W18203   3.559   5.684   0.894  0.0315 -0.0586 -0.2582
13904W        W18204   7.181   4.968   7.550  0.2786  0.2300 -0.0599
13905W        W18205   1.220   0.418  22.199  0.1173 -0.0402  0.0267
13906W        W18206   4.356   5.613  17.395  0.3973 -0.1949  0.0802
13907W        W18207  19.728   3.739  19.436 -0.2677  0.0248  0.0482
13908W        W18208   7.980   6.745   8.078 -0.1193  0.2010  0.0685
13909W        W18209  16.852   0.904   6.954  0.1683 -0.0036  0.0287
13910W        W18210  20.904   6.707  31.886  0.2108  0.0526  0.0067
13911W        W18211   7.451   6.901  25.274 -0.1688  0.0232  0.1646
13912W        W18212   5.861   7.278  23.045 -0.2455 -0.1055  0.0225
13913W        W18213  10.474   4.861   2.711  0.2176  0.0461  0.1600
13914W        W18214  21.961   4.777  26.014  0.1259 -0.3010 -0.1571
13915W        W18215  12.845   3.068  32.454 -0.1895 -0.2871  0.2160
13916W        W18216  22.020   1.582   3.915 -0.1819 -0.2096 -0.3155
13917W        W18217  11.729   4.167  29.754 -0.1507  0.3319 -0.1453
13918W        W18218  15.096   5.973  24.329 -0.2286 -0.2133  0.3241
13919W        W18219  24.660   7.134  11.639  0.1568 -0.1536  0.0251
13920W        W18220   1.646   2.917  29.334  0.1603 -0.1757  0.0484
13921W        W18221  23.342   2.243   4.023 -0.0428 -0.2646  0.0854
13922W        W18222  11.417   5.999   8.085  0.2897 -0.0449 -0.0014
13923W        W18223  13.394   7.227  29.785  0.0705 -0.2743  0.0104
13924W        W18224  14.335   3.660  29.465 -0.1138  0.0269 -0.2080
13925W        W18225   1.388   1.355  23.424 -0.0757 -0.2293 -0.3620
13926W        W18226   8.054   0.408  13.618  0.0179 -0.2141  0.0536
13927W        W18227  22.276   2.455   8.192 -0.1442 -0.1102 -0.1315
13928W        W18228  22.744   2.636  25.205 -0.1121 -0.1056 -0.0628
13929W        W18229  10.107   7.232   0.924 -0.2242 -0.3143  0.1841
13930W        W18230   8.780   0.064   7.453 -0.2654 -0.1109  0.2139
13931W        W18231   8.700   6.770  21.275 -0.0251 -0.1332 -0.0098
13932W        W18232  18.824   2.616  29.893  0.1966 -0.0331  0.3346
13933W        W18233   7.929   4.079   4.515 -0.2296  0.2716  0.0620
13934W        W18234   3.157   0.267   6.256  0.1895 -0.0916  0.4154
13935W        W18235   1.153   7.273  15.943 -0.0594  0.1556 -0.0995
13936W        W18236  17.541   7.316  18.426 -0.0143 -0.3426 -0.1467
13937W        W18237   7.569   2.717  11.339  0.2284 -0.1483  0.4027
13938W        W18238  12.979   1.043  20.603  0.0220  0.3097  0.0310
13939W        W18239  11.858   1.536   6.398  0.1950  0.1344 -0.3256
13940W        W18240  11.931   0.935  28.069  0.1970 -0.0538 -0.0988
13941W        W18241   9.791   0.080  11.160  0.1088  0.1847 -0.1587
13942W        W18242   8.192   0.704  24.910  0.1806  0.0443  0.2474
13943W        W18243  16.504   2.490  22.789  0.3624  0.0873 -0.1763
13944W        W18244  15.339   6.190  22.985  0.2716 -0.1293 -0.0806
13945W        W18245   0.424   1.357  26.900 -0.1063 -0.3089 -0.1489
13946W        W18246   2.082   4.199   7.662  0.0651 -0.0965  0.0713
13947W        W18247  20.867   4.306  10.504  0.2012 -0.0332 -0.0194
13948W        W18248  21.805   3.554  24.312  0.0219 -0.1572 -0.1515
13949W        W18249   6.894   7.127  15.559  0.1051  0.2566  0.0879
13950W        W18250  13.708   6.468   9.432  0.1597 -0.2301  0.0254
13951W        W18251  21.080   3.885  27.005  0.1778  0.2398 -0.1589
13952W        W18252  16.957   0.706  30.681  0.0171  0.2334  0.0278
13953W        W18253   1.004   7.174   1.419 -0.0529  0.2370 -0.2136
13954W        W18254  19.320   4.576  22.749  0.3421  0.0316  0.0738
13955W        W18255  11.233   6.943   0.555  0.1242  0.1948  0.0944
13956W        W18256  14.021   3.512  22.072 -0.0410  0.3134  0.2195
13957W        W18257  10.376   5.220  13.476  0.0503  0.2362  0.1987
13958W        W18258  24.557   4.226   0.291  0.0202  0.2200  0.0175
13959W        W18259  21.658   6.787   0.991  0.1727  0.0625 -0.0821
13960W        W18260  14.368   3.211  15.150  0.1641  0.0059  0.4160
13961W        W18261  17.360   0.255  14.727 -0.0577  0.1551 -0.2427
13962W        W18262  13.325   4.158   2.153  0.0681 -0.0806 -0.3380
13963W        W18263  17.539   5.638   4.168  0.3030  0.1917  0.1766
13964W        W18264  12.092   2.417  11.577 -0.0236 -0.1582  0.0018
13965W        W18265   0.164   4.960   8.980 -0.1820  0.2392  0.0877
13966W        W18266   5.610   3.417  31.793 -0.0386 -0.1865  0.1868
13967W        W18267  15.104   7.038  16.275 -0.1040  0.0478 -0.0611
13968W        W18268  15.183   5.728   2.434  0.1075  0.3241  0.0673
13969W        W18269  16.613   0.105  18.202 -0.4754  0.0971  0.2978
13970W        W18270  17.413   7.056   1.031  0.1347  0.0602  0.0679
13971W        W18271   4.713   3.485  31.282 -0.2346  0.0085  0.0573
13972W        W18272  11.033   0.517  22.451 -0.1351 -0.1402  0.1782
13973W        W18273  18.760   6.662  32.744  0.0447  0.0870  0.1300
13974W        W18274   7.265   4.151  30.782 -0.0019 -0.3943  0.1596
13975W        W18275   1.962   0.887   3.891  0.2564 -0.0208 -0.1845
13976W        W18276   2.000   0.802  25.165  0.2494  0.0570 -0.1279
13977W        W18277  23.286   5.538  10.362 -0.4223 -0.0567 -0.2651
13978W        W18278   1.038   0.886  29.072 -0.1098  0.0694 -0.3520
13979W        W18279  21.111   6.623  25.337 -0.0643  0.1790 -0.0889
13980W        W18280   0.583   1.640  23.831 -0.1746 -0.2357 -0.1390
13981W        W18281  17.614   1.600  26.922  0.1906 -0.0527  0.1771
13982W        W18282  11.271   4.581  20.772 -0.0960 -0.1732  0.3719
13983W        W18283  24.626   0.164   6.716  0.1477 -0.1271 -0.2102
13984W        W18284  23.253   6.518   0.182 -0.2068  0.1454 -0.0602
13985W        W18285   1.905   1.051  23.585 -0.2123 -0.1046  0.1070
13986W        W18286   0.485   6.443  13.936  0.0069  0.1305 -0.1894
13987W        W18287  23.515   4.396  24.508  0.1761 -0.1254 -0.1026
13988W        W18288  20.156   2.196  26.292  0.0434  0.3018  0.0739
13989W        W18289   2.771   3.718  11.350 -0.3772  0.0647 -0.0072
13990W        W18290   5.419   5.056  14.221  0.0246  0.2662 -0.0319
13991W        W18291  19.681   1.271  32.183 -0.1659 -0.0407 -0.2599
13992W        W18292  11.505   0.326  22.520 -0.1032  0.1774 -0.0181
13993W        W18293  18.390   5.344  31.833  0.0026 -0.0578 -0.1201
13994W        W18294   1.189   2.063   2.648  0.2912 -0.0783 -0.0113
13995W        W18295  21.402   5.152  29.626 -0.1660 -0.0759 -0.2505
13996W        W18296  20.799   3.265  28.121  0.3588  0.2378 -0.2138
13997W        W18297  11.711   5.051  19.563 -0.1300  0.0244  0.4800
13998W        W18298  11.936   0.236   2.424  0.0698 -0.1898  0.3137
13999W        W18299  24.370   3.334   6.865 -0.0758 -0.1221 -0.0110
14000W        W18300  17.823   0.878  17.890 -0.0807 -0.1410  0.0240
14001W        W18301  13.346   5.762  25.792  0.1910  0.2930 -0.1977
14002W        W18302  24.649   6.210   3.102  0.1362 -0.0464  0.1577
14003W        W18303   3.486   4.487  23.806  0.1370 -0.1408  0.2307
14004W        W18304  18.370   4.837   3.979 -0.2444  0.1034  0.2604
14005W        W18305   2.894   6.907   1.240  0.2101 -0.1138  0.2751
14006W        W18306  22.621   4.671  29.076 -0.0993  0.1071  0.1861
14007W        W18307   3.028   0.286   2.743 -0.0058 -0.2987  0.0193
14008W        W18308   8.624   0.639   2.334  0.2987  0.0716 -0.2387
14009W        W18309   4.284   7.087   7.671  0.3173 -0.1384  0.1094
14010W        W18310  24.686   3.631   3.577 -0.2617  0.1473  0.2323
14011W        W18311   9.991   1.412  31.573 -0.0423  0.2127 -0.4004
14012W        W18312  23.537   7.451  24.296  0.2006  0.1095 -0.1103
14013W        W18313  24.209   2.188  10.923  0.2582  0.2305  0.0642
14014W        W18314   1.019   1.459  24.434 -0.0790  0.0511 -0.1778
14015W        W18315   4.146   0.180   8.785 -0.0463 -0.0344  0.0321
14016W        W18316  17.864   6.192  21.870 -0.1428  0.3075 -0.2269
14017W        W18317  13.362   6.044  21.528  0.1741 -0.1241  0.0232
14018W        W18318   3.477   0.836  24.887 -0.0298 -0.0870  0.1573
14019W        W18319  18.526   7.722  16.349 -0.0342  0.2488 -0.2923
14020W        W18320   8.781   1.797  28.613  0.2566 -0.2180 -0.1869
14021W        W18321  19.264   0.442  25.006  0.1230  0.0456  0.1431
14022W        W18322  21.386   0.906  23.448 -0.0958 -0.0013 -0.2497
14023W        W18323  24.956   2.192   6.640  0.1816 -0.0039 -0.1732
14024W        W18324   4.397   0.440  15.926 -0.0724  0.4877 -0.3628
14025W        W18325  11.140   6.257  10.816  0.0524  0.0124  0.2288
14026W        W18326  24.961   1.623   7.146 -0.0258 -0.0704 -0.0156
14027W        W18327   8.118   5.693  15.283  0.1985  0.0919 -0.1768
14028W        W18328   0.574   3.021   6.129  0.3068 -0.1680 -0.0052
14029W        W18329  13.894   5.596  32.843 -0.2726 -0.1400  0.0378
14030W        W18330   1.358   0.742  28.509  0.3354  0.1917  0.0051
14031W        W18331  10.641   5.581  24.080 -0.0282  0.2372  0.2229
14032W        W18332  16.572   2.267  30.790  0.0915 -0.0198 -0.0145
14033W        W18333  11.768   6.296  21.075  0.0268 -0.0611 -0.1306
14034W        W18334  20.578   0.073   8.243 -0.2326 -0.4028  0.0261
14035W        W18335  20.841   3.955   5.349 -0.1590 -0.0425  0.0373
14036W        W18336   3.365   1.530   0.568 -0.2647  0.1276 -0.1356
14037W        W18337   0.809   1.645   5.772  0.2378  0.1739  0.2321
14038W        W18338   0.281   2.861  27.914  0.1451  0.1325 -0.2175
14039W        W18339   9.491   2.639   8.356  0.0727  0.0088  0.2897
14040W        W18340  19.190   6.482  17.420 -0.0360 -0.1325  0.1247
14041W        W18341   4.577   1.823  26.020  0.0547 -0.0982 -0.0141
14042W        W18342  23.644   1.752  10.042 -0.0267  0.0895  0.0193
14043W        W18343   4.679   0.032  31.125  0.0258  0.0915  0.0606
14044W        W18344  12.583   1.492   5.833 -0.1253 -0.1543  0.0012
14045W        W18345  12.149   0.154  23.830 -0.0374 -0.1795  0.2260
14046W        W18346   3.075   6.833   2.125  0.0259  0.1961  0.0169
14047W        W18347  23.369   4.917  13.117 -0.1529 -0.0825  0.0752
14048W        W18348  23.752   2.658   3.324 -0.3508 -0.3448  0.1705
14049W        W18349  15.860   6.316   3.016 -0.1839  0.1941 -0.0529
14050W        W18350  14.860   0.895  22.832  0.3930  0.0784 -0.2855
14051W        W18351  13.866   4.140  22.123 -0.0434  0.0607 -0.0334
14052W        W18352   4.743   3.878  25.487  0.1090 -0.0213  0.4192
14053W        W18353   3.358   5.168   3.813 -0.0681 -0.4591 -0.0521
14054W        W18354   3.969   3.285   4.528  0.2660  0.0307  0.0806
14055W        W18355  19.234   2.879  27.423 -0.0552 -0.1559  0.2583
14056W        W18356  21.776   1.023  26.231 -0.4085  0.2284 -0.0652
14057W        W18357  16.521   3.314   6.330 -0.1216  0.2792  0.1199
14058W        W18358   4.356   3.380  26.054 -0.0799 -0.1907 -0.1246
14059W        W18359  16.362   2.186  24.797  0.1776  0.0485  0.1894
14060W        W18360  24.849   0.696   9.995  0.1664 -0.3215 -0.0409
14061W        W18361  16.259   2.882  29.705 -0.0640  0.1928  0.1108
14062W        W18362  13.594   6.931  24.722 -0.0616  0.0220  0.1234
14063W        W18363   4.931   1.498  15.282 -0.1432 -0.1871 -0.1080
14064W        W18364   3.744   5.515  15.256  0.0402  0.2290 -0.2723
14065W        W18365  20.003   4.248  17.556  0.2544 -0.2933 -0.0566
14066W        W18366  17.462   4.074  17.243 -0.2327  0.3298  0.1889
14067W        W18367   6.800   7.379  22.382 -0.0197  0.0743  0.3089
14068W        W18368  19.519   2.285  25.133  0.1458 -0.2032  0.0742
14069W        W18369   0.844   6.804  21.828 -0.1050  0.1610 -0.2082
14070W        W18370   1.114   1.555  28.204  0.2102 -0.0815  0.1816
14071W        W18371  13.695   1.313   5.365  0.5857 -0.1374  0.3372
14072W        W18372   3.599   0.456   6.494  0.0825  0.0046 -0.2081
14073W        W18373  16.862   4.277  31.500  0.1998 -0.2862 -0.0519
14074W        W18374  15.846   3.496  22.833 -0.3485 -0.2293  0.2985
14075W        W18375   4.220   5.946  18.628  0.0410 -0.0139  0.0035
14076W        W18376  24.770   6.222  11.484 -0.2380 -0.2029  0.0607
14077W        W18377  16.403   2.707  28.974 -0.0153 -0.1107  0.0312
14078W        W18378   5.430   7.414  23.574  0.0528 -0.1703 -0.0656
14079W        W18379  19.466   0.088  25.819  0.2866  0.4403  0.0045
14080W        W18380  16.517   1.583   5.880  0.0037 -0.0559 -0.0045
14081W        W18381   0.215   7.371   6.662 -0.0959 -0.3575  0.1326
14082W        W18382  17.606   1.392  30.481  0.0643 -0.2549 -0.1688
14083W        W18383  18.694   6.680   6.342  0.1853  0.0041  0.0622
14084W        W18384  13.032   5.541  28.946  0.0416 -0.3063 -0.0763
14085W        W18385   6.317   2.947  17.538 -0.0437 -0.1199 -0.1225
14086W        W18386  22.899   4.652  30.685 -0.0454  0.3097 -0.2020
14087W        W18387  19.673   1.811   6.927 -0.2221  0.2031 -0.1379
14088W        W18388  12.394   3.977   8.673  0.0359  0.1182 -0.3431
14089W        W18389   8.831   6.607   3.929 -0.0237 -0.1262 -0.0371
14090W        W18390   8.734   0.762   6.743  0.3561 -0.0080 -0.0389
14091W        W18391  13.637   2.169  20.778  0.0435  0.2878  0.0662
14092W        W18392  11.774   6.852   9.002 -0.0657 -0.1775  0.1162
14093W        W18393  20.277   2.895  17.334  0.0794 -0.1511  0.1942
14094W        W18394   0.833   4.488  25.926  0.0258  0.0226  0.0166
14095W        W18395   6.086   4.750   1.369  0.0463  0.1854 -0.1892
14096W        W18396   1.104   2.427  27.422  0.2101  0.0571  0.1537
14097W        W18397  24.410   1.727   7.350  0.2902 -0.2199  0.2461
14098W        W18398   1.442   1.347   7.384  0.0523  0.0642  0.2690
14099W        W18399  20.344   2.841  30.350 -0.2071 -0.1783  0.0944
14100W        W18400   5.553   4.222   8.171  0.0309 -0.3402  0.2873
14101W        W18401   9.199   5.700  29.345  0.1750 -0.0982  0.0460
14102W        W18402  22.442   6.076  30.815  0.3128 -0.1283  0.0554
14103W        W18403   2.238   1.084  30.212  0.0057  0.0934  0.1180
14104W        W18404  17.464   7.110  30.864  0.0819 -0.0928  0.0027
14105W        W18405   9.042   5.965  15.259 -0.3757 -0.2277 -0.3108
14106W        W18406   3.046   5.949  28.739 -0.1114  0.1998  0.0088
14107W        W18407  19.163   4.370   3.226  0.0615  0.0523  0.0499
14108W        W18408  24.412   4.970   4.538  0.3131 -0.0901 -0.0092
14109W        W18409   3.077   6.619  16.630  0.0951 -0.0232 -0.0619
14110W        W18410   3.263   7.491  27.815 -0.3894  0.2139  0.0370
14111W        W18411  16.349   0.333  27.345  0.0938 -0.0293  0.2207
14112W        W18412  13.995   4.837  21.513  0.2123  0.0515 -0.1331
14113W        W18413  17.916   7.345   7.519 -0.1169 -0.1881 -0.1904
14114W        W18414  24.743   4.793  21.560 -0.3233  0.0940  0.1373
14115W        W18415  18.848   3.513   1.492 -0.1531 -0.0015 -0.0723
14116W        W18416  12.112   5.773  20.937  0.1426 -0.1247  0.2817
14117W        W18417  12.652   6.232   9.123  0.2087  0.2648 -0.0991
14118W        W18418  15.174   2.060   3.540 -0.0985 -0.0396 -0.2643
14119W        W18419  22.175   7.090  32.865 -0.0178 -0.0306 -0.0754
14120W        W18420   0.207   1.270   0.214 -0.2417  0.1249  0.0211
14121W        W18421  24.297   5.049   1.186  0.0725  0.0123 -0.1360
14122W        W18422   2.997   2.651  10.946  0.0460  0.3425  0.1943
14123W        W18423   4.442   3.844  28.400  0.3376  0.0626  0.0360
14124W        W18424   5.319   1.081   1.211  0.1152 -0.4075 -0.2121
14125W        W18425   1.495   0.305  16.558  0.0690 -0.1670  0.2213
14126W        W18426  19.243   6.596  20.714  0.0813 -0.2447 -0.2026
14127W        W18427   9.841   6.666  22.056  0.0099 -0.0701 -0.0614
14128W        W18428  19.622   5.492   0.014  0.2184  0.1125  0.1970
14129W        W18429   6.585   7.057   7.754  0.1526  0.1563 -0.1583
14130W        W18430   7.980   0.034   2.876 -0.1361  0.1505 -0.1163
14131W        W18431   3.516   4.241  26.242 -0.1664 -0.0508  0.3290
14132W        W18432  12.626   3.484   5.041  0.2108  0.1339  0.0303
14133W        W18433   1.000   0.923   9.969 -0.1536 -0.2376  0.1104
14134W        W18434  18.517   0.414  18.934  0.1542  0.2383 -0.0271
14135W        W18435  17.304   5.699  29.239 -0.0821  0.0190  0.0427
14136W        W18436  12.781   2.123   8.320  0.5253 -0.1035  0.0472
14137W        W18437   9.255   3.543  21.895 -0.4943  0.2169 -0.0721
14138W        W18438   3.388   7.030  32.114  0.1157  0.1909 -0.2114
14139W        W18439  17.412   1.524   5.696  0.1893  0.1190  0.4994
14140W        W18440   4.124   6.961  14.374  0.3706 -0.0322  0.1665
14141W        W18441  11.918   7.114  20.355 -0.1847  0.1323 -0.2734
14142W        W18442  13.088   0.866  17.330  0.1287  0.3001 -0.1650
14143W        W18443  10.527   1.554  20.617 -0.0798  0.1131  0.0026
14144W        W18444  10.649   2.084   0.989  0.1544  0.1115 -0.0906
14145W        W18445   7.258   0.137   9.888 -0.0621  0.0301  0.1494
14146W        W18446  24.077   6.506  26.620  0.0314  0.0656 -0.3369
14147W        W18447  13.150   2.740  22.340 -0.0432  0.1520  0.0335
14148W        W18448   0.147   1.043  12.259 -0.0409  0.0062 -0.1597
14149W        W18449  13.251   6.347  10.259  0.3955  0.0262 -0.2513
14150W        W18450  12.538   4.910  20.157 -0.0239 -0.3760 -0.0013
14151W        W18451   2.261   2.989  23.412 -0.0949 -0.0204  0.1709
14152W        W18452   5.289   3.464   7.712  0.2112  0.0880 -0.0137
14153W        W18453   4.363   2.933   9.396 -0.0272  0.0776  0.0610
14154W        W18454  23.437   3.412  28.742 -0.3433  0.0084 -0.0670
14155W        W18455  10.144   1.038   6.667 -0.1505 -0.0343  0.0787
14156W        W18456  16.080   1.249  15.793  0.0147 -0.1281  0.0544
14157W        W18457   3.963   5.395  23.889 -0.0335  0.0599 -0.0288
14158W        W18458  22.327   6.125  31.296 -0.0710  0.1720  0.0194
14159W        W18459  18.929   1.467  18.763 -0.1665  0.0977 -0.0380
14160W        W18460   2.158   5.122  12.496 -0.2096  0.3276  0.3518
14161W        W18461  12.042   0.728  30.304  0.0636  0.1703 -0.1364
14162W        W18462  22.866   0.345  23.468  0.0558  0.0264 -0.1458
14163W        W18463   3.326   0.328  13.968 -0.1586  0.1029 -0.1211
14164W        W18464   6.112   3.341   5.262 -0.2016  0.0059 -0.0919
14165W        W18465   1.970   6.490  23.627  0.1375  0.1031  0.0792
14166W        W18466  23.111   0.997   4.064  0.1987  0.0967  0.0191
14167W        W18467  23.428   5.719  13.869 -0.1024  0.0351 -0.1712
14168W        W18468   4.307   6.245   0.686 -0.1200 -0.1755  0.1020
14169W        W18469   6.200   5.806  22.556  0.3996  0.2095  0.0081
14170W        W18470  23.292   6.000   5.948  0.4262  0.2039 -0.0610
14171W        W18471   3.475   1.017   3.948 -0.1484 -0.1068 -0.1204
14172W        W18472  19.448   4.127   4.525  0.1714 -0.0290 -0.0468
14173W        W18473   4.451   7.126  24.972  0.1954 -0.0882 -0.0940
14174W        W18474   7.907   2.255  10.935 -0.0787 -0.1041 -0.2219
14175W        W18475   0.228   7.572  13.346 -0.2773 -0.2377 -0.0055
14176W        W18476  11.339   3.531  26.418 -0.0357 -0.0746  0.0141
14177W        W18477  12.180   5.471   8.510 -0.2141  0.1371 -0.0459
14178W        W18478  19.745   6.212  23.714 -0.0974  0.0442 -0.2364
14179W        W18479   0.899   1.754  13.907  0.1118 -0.4057  0.2255
14180W        W18480  22.090   7.798  27.327  0.3274  0.0641  0.2265
14181W        W18481   7.686   4.673  31.312 -0.0273 -0.1281 -0.0358
14182W        W18482  22.895   7.006  13.063 -0.0467 -0.0585  0.0211
14183W        W18483  15.781   3.275  23.298  0.0997  0.4063 -0.2220
14184W        W18484   9.874   0.964  20.356 -0.0387  0.1632  0.1822
14185W        W18485  18.744   3.737  21.714  0.1636 -0.1391  0.0135
14186W        W18486  17.862   3.837   5.251  0.1703 -0.2526  0.0825
14187W        W18487  16.526   1.615   0.374  0.0102 -0.2209  0.1074
14188W        W18488   2.973   7.244  14.898 -0.3739 -0.0078  0.0320
14189W        W18489   4.838   4.285  22.664 -0.1901 -0.0381 -0.0219
14190W        W18490  14.035   6.303  23.208  0.0097 -0.2291  0.1384
14191W        W18491   3.158   1.337  27.213  0.2025  0.1669 -0.1716
14192W        W18492   0.320   6.872  21.926 -0.1172  0.0131 -0.0942
14193W        W18493  19.717   4.006  24.998 -0.1715  0.3664  0.2605
14194W        W18494   0.217   5.598  13.524  0.0042  0.1369 -0.0576
14195W        W18495  10.672   4.653  31.612 -0.2603 -0.0216  0.1357
14196W        W18496  22.321   5.489   3.016  0.1428 -0.2658  0.1099
14197W        W18497  23.227   5.962  30.146 -0.0093 -0.2404  0.2264
14198W        W18498  15.675   6.117  28.803 -0.0850 -0.0466 -0.0353
14199W        W18499  19.764   5.074   4.348 -0.3584 -0.0922  0.2756
14200W        W18500  13.860   5.494  31.645 -0.1725 -0.0874 -0.1347
14201W        W18501   3.389   6.972  12.983  0.2563  0.2164  0.0211
14202W        W18502   3.296   1.023   8.367  0.0341 -0.4666 -0.0311
14203W        W18503  23.859   7.327  13.363  0.4599  0.2062 -0.0170
14204W        W18504  22.116   4.212  11.086 -0.1159  0.0563 -0.1991
14205W        W18505  17.979   7.626  30.005 -0.1847  0.2521  0.1518
14206W        W18506  17.614   3.369   6.493  0.0985  0.2008 -0.1779
14207W        W18507   5.458   2.664  32.501 -0.0392  0.0414  0.3295
14208W        W18508  24.918   0.671  11.869 -0.1580 -0.0059 -0.1069
14209W        W18509  23.625   4.128   2.483  0.0511  0.0636 -0.0878
14210W        W18510  12.965   4.797  19.332 -0.1752 -0.2282  0.0952
14211W        W18511  24.105   0.850   6.961 -0.2916  0.1421 -0.0278
14212W        W18512  21.353   2.773  21.799 -0.0756  0.0177 -0.1909
14213W        W18513   1.617   4.236   9.293 -0.0061  0.1189  0.0951
14214W        W18514  12.672   7.369   3.769 -0.0238  0.0317  0.1207
14215W        W18515   7.626   5.361   2.688  0.0064 -0.3475  0.1192
14216W        W18516  12.514   2.115   9.226 -0.0825  0.3983  0.0125
14217W        W18517   7.390   5.095  26.899 -0.0687 -0.1520 -0.1157
14218W        W18518  12.801   4.590   2.521 -0.0838 -0.1000  0.0459
14219W        W18519  23.126   3.785   9.186 -0.2109  0.2494  0.0639
14220W        W18520  22.804   2.759  24.693 -0.1985  0.3594 -0.0590
14221W        W18521  23.792   0.513  23.133 -0.0856 -0.0648  0.3027
14222W        W18522   2.952   5.369  10.587  0.0510 -0.1664 -0.1873
14223W        W18523  19.397   3.694  20.906 -0.1468 -0.0852  0.2340
14224W        W18524  23.404   2.068  25.855 -0.2703  0.2309 -0.3441
14225W        W18525   8.633   2.561  22.301 -0.1901 -0.2097  0.2730
14226W        W18526   5.046   2.592  13.877 -0.2401 -0.0003  0.3325
14227W        W18527  23.376   1.414  21.591  0.0237  0.1293 -0.0071
14228W        W18528  23.836   3.378   5.994  0.0547  0.1426  0.1352
14229W        W18529  23.952   2.633   0.896  0.1935  0.0059 -0.1824
14230W        W18530   8.756   6.424   5.198 -0.1387  0.1125  0.0757
14231W        W18531  11.163   6.635  32.719 -0.3257 -0.0945  0.1465
14232W        W18532   1.471   1.671   0.380 -0.2632 -0.1709 -0.0753
14233W        W18533   8.463   7.177   6.077 -0.0492 -0.2217  0.2122
14234W        W18534  14.781   3.906   9.899 -0.2292  0.1353  0.2170
14235W        W18535  11.615   5.677   9.160 -0.0306  0.0283  0.1474
14236W        W18536   3.705   5.941   3.971 -0.0327  0.1597  0.0398
14237W        W18537   4.362   7.285   4.082  0.0217  0.2842 -0.1928
14238W        W18538  11.458   6.022   7.025  0.1580  0.1304  0.2739
14239W        W18539  18.930   0.652  30.330 -0.2925 -0.0808 -0.3170
14240W        W18540  11.865   4.310  20.821 -0.3135 -0.1895 -0.1745
14241W        W18541   5.091   6.716  18.857 -0.0518  0.1555 -0.2871
14242W        W18542   9.152   6.573  30.875  0.0464  0.4085 -0.1751
14243W        W18543   7.130   1.227  32.991  0.1072  0.0381 -0.2157
14244W        W18544  21.079   2.266  27.702 -0.0696 -0.1097  0.0346
14245W        W18545  12.804   5.621   0.575  0.2428 -0.1128 -0.0060
14246W        W18546  13.857   0.277  26.423  0.0857  0.0937 -0.1989
14247W        W18547   2.857   6.461  30.549 -0.1190 -0.0930  0.1371
14248W        W18548   3.135   6.225  31.599  0.0521  0.3435  0.0263
14249W        W18549  13.461   4.302  30.262 -0.1801 -0.0416  0.0225
14250W        W18550   3.156   3.898  26.478  0.2086  0.1427 -0.2630
14251W        W18551   4.688   3.135  17.319  0.1354  0.2005  0.1754
14252W        W18552  14.172   4.716  32.646  0.1305  0.0962 -0.0292
14253W        W18553  17.620   2.155  21.609 -0.1571  0.0100  0.2379
14254W        W18554  12.104   7.050  20.847  0.1102 -0.1672 -0.0208
14255W        W18555  18.470   5.689   3.421  0.0054 -0.5589  0.0082
14256W        W18556  23.831   6.150  30.201  0.3155 -0.0397 -0.0611
14257W        W18557  24.739   0.128   4.145 -0.0152 -0.1257 -0.1048
14258W        W18558  13.336   3.887   0.770  0.2609 -0.2250 -0.1046
14259W        W18559  20.018   3.768   5.386 -0.1252  0.1048  0.2001
14260W        W18560   5.066   5.338   6.763  0.1691  0.0836  0.1297
14261W        W18561  23.557   3.212  32.800  0.1174  0.1408  0.1580
14262W        W18562   4.553   6.949   9.397 -0.2141 -0.1241  0.0180
14263W        W18563  10.095   4.541   0.316  0.0969  0.0978  0.0913
14264W        W18564  14.385   5.995  30.950 -0.1043 -0.0599 -0.0902
14265W        W18565  21.319   7.446  32.874  0.3301  0.2891  0.0320
14266W        W18566   7.080   6.185  15.114 -0.0478  0.1638  0.0787
14267W        W18567   2.800   6.943   0.300  0.0869  0.0949 -0.2523
14268W        W18568  21.203   1.486  28.013  0.0055 -0.1450 -0.3174
14269W        W18569  18.472   4.283  10.038  0.0083  0.0137 -0.1507
14270W        W18570   0.882   2.050   3.636  0.0615  0.1240 -0.0799
14271W        W18571   1.767   7.613   3.114 -0.3248  0.2584 -0.2367
14272W        W18572  11.891   5.230  26.552  0.0745  0.0047 -0.0378
14273W        W18573  24.238   4.316  11.386  0.0604 -0.0265 -0.0017
14274W        W18574  23.884   2.711  25.303 -0.1573 -0.1420  0.0988
14275W        W18575  16.788   0.483  15.417 -0.3905  0.1627  0.4457
14276W        W18576   7.639   3.916  29.380  0.1762  0.1074 -0.0379
14277W        W18577   2.729   6.925  15.563 -0.0651  0.1592 -0.3490
14278W        W18578  13.437   6.385  28.719  0.3139 -0.1554  0.1925
14279W        W18579   0.479   1.283  25.728 -0.0100  0.0686  0.2415
14280W        W18580   0.460   6.971  30.640  0.1888  0.1532 -0.6238
14281W        W18581  18.694   6.560   2.819 -0.2056  0.1944  0.0421
14282W        W18582  16.629   3.820  18.961 -0.1723 -0.2156  0.1208
14283W        W18583  12.792   5.188  23.387  0.0137  0.3042 -0.0208
14284W        W18584   6.614   5.938  29.028 -0.0717  0.1540  0.0965
14285W        W18585  15.897   0.359  16.781 -0.0037 -0.0993 -0.0662
14286W        W18586  21.313   0.782  18.821  0.1299  0.1465  0.2558
14287W        W18587   2.345   6.213  16.345  0.3340 -0.0924  0.1500
14288W        W18588   3.547   4.242   2.094  0.3577 -0.0170  0.1373
14289W        W18589   0.817   2.926   1.700  0.1831  0.2351 -0.4284
14290W        W18590  13.453   1.513   8.435 -0.1112  0.0719 -0.3099
14291W        W18591  18.931   6.671  24.105  0.0432  0.0671 -0.2037
14292W        W18592   5.228   1.874   7.545  0.1612  0.1420 -0.1023
14293W        W18593   7.811   3.080   9.737  0.1095 -0.2793 -0.0326
14294W        W18594  23.574   7.434   1.137  0.0007  0.0570 -0.3520
14295W        W18595   8.778   7.433  22.663 -0.2962 -0.1731 -0.3783
14296W        W18596   6.249   1.108  25.998 -0.0625  0.1937 -0.2063
14297W        W18597  17.912   1.773   2.138 -0.0536  0.1907  0.0666
14298W        W18598   9.978   6.619   3.560 -0.1173  0.0211  0.0240
14299W        W18599   2.784   3.451   3.883 -0.0886  0.1209 -0.2388
14300W        W18600  13.799   5.685  18.863 -0.0456 -0.1497 -0.0881
14301W        W18601  15.347   4.892  20.025 -0.3121 -0.0610 -0.2142
14302W        W18602   2.124   3.638  12.719 -0.0006 -0.1306 -0.2443
14303W        W18603  15.597   1.099  33.031 -0.0503  0.1067  0.2067
14304W        W18604  15.489   3.041  27.451 -0.3020 -0.0958 -0.0359
14305W        W18605   8.913   2.941  23.565  0.1584  0.1806 -0.1074
14306W        W18606  11.833   3.691  25.954  0.2479  0.1677 -0.1711
14307W        W18607  17.097   6.178  19.036 -0.2700 -0.0864 -0.0580
14308W        W18608  24.737   7.038  26.663 -0.1031  0.2308 -0.2105
14309W        W18609  21.280   5.809  27.498  0.2780  0.1324 -0.0853
14310W        W18610  17.244   4.794  28.194 -0.3094  0.0213 -0.0867
14311W        W18611   1.937   7.140  15.772  0.3679 -0.3053 -0.0681
14312W        W18612   9.817   7.484  31.884 -0.2314  0.0890 -0.0206
14313W        W18613  14.961   3.116   3.125 -0.2567  0.0151 -0.1335
14314W        W18614  14.371   5.841  19.695  0.0002  0.1017 -0.1991
14315W        W18615   8.679   5.722   1.997  0.0947  0.0899  0.0680
14316W        W18616  16.370   1.901   8.401 -0.2899 -0.0918 -0.1154
14317W        W18617  21.487   3.429   3.666 -0.0944  0.0017  0.2602
14318W        W18618  21.286   2.852  27.679  0.2246  0.0710 -0.3054
14319W        W18619  13.740   4.284  29.560 -0.1798 -0.2595 -0.3941
14320W        W18620   5.390   7.755   5.630  0.0554 -0.0554 -0.0264
14321W        W18621   9.549   1.024  23.767 -0.1494 -0.1431 -0.3752
14322W        W18622  15.692   5.982  18.065 -0.1955 -0.0294 -0.0755
14323W        W18623   2.128   7.387  16.114  0.0986 -0.0572 -0.0515
14324W        W18624  10.874   7.681   8.662 -0.0352 -0.1882 -0.1014
14325W        W18625   7.798   6.956  31.263  0.0885 -0.1352  0.0429
14326W        W18626   8.026   1.478   0.549 -0.1504 -0.1728 -0.1969
14327W        W18627   0.084   2.660  10.924 -0.1799 -0.0681  0.3396
14328W        W18628  20.389   0.150  17.984  0.1026  0.1126  0.0209
14329W        W18629  22.791   2.816  32.495  0.1868 -0.1985  0.1969
14330W        W18630   3.747   5.428  30.874  0.0434  0.0862 -0.3298
14331W        W18631  13.390   7.283  28.216  0.1845 -0.1654  0.2399
14332W        W18632   1.794   0.965  26.496  0.1376 -0.1103  0.0986
14333W        W18633   2.441   5.402  31.331 -0.1764 -0.1251  0.0396
14334W        W18634  19.229   7.800   2.106 -0.0867  0.1265  0.0720
14335W        W18635   6.612   4.989   5.472  0.2409 -0.1167 -0.2089
14336W        W18636  15.570   3.774  28.016 -0.0236  0.1217  0.2372
14337W        W18637  23.997   5.215  12.830  0.1375  0.1063 -0.3333
14338W        W18638   4.447   0.027  26.205 -0.1571  0.0145 -0.4032
14339W        W18639  20.708   0.239   4.732  0.0715  0.1189  0.0958
14340W        W18640  24.169   7.790  12.038 -0.1075  0.1143  0.1578
14341W        W18641  16.264   1.665   7.923  0.2629  0.1786 -0.0669
14342W        W18642  23.806   3.498  20.078 -0.2807 -0.1208 -0.0259
14343W        W18643   1.089   0.161  11.795  0.0682  0.0601 -0.2991
14344W        W18644  21.425   1.576   8.395 -0.1643 -0.0158 -0.1513
14345W        W18645  22.171   2.403  28.178  0.2782  0.1228 -0.0288
14346W        W18646   7.426   3.138  11.549 -0.0798  0.0360  0.0625
14347W        W18647  16.159   1.986   0.807  0.0588 -0.2757 -0.0031
14348W        W18648  23.390   2.813  26.611  0.1412  0.1606  0.1428
14349W        W18649   1.348   3.471   3.665  0.1178 -0.0528 -0.1333
14350W        W18650  17.071   2.798   7.587  0.1900 -0.1555  0.1526
14351W        W18651  18.634   7.617   5.273  0.1062 -0.0187 -0.0389
14352W        W18652   1.619   2.122   7.751 -0.1217  0.1174 -0.1033
14353W        W18653   1.517   3.838   1.093 -0.2888 -0.2488 -0.1667
14354W        W18654  21.468   5.191  25.037 -0.1271 -0.1875 -0.1589
14355W        W18655   7.471   5.885  26.506 -0.0507  0.0045  0.0405
14356W        W18656   7.096   1.692  28.151 -0.3575 -0.0341 -0.0547
14357W        W18657  14.993   0.247  18.561  0.1518 -0.1787 -0.0767
14358W        W18658   5.912   4.308  15.272 -0.1128  0.1998 -0.1785
14359W        W18659   8.137   2.813   8.291 -0.1832 -0.1881 -0.2103
14360W        W18660  21.540   5.661   7.482  0.0291 -0.1152  0.3168
14361W        W18661   8.025   4.931  23.500 -0.0008 -0.0545 -0.2932
14362W        W18662  12.153   3.539   6.869 -0.0172 -0.1667 -0.1621
14363W        W18663   7.977   2.700  13.840  0.0960 -0.1033 -0.1961
14364W        W18664  23.337   5.769   1.049 -0.2885 -0.1740 -0.0624
14365W        W18665  23.187   6.088   5.095 -0.1179 -0.0028 -0.1649
14366W        W18666  18.898   7.008  20.612 -0.2460  0.1026 -0.0878
14367W        W18667   4.971   7.666   6.347 -0.0311 -0.2530 -0.0842
14368W        W18668  16.877   7.199   8.463 -0.0317 -0.1824  0.1417
14369W        W18669  22.247   0.987  11.482  0.1043  0.0377  0.0677
14370W        W18670  10.498   5.397  32.775  0.1748 -0.1175  0.0635
14371W        W18671  18.151   1.585   1.191  0.3258 -0.0199  0.1186
14372W        W18672  14.340   3.909  17.530  0.0225 -0.0099 -0.2932
14373W        W18673   6.270   1.863   6.216 -0.0485  0.1230  0.0655
14374W        W18674   2.440   5.995   1.266 -0.0756  0.0568 -0.2706
14375W        W18675   5.159   5.271  13.758  0.3102  0.3629 -0.0882
14376W        W18676  19.953   2.528  21.026 -0.1814  0.4352 -0.1017
14377W        W18677   2.408   1.321  28.099 -0.2287 -0.0596  0.2436
14378W        W18678  20.843   0.786  29.327  0.1307 -0.2760  0.1066
14379W        W18679  18.001   5.807  17.532  0.1179  0.0961  0.0339
14380W        W18680   8.851   2.731   4.555  0.2635 -0.0181  0.0053
14381W        W18681  22.691   3.144   9.788  0.2961  0.1304  0.0697
14382W        W18682  16.152   4.117  20.401  0.1786  0.1639  0.0776
14383W        W18683   1.164   3.990  15.127 -0.2901  0.2112 -0.1398
14384W        W18684   5.252   1.145  22.410  0.2224 -0.1430  0.2962
14385W        W18685  11.693   7.337  29.053 -0.0241 -0.1715 -0.1177
14386W        W18686  24.731   0.820  31.633 -0.2545 -0.0143 -0.0693
14387W        W18687  19.299   6.207  27.230  0.0898 -0.0971  0.3136
14388W        W18688   7.219   5.718   8.565 -0.1958  0.0773 -0.2353
14389W        W18689  20.158   0.144   4.881  0.1300  0.2503 -0.1846
14390W        W18690  17.518   7.536   5.288 -0.2759  0.1395  0.0600
14391W        W18691  17.818   1.122  19.748 -0.3244 -0.0569 -0.0821
14392W        W18692  17.630   2.009  22.185  0.0089  0.1101 -0.1537
14393W        W18693  17.770   7.085  21.880  0.0386  0.3411 -0.1682
14394W        W18694  21.488   3.939  26.091  0.2668 -0.0554  0.1519
14395W        W18695   2.673   3.498   5.137 -0.0759  0.3044  0.0639
14396W        W18696  12.256   4.493  31.298 -0.0771  0.1129  0.2163
14397W        W18697   4.422   3.549   0.783 -0.1362 -0.0714 -0.0243
14398W        W18698  21.664   1.596  23.251 -0.0335 -0.1375  0.0185
14399W        W18699  10.119   4.935  27.884  0.1885 -0.2168  0.0576
14400W        W18700  19.743   5.068   9.934  0.0018 -0.1319 -0.0576
14401W        W18701  23.657   6.678  25.652 -0.0879  0.1926 -0.2391
14402W        W18702  16.125   5.207   8.031 -0.0813  0.1304 -0.1841
14403W        W18703  13.842   2.247   3.116 -0.2389  0.0701 -0.1951
14404W        W18704  10.319   0.008   2.152 -0.1747  0.0452 -0.2055
14405W        W18705  16.184   0.830  23.223  0.1135 -0.0773 -0.2684
14406W        W18706  21.775   5.217   0.725  0.0805 -0.3901  0.0499
14407W        W18707   6.928   6.984   1.057  0.0250  0.1194  0.4776
14408W        W18708   9.392   0.680  11.437  0.4472  0.2380 -0.2352
14409W        W18709   9.386   6.660  31.801 -0.0109 -0.0119 -0.0769
14410W        W18710   1.198   5.053  27.408 -0.1026 -0.1679  0.2459
14411W        W18711  23.177   7.349  21.506  0.0894  0.1013 -0.2138
14412W        W18712  24.583   4.794  11.059 -0.0552  0.1560 -0.2186
14413W        W18713   7.568   5.443  28.749  0.2594  0.2029 -0.0221
14414W        W18714  19.758   4.822  10.402  0.1224 -0.2033 -0.0853
14415W        W18715   6.010   1.624   1.374 -0.1578 -0.0447 -0.5135
14416W        W18716  11.517   1.638   8.660  0.2702  0.1291 -0.1401
14417W        W18717   0.028   1.523  12.429 -0.0676 -0.1020 -0.3297
14418W        W18718   3.180   6.331  26.834  0.0693 -0.2202  0.0321
14419W        W18719   0.243   6.357  24.700 -0.2036  0.2093 -0.0644
14420W        W18720   3.169   2.210  24.480 -0.2940  0.2980  0.0186
14421W        W18721   5.666   6.866  18.604  0.0196  0.4425  0.0503
14422W        W18722  24.505   0.775  31.165 -0.1253 -0.2264 -0.1092
14423W        W18723  23.827   4.737   3.370 -0.2325 -0.0320 -0.3661
14424W        W18724  13.688   1.747   2.338  0.1746  0.1016  0.0167
14425W        W18725  17.604   4.174  23.880 -0.0674  0.1053  0.1142
14426W        W18726  16.252   6.724  25.441 -0.0870  0.3865 -0.2698
14427W        W18727   1.345   5.057  23.718 -0.0336 -0.1349 -0.0182
14428W        W18728  20.761   3.161   4.335 -0.2248  0.0556 -0.1495
14429W        W18729  21.093   3.490  25.877  0.2789  0.1132 -0.1850
14430W        W18730  15.862   0.999  17.677  0.4436 -0.0686  0.1816
14431W        W18731   9.404   3.805   5.504  0.3111  0.2016 -0.1482
14432W        W18732   8.867   0.325   9.781  0.2005  0.2253  0.0104
14433W        W18733   2.264   1.652  13.624 -0.1185 -0.0227 -0.0313
14434W        W18734  23.459   3.979  25.739  0.0820 -0.0977 -0.0247
14435W        W18735   3.191   1.424  13.676  0.0910 -0.1435 -0.1331
14436W        W18736   9.415   6.210  26.504 -0.0344 -0.0254 -0.1436
14437W        W18737  14.384   7.657  25.664  0.0946 -0.3701 -0.3352
14438W        W18738  21.665   5.518   7.961  0.0972  0.1424 -0.1953
14439W        W18739   0.052   1.262  24.851 -0.2104 -0.2302 -0.1912
14440W        W18740  13.945   3.947   3.402 -0.3564 -0.1144  0.1096
14441W        W18741  18.726   4.279  20.565 -0.1323 -0.1627  0.2416
14442W        W18742  10.957   1.599  28.558 -0.3670  0.0303  0.2621
14443W        W18743  10.142   4.134  26.618  0.1016 -0.2148  0.0647
14444W        W18744  14.864   1.911  27.131  0.0181  0.1016 -0.1317
14445W        W18745  17.140   6.699   0.848 -0.1674  0.2472  0.0485
14446W        W18746  10.255   0.573  10.563 -0.4889  0.0735 -0.2196
14447W        W18747   1.704   6.979  25.377 -0.1159 -0.2310  0.0960
14448W        W18748   5.583   2.555  11.078  0.1605  0.3016  0.1656
14449W        W18749  10.099   0.445  25.357 -0.2816  0.1645  0.1325
14450W        W18750  12.602   0.300  20.647  0.1123  0.0184 -0.1278
14451W        W18751  17.797   4.334   0.966  0.0416  0.3514 -0.1620
14452W        W18752   6.369   3.360   7.407  0.2415  0.1781 -0.5210
14453W        W18753  20.726   6.611   2.677 -0.1280  0.1493 -0.2329
14454W        W18754   0.629   4.932  11.730 -0.2407  0.2973  0.1885
14455W        W18755  10.842   5.823  27.745 -0.0377 -0.1234  0.0918
14456W        W18756  17.488   3.194  21.617  0.1536 -0.1712  0.3294
14457W        W18757   6.266   0.980  32.746 -0.0208 -0.1319  0.0494
14458W        W18758  24.322   1.092  30.410 -0.1279  0.0397  0.0432
14459W        W18759   5.094   4.353  12.112 -0.3939  0.0881  0.1076
14460W        W18760  17.238   2.767   6.010 -0.2586 -0.0222  0.0409
14461W        W18761  21.102   4.708   8.057 -0.0295  0.3807 -0.0004
14462W        W18762  14.041   7.391  30.727  0.1150  0.0224 -0.1512
14463W        W18763  11.044   1.049  19.541 -0.1121  0.1576  0.1167
14464W        W18764   5.384   1.577  31.166  0.0308  0.0202 -0.0081
14465W        W18765  24.149   4.492  26.869  0.0234  0.1159 -0.1409
14466W        W18766   4.734   2.445   5.184 -0.1553  0.1849 -0.1118
14467W        W18767  19.818   3.058  27.771 -0.0430 -0.4453  0.2234
14468W        W18768  22.632   6.547  32.323 -0.0393  0.1893 -0.1144
14469W        W18769  15.345   5.328   3.616  0.0503 -0.1740 -0.0148
14470W        W18770   8.448   6.527  26.230 -0.0675 -0.0080  0.2550
14471W        W18771   8.739   1.712  31.603 -0.2474 -0.2392 -0.0137
14472W        W18772  21.815   4.338  26.073 -0.0157  0.1139  0.2052
14473W        W18773  14.276   7.453  28.471  0.0853 -0.1391 -0.0401
14474W        W18774   8.061   7.475  15.544  0.1713  0.1153 -0.3069
14475W        W18775  23.891   4.227  25.866  0.2868 -0.2365  0.1026
14476W        W18776  24.351   5.396  27.526 -0.0235  0.2309 -0.3206
14477W        W18777   5.736   3.387   6.134 -0.0581 -0.1564 -0.1545
14478W        W18778  21.233   7.098   6.854  0.4431 -0.1541  0.2045
14479W        W18779  24.728   5.717   1.323  0.2948 -0.1668  0.0235
14480W        W18780   0.530   0.755  21.995 -0.3129  0.3297  0.1159
14481W        W18781  14.806   2.417   4.836 -0.1423 -0.1077  0.2145
14482W        W18782   6.703   4.888  10.135  0.1466 -0.1940  0.1201
14483W        W18783  21.130   6.914  32.824 -0.0167  0.2600  0.0917
14484W        W18784   7.327   6.192   3.739  0.1823  0.2354  0.0550
14485W        W18785  21.129   4.919   4.324  0.0044  0.0608 -0.3283
14486W        W18786   0.824   0.142   6.110  0.1171  0.0615  0.0265
14487W        W18787  13.610   5.232  32.000 -0.0165  0.0394  0.0885
14488W        W18788  12.635   0.148   0.343  0.2292 -0.2054 -0.1039
14489W        W18789  19.808   3.101   2.721  0.0277  0.1790  0.2240
14490W        W18790   1.090   2.000   3.140 -0.0743  0.0351 -0.3100
14491W        W18791   1.161   3.771   5.462  0.1487  0.0727 -0.2897
14492W        W18792  24.034   2.484  23.421 -0.0122  0.1094 -0.0983
14493W        W18793   7.584   0.084  13.718 -0.3109 -0.0029 -0.2315
14494W        W18794  12.207   2.559  20.133  0.0767 -0.2433 -0.1358
14495W        W18795  20.959   2.943  32.905  0.1202 -0.0500 -0.2486
14496W        W18796  17.864   1.504  31.165  0.1604  0.1076  0.2465
14497W        W18797  23.709   3.921   6.367 -0.1292  0.0700 -0.0752
14498W        W18798   7.703   0.470  29.484  0.0793 -0.2873  0.1768
14499W        W18799   6.210   7.733  17.283 -0.1072  0.3278  0.4936
14500W        W18800  19.762   7.472  27.923 -0.4602 -0.0232 -0.0332
14501W        W18801  20.533   0.639   9.803  0.1455 -0.2428  0.0279
14502W        W18802   1.014   6.840  15.441 -0.1626  0.0620 -0.0145
14503W        W18803  22.178   6.128  27.450 -0.1254  0.2265 -0.2100
14504W        W18804  24.636   4.219  15.703  0.3158  0.0919 -0.2110
14505W        W18805  16.845   6.609  24.436  0.4636 -0.0376 -0.0022
14506W        W18806  19.232   5.967   8.242 -0.0860 -0.2856  0.1592
14507W        W18807   4.404   4.430  30.400 -0.3319  0.4411 -0.2282
14508W        W18808  20.648   0.324  24.696 -0.0571  0.3274 -0.2104
14509W        W18809  13.823   4.543   0.134  0.0805  0.1762  0.1779
14510W        W18810   1.514   7.154  15.546  0.2691  0.1341  0.1449
14511W        W18811  14.312   0.723   7.772 -0.0023 -0.0792 -0.0931
14512W        W18812  21.826   3.886   2.730  0.0597  0.0117 -0.2464
14513W        W18813   5.021   6.793  31.422  0.2991 -0.5087  0.0073
14514W        W18814   0.159   3.076  25.977  0.3144 -0.2537 -0.0371
14515W        W18815  14.011   3.668  16.737 -0.0271 -0.3780 -0.1715
14516W        W18816  11.452   7.791  19.879  0.0757 -0.4898  0.0442
14517W        W18817   4.555   1.744  16.326 -0.3080  0.0869  0.1433
14518W        W18818   2.763   3.238   6.459 -0.0336  0.0115  0.0178
14519W        W18819   4.101   3.698  10.584 -0.1294  0.0016 -0.1622
14520W        W18820  19.501   3.393  32.207  0.1806  0.1552 -0.2923
14521W        W18821   1.200   4.789  29.511 -0.1146 -0.0756 -0.0098
14522W        W18822  18.035   4.115  24.213  0.2929  0.0280  0.3433
14523W        W18823  23.749   1.646  27.911  0.0279 -0.0475  0.2263
14524W        W18824  15.502   2.383  16.941  0.0363 -0.2783  0.1034
14525W        W18825  12.663   4.640  23.303 -0.1048  0.1345  0.1107
14526W        W18826  10.544   0.513  31.641  0.1284 -0.2892 -0.0623
14527W        W18827  19.185   5.740  23.240  0.0956 -0.2541 -0.1974
14528W        W18828  14.071   4.382   9.367 -0.2565 -0.0350  0.0795
14529W        W18829   1.664   1.448  26.827  0.1369 -0.1411  0.1884
14530W        W18830  21.459   7.692   5.971  0.3588 -0.0125 -0.2177
14531W        W18831  10.599   4.157  31.688  0.3740 -0.1012 -0.2155
14532W        W18832  16.655   0.041   2.143 -0.0409 -0.0261 -0.1276
14533W        W18833   5.157   0.800  10.058 -0.0301  0.1319 -0.1779
14534W        W18834   5.019   1.367  13.197  0.2287  0.1190 -0.1198
14535W        W18835  11.395   5.335   3.961 -0.2678 -0.1171 -0.2243
14536W        W18836   0.191   2.323  11.380  0.0014 -0.0562 -0.0269
14537W        W18837  18.616   2.902   5.778  0.2757  0.0591  0.0222
14538W        W18838   3.710   7.188  14.578  0.3317 -0.3066 -0.1273
14539W        W18839   8.172   5.666  26.249  0.0023 -0.0578 -0.3488
14540W        W18840  21.227   7.199   8.236  0.1345  0.1367 -0.3756
14541W        W18841  12.467   2.509  23.818  0.1217 -0.0356 -0.1525
14542W        W18842   0.463   0.615  12.274  0.3250  0.2212 -0.0528
14543W        W18843  18.080   0.575   2.710 -0.1782  0.0874  0.0092
14544W        W18844  14.723   7.231  28.534  0.1169  0.0006 -0.0503
14545W        W18845  20.280   3.773   6.975 -0.0137 -0.2685 -0.1423
14546W        W18846  24.053   2.795  22.185 -0.0397  0.5232 -0.1634
14547W        W18847  15.761   1.410  16.972  0.2637 -0.1752 -0.1614
14548W        W18848  11.601   6.794  20.265 -0.1827 -0.0516 -0.3036
14549W        W18849  22.514   0.018   2.596 -0.1503 -0.0447 -0.0753
14550W        W18850  11.676   6.313   1.204 -0.0898  0.0880  0.0400
14551W        W18851  17.718   3.560  25.974 -0.4081 -0.1774 -0.0382
14552W        W18852   4.462   5.208   3.165  0.1268  0.1251 -0.0420
14553W        W18853  18.719   2.762  17.034 -0.3446 -0.1118  0.2105
14554W        W18854  19.141   7.502  18.202  0.1398  0.0410  0.1783
14555W        W18855  23.483   3.036   6.216  0.0150 -0.1158  0.1649
14556W        W18856  20.672   2.059  26.948  0.3948 -0.3782  0.1923
14557W        W18857  11.629   7.012  19.170  0.0769  0.1729 -0.0136
14558W        W18858  23.514   1.633   8.684 -0.1569 -0.0337  0.0251
14559W        W18859  17.877   5.344   4.691 -0.1248 -0.0529 -0.0780
14560W        W18860  18.830   7.017  21.867  0.2478  0.0450 -0.1325
14561W        W18861  15.978   5.261  26.829  0.2313  0.1279  0.0866
14562W        W18862   4.931   3.536  27.937  0.0621  0.0704 -0.1331
14563W        W18863  19.238   0.885  27.468 -0.1277  0.0674 -0.3502
14564W        W18864   5.059   5.065  29.936  0.0439 -0.3274  0.1591
14565W        W18865  10.884   6.314  23.272  0.0819 -0.0931  0.2057
14566W        W18866  18.166   3.323   3.618  0.2230  0.0151 -0.1067
14567W        W18867   4.404   0.772  18.816  0.0197  0.0326  0.1521
14568W        W18868  20.083   3.363  18.986  0.0406  0.1276 -0.1604
14569W        W18869   7.008   1.699  22.668  0.0134  0.2505 -0.1297
14570W        W18870  24.347   4.200  10.448  0.3702 -0.0896 -0.0128
14571W        W18871  21.238   2.948  27.193  0.0305 -0.2021  0.0919
14572W        W18872   3.522   4.468   1.285 -0.0031 -0.3916  0.0754
14573W        W18873   0.972   2.522  14.272  0.1167  0.0289  0.2453
14574W        W18874   4.861   5.390   4.116 -0.0424  0.2591 -0.1331
14575W        W18875  12.936   5.929  17.567  0.0096 -0.0883  0.2784
14576W        W18876  14.585   3.011  19.494 -0.1324 -0.2330 -0.0081
14577W        W18877  14.761   7.684  28.370 -0.2939  0.2176 -0.2012
14578W        W18878  23.767   4.309  11.445 -0.0101  0.2733  0.0256
14579W        W18879   8.008   7.019   5.151 -0.1486 -0.0093  0.0906
14580W        W18880   5.701   0.808  28.385  0.1011 -0.0474  0.1870
14581W        W18881  17.361   1.049  31.470 -0.1400  0.0544  0.1018
14582W        W18882  22.768   1.819  29.358  0.4222  0.2838 -0.1444
14583W        W18883   6.183   2.675  25.772 -0.3065  0.1551 -0.1483
14584W        W18884   3.223   5.929  29.767  0.0723 -0.0070  0.2330
14585W        W18885  18.654   6.314  18.537  0.4255 -0.0046  0.1717
14586W        W18886   0.410   6.216  14.685  0.0244 -0.0015 -0.1417
14587W        W18887   3.881   6.646   4.686 -0.0663  0.1326  0.1881
14588W        W18888  13.891   5.943   9.368 -0.5264 -0.1660 -0.1901
14589W        W18889  16.255   3.451   4.526 -0.1369 -0.2624 -0.1519
14590W        W18890  21.141   6.572   0.155 -0.1072  0.1225  0.1183
14591W        W18891  11.128   4.220  24.616  0.3498 -0.0217 -0.1354
14592W        W18892  23.376   6.952   7.911  0.0287  0.0429 -0.0357
14593W        W18893   2.595   4.561  16.952 -0.2540 -0.2367  0.0431
14594W        W18894   7.618   3.289   9.275  0.0517  0.2493  0.2145
14595W        W18895  24.386   2.360   6.579 -0.1329  0.2004 -0.1612
14596W        W18896   7.501   0.309  31.711 -0.0787 -0.0597  0.0520
14597W        W18897  18.610   2.322  19.799 -0.0232  0.2058 -0.1306
14598W        W18898  17.520   0.401  25.441 -0.1690 -0.2083 -0.1921
14599W        W18899  11.662   0.352   3.363 -0.1230 -0.3662 -0.1631
14600W        W18900  11.203   2.916  31.523  0.1590  0.0865 -0.3199
14601W        W18901  23.355   6.171  29.655  0.2113 -0.2413  0.1094
14602W        W18902   2.078   5.927  14.484  0.2722  0.1178  0.1405
14603W        W18903   3.777   6.200   1.662  0.0896  0.0411  0.1462
14604W        W18904  12.383   2.356   9.756  0.1001 -0.0651  0.0816
14605W        W18905  16.493   6.163  25.327 -0.0968  0.0163  0.0223
14606W        W18906   9.155   3.342  24.626 -0.0166 -0.0204 -0.1589
14607W        W18907  17.934   4.055  32.470  0.0143  0.2126  0.0227
14608W        W18908  21.118   1.871  21.054  0.1255  0.0137  0.1475
14609W        W18909   8.557   5.280   3.288 -0.2758 -0.2639 -0.0674
14610W        W18910  22.410   0.004  26.371  0.0633  0.0507  0.2763
14611W        W18911   0.404   3.822  12.221 -0.1939  0.2836 -0.3412
14612W        W18912  18.415   5.769  31.558 -0.1041  0.1027  0.0618
14613W        W18913  16.048   4.183   6.849  0.0732 -0.0724 -0.0132
14614W        W18914  20.748   0.093  30.373  0.2209 -0.1531  0.1431
14615W        W18915  22.522   2.401  12.467  0.0211 -0.1055 -0.3533
14616W        W18916  15.900   5.207   4.736 -0.0726 -0.1677 -0.0004
14617W        W18917  12.991   2.954   6.279  0.1363  0.0725 -0.2045
14618W        W18918   9.805   2.189   0.719 -0.4635 -0.3514 -0.1721
14619W        W18919   7.365   5.055  22.520 -0.1235 -0.3783  0.0639
14620W        W18920   3.772   6.354  10.312 -0.1569 -0.0853 -0.1316
14621W        W18921   2.405   5.011  16.165  0.0992 -0.0225 -0.0474
14622W        W18922  13.268   6.438  27.559  0.0199 -0.0190  0.0649
14623W        W18923   6.793   6.573  11.808 -0.1424  0.1649 -0.0617
14624W        W18924  10.287   0.632   4.249  0.1470 -0.0453 -0.2337
14625W        W18925  18.859   6.431  21.878  0.0694  0.1369 -0.0648
14626W        W18926  24.820   6.367  28.879 -0.1873  0.0833  0.1734
14627W        W18927  17.899   4.191  31.705  0.1426  0.0736  0.0309
14628W        W18928  16.857   5.182  10.275  0.2052  0.1084 -0.1652
14629W        W18929  12.624   3.531  27.370 -0.0061 -0.0431 -0.0479
14630W        W18930  22.762   6.648   8.442 -0.0691  0.0625 -0.0608
14631W        W18931  19.323   5.995  17.794  0.0300 -0.2523 -0.0119
14632W        W18932  10.386   1.447  30.677 -0.0395  0.0708 -0.3928
14633W        W18933   7.307   1.429   1.061  0.1747 -0.1031  0.0812
14634W        W18934   4.043   0.850   3.724 -0.0940 -0.0116 -0.1059
14635W        W18935  17.568   1.875   0.575 -0.1659 -0.2789  0.3060
14636W        W18936   6.431   6.473  16.038 -0.1725 -0.1388  0.1907
14637W        W18937  22.541   3.589  31.908 -0.0386  0.2459 -0.0601
14638W        W18938  11.841   5.360  17.581 -0.3093 -0.2172 -0.0198
14639W        W18939  21.258   2.468   5.080  0.0520 -0.0800 -0.0099
14640W        W18940  22.384   3.022  31.112  0.0242 -0.1639 -0.1193
14641W        W18941   8.239   1.853  27.248  0.0562 -0.1479  0.2366
14642W        W18942   4.392   6.481   8.717 -0.0390 -0.1011  0.2849
14643W        W18943  22.451   5.021  28.342  0.0414  0.1342  0.0412
14644W        W18944   2.486   3.727   6.572 -0.0386  0.2937 -0.1108
14645W        W18945   6.253   3.390  11.994 -0.5220  0.1803  0.1178
14646W        W18946  13.358   1.830  29.727  0.1301 -0.3935  0.2727
14647W        W18947   3.230   7.642  15.263  0.0015  0.1150 -0.0184
14648W        W18948  12.181   6.255   0.938 -0.2824  0.3543 -0.0590
14649W        W18949  22.210   1.938  23.966  0.1659  0.2218 -0.0459
14650W        W18950  10.591   1.804   5.503  0.0277  0.1128  0.2162
14651W        W18951   0.369   0.065  10.383  0.1103  0.0003 -0.2174
14652W        W18952   9.253   4.331  24.269  0.0985 -0.0640  0.1372
14653W        W18953  14.955   0.282  21.648 -0.1582  0.0379 -0.1290
14654W        W18954  14.612   5.434  26.028 -0.1508  0.2051 -0.0285
14655W        W18955   9.537   1.449  27.357 -0.0027  0.0975 -0.3563
14656W        W18956   3.860   6.947   0.960 -0.1622  0.0537 -0.6450
14657W        W18957  24.218   0.989   2.063 -0.1971  0.0739 -0.0125
14658W        W18958  23.279   6.777  26.687 -0.4424 -0.3720  0.0011
14659W        W18959   5.357   1.269  17.410 -0.0478  0.1679 -0.1151
14660W        W18960  17.135   1.490   1.508  0.3110  0.0929 -0.4017
14661W        W18961  20.061   5.363  22.292 -0.0654  0.0222 -0.0206
14662W        W18962  20.933   2.531  23.089 -0.0932  0.1234 -0.2508
14663W        W18963  15.578   5.158   6.709 -0.2132  0.0769  0.0565
14664W        W18964   5.945   1.903  17.698 -0.0792 -0.1395  0.0320
14665W        W18965  13.279   6.515  29.198  0.0603 -0.1323 -0.0757
14666W        W18966  15.522   7.687  16.593  0.2883  0.2487  0.0449
14667W        W18967  23.728   3.932   3.272 -0.0794  0.0494 -0.1094
14668W        W18968  22.096   3.083  19.214 -0.2183 -0.1126  0.1675
14669W        W18969   7.007   2.344   6.746  0.0068  0.0359  0.0194
14670W        W18970   0.385   7.212   4.808  0.0363 -0.1026 -0.0960
14671W        W18971  13.682   5.014   2.642 -0.0820 -0.0756 -0.1959
14672W        W18972  12.938   0.514   7.819 -0.2116 -0.2634 -0.1267
14673W        W18973   9.191   4.764  10.881 -0.0055  0.1059  0.2402
14674W        W18974   7.414   7.707   4.688  0.1300  0.1375  0.2379
14675W        W18975  14.330   1.289  29.379 -0.0446 -0.1215  0.0865
14676W        W18976  14.306   7.270  27.652  0.0048 -0.0799  0.0489
14677W        W18977   1.104   7.065  29.806 -0.1403  0.1413 -0.1167
14678W        W18978   6.400   3.405  26.427 -0.1301 -0.0483  0.1256
14679W        W18979   3.369   6.945  29.029  0.2138 -0.0827 -0.0385
14680W        W18980  17.239   4.500  26.499 -0.1861 -0.0863 -0.2891
14681W        W18981  14.055   4.379  28.243  0.1069 -0.6014 -0.0835
14682W        W18982   1.194   0.629   7.994 -0.1634 -0.0633  0.1020
14683W        W18983   0.152   7.332  22.120  0.1774 -0.1753  0.0215
14684W        W18984  24.305   5.737  29.615 -0.1153  0.0596 -0.3335
14685W        W18985  23.801   1.305  25.756 -0.4083 -0.1530  0.2142
14686W        W18986   9.376   7.213  21.454  0.1003  0.2134  0.2357
14687W        W18987   0.392   1.054  31.365 -0.1327 -0.2157 -0.0133
14688W        W18988  10.088   3.135  28.787 -0.0959 -0.4198 -0.1685
14689W        W18989   2.652   2.180  23.216 -0.0241 -0.1348  0.2353
14690W        W18990   7.978   3.538   2.194 -0.0338  0.1465  0.3938
14691W        W18991  16.407   7.246   6.908 -0.3309 -0.2042  0.1249
14692W        W18992  14.557   7.630  26.146 -0.0196  0.3539  0.0851
14693W        W18993   1.403   4.180  11.571  0.2955  0.0524  0.0175
14694W        W18994  20.665   1.359  24.510 -0.1230 -0.1041  0.2465
14695W        W18995  22.064   6.346   4.793  0.2809  0.2130 -0.1567
14696W        W18996  12.717   0.577  24.444  0.1796  0.0085 -0.1025
14697W        W18997  19.701   5.261  21.965  0.1801 -0.2275 -0.0554
14698W        W18998   4.978   3.988  11.847 -0.0800  0.2439 -0.3186
14699W        W18999  19.954   7.284   4.530  0.1311 -0.0112  0.1632
14700W        W19000   0.344   3.434   7.565  0.0258 -0.3845 -0.0357
14701W        W19001  17.264   5.739  18.136  0.0120 -0.0877  0.1388
14702W        W19002  11.467   4.627   2.270  0.1808  0.2627 -0.1565
14703W        W19003   3.623   1.360  24.781 -0.2167  0.1071  0.0251
14704W        W19004  14.578   2.913  23.441  0.1338 -0.0157 -0.2848
14705W        W19005   2.873   2.545  26.091  0.2015  0.2064  0.0481
14706W        W19006  19.012   6.716  32.281 -0.1545 -0.1120  0.0599
14707W        W19007  19.529   7.199  29.528 -0.0101 -0.1762 -0.0113
14708W        W19008  12.775   2.462   9.501  0.0703 -0.0179 -0.1477
14709W        W19009   9.021   0.569   0.568 -0.2532  0.1325  0.0868
14710W        W19010  11.580   1.959  28.701 -0.3492  0.1853 -0.0688
14711W        W19011  22.855   0.737   4.978  0.0224 -0.0908  0.0880
14712W        W19012   2.781   4.610  28.512 -0.0277  0.1054 -0.1018
14713W        W19013  15.906   4.657  28.235  0.2267 -0.1375 -0.0500
14714W        W19014  24.207   6.535  21.369  0.1592  0.1196 -0.1345
14715W        W19015  21.145   5.235   0.806  0.0575  0.0933  0.1570
14716W        W19016  10.619   3.685  25.977 -0.2832  0.3945 -0.1409
14717W        W19017  14.288   5.397  28.796  0.0839 -0.1641  0.1953
14718W        W19018  18.513   6.957   9.010  0.0957  0.0871 -0.0938
14719W        W19019  14.734   2.462  23.356  0.0551 -0.2737 -0.1555
14720W        W19020  14.844   5.998  19.021 -0.0303  0.1109  0.1257
14721W        W19021  17.442   3.567  30.875  0.0306  0.1563  0.0592
14722W        W19022  22.759   7.121   9.687 -0.2285 -0.0711  0.2698
14723W        W19023   2.251   1.723   9.494 -0.0274 -0.1977 -0.3158
14724W        W19024  11.357   4.277   1.814  0.1451 -0.1355  0.0419
14725W        W19025   3.643   5.943  18.444  0.1313  0.2839  0.1279
14726W        W19026  22.093   5.429   6.919 -0.0008  0.0980 -0.2082
14727W        W19027   5.438   3.696  11.697 -0.0416  0.3264 -0.1360
14728W        W19028  12.802   7.651  25.684  0.1974 -0.1228 -0.4775
14729W        W19029  24.124   7.296  32.827 -0.1720  0.1721 -0.2583
14730W        W19030  16.421   4.775   6.136  0.1017  0.1646  0.0579
14731W        W19031   8.655   0.226   0.987  0.0939  0.0552  0.0567
14732W        W19032   2.020   3.098  16.166  0.0781  0.0057 -0.0839
14733W        W19033  13.683   0.391  25.067  0.0462  0.0653  0.1790
14734W        W19034  14.375   4.780   0.758 -0.0742 -0.1379 -0.3897
14735W        W19035   1.286   2.365  30.924 -0.2455 -0.0067  0.2293
14736W        W19036  22.483   2.010   3.327  0.2240 -0.2959  0.1364
14737W        W19037  13.589   3.042  20.440  0.0619 -0.1542  0.2204
14738W        W19038  15.831   6.119  10.431 -0.0895  0.1049 -0.1995
14739W        W19039  18.826   0.610  22.373 -0.0425  0.0968  0.1606
14740W        W19040  24.264   1.459  31.821  0.0775 -0.0866  0.1473
14741W        W19041  14.939   4.512  10.295  0.1494  0.1552  0.0542
14742W        W19042  17.648   2.432  18.869  0.0413 -0.0093  0.1226
14743W        W19043   3.819   2.365   8.998  0.0312  0.0733 -0.0796
14744W        W19044  10.793   7.109  24.339 -0.2661 -0.1077  0.0735
14745W        W19045   5.562   1.139  32.682 -0.0911  0.1574 -0.0129
14746W        W19046   9.392   5.347  30.563 -0.0006 -0.3257 -0.3644
14747W        W19047  18.144   4.190   6.108 -0.3113  0.0159  0.1809
14748W        W19048   3.538   2.881   8.235  0.2096  0.0910  0.2185
14749W        W19049  23.545   2.163  30.267  0.1493  0.1202 -0.4030
14750W        W19050  16.629   2.717  24.340 -0.2807 -0.1152 -0.1172
14751W        W19051  15.896   3.571   9.781  0.0085  0.1510 -0.2555
14752W        W19052   9.975   2.804  30.184  0.0655  0.1035 -0.1244
14753W        W19053   9.614   5.491  32.478 -0.1096  0.0085 -0.0145
14754W        W19054  23.193   7.493  20.486 -0.1003  0.1251  0.3381
14755W        W19055   2.248   3.843   5.179  0.0631  0.1907  0.2559
14756W        W19056   5.626   3.059  10.954  0.0113  0.1791  0.3146
14757W        W19057  19.358   5.823  24.347  0.0320 -0.1861  0.0771
14758W        W19058  20.644   2.446   3.762  0.1247  0.0959 -0.1185
14759W        W19059   8.125   5.596  11.681 -0.1563 -0.1834 -0.2459
14760W        W19060  13.027   1.888   3.701  0.1780 -0.2103 -0.0876
14761W        W19061   5.254   0.064  23.383 -0.2602  0.1847  0.0790
14762W        W19062   3.459   3.161   7.006  0.2358 -0.1424 -0.1094
14763W        W19063   4.748   2.166  27.174  0.2399 -0.2371 -0.2003
14764W        W19064  13.957   5.431  30.228  0.0615  0.2481 -0.0306
14765W        W19065  10.134   3.995  31.580 -0.1274 -0.1603 -0.3999
14766W        W19066  14.398   3.724  18.140 -0.0230 -0.1405 -0.0495
14767W        W19067   3.983   4.569   3.426  0.1017 -0.4379  0.1606
14768W        W19068   9.103   4.519   4.908 -0.1192  0.2155 -0.0874
14769W        W19069  10.554   5.181  24.630  0.0466 -0.1632  0.0049
14770W        W19070   4.748   3.135  12.271 -0.2074  0.2245  0.2231
14771W        W19071   0.465   6.223   0.339  0.0893 -0.1820 -0.0039
14772W        W19072   6.480   5.140  24.508 -0.1160 -0.1534  0.1742
14773W        W19073  12.039   2.954  10.702  0.3613  0.3227 -0.0318
14774W        W19074  13.315   3.331  19.986 -0.0349 -0.1439  0.1070
14775W        W19075   1.342   1.079  26.764 -0.1316 -0.0957 -0.3158
14776W        W19076   3.162   1.841  14.322 -0.0371  0.1790 -0.1685
14777W        W19077  17.413   2.352   8.537  0.0414  0.0289 -0.0494
14778W        W19078  24.139   5.958  14.339  0.3832 -0.0848 -0.0856
14779W        W19079  21.259   2.292  28.601  0.2376  0.1663 -0.0534
14780W        W19080   2.570   5.883  17.585 -0.1861  0.2073  0.1019
14781W        W19081  19.940   6.069  27.660  0.0944 -0.0067 -0.0518
14782W        W19082  14.580   2.374  14.514 -0.0869 -0.0996  0.1548
14783W        W19083   7.432   6.422  27.333 -0.0533 -0.0205  0.0387
14784W        W19084   3.720   4.196  14.151  0.0457 -0.2304  0.2343
14785W        W19085  13.571   3.515  29.890 -0.3024  0.0740  0.0103
14786W        W19086  10.485   4.920   8.187  0.5230 -0.0895  0.0887
14787W        W19087  17.159   3.405   2.296 -0.0267 -0.0078  0.0434
14788W        W19088   5.488   7.738   5.089 -0.2440  0.1165  0.1522
14789W        W19089  11.368   0.186   7.862  0.0088 -0.0904 -0.0912
14790W        W19090   8.245   0.069   5.566 -0.0355  0.2055 -0.1456
14791W        W19091  10.784   6.932  27.669 -0.0271  0.0872  0.0236
14792W        W19092   7.992   0.775  26.395  0.1028  0.4389 -0.2290
14793W        W19093   6.101   5.590   4.328  0.0062 -0.1076  0.2113
14794W        W19094  17.316   6.634  21.030  0.2367  0.0016 -0.1257
14795W        W19095  18.078   5.047  18.219 -0.4430 -0.0553 -0.2456
14796W        W19096  11.121   4.253   4.904  0.0008 -0.0532 -0.1018
14797W        W19097  18.666   2.723   4.241 -0.0872  0.1068  0.3116
14798W        W19098  19.216   4.340  20.072 -0.1820  0.0026 -0.0787
14799W        W19099  13.327   4.575   5.979  0.0869  0.1296  0.0402
14800W        W19100  15.014   3.300  20.645  0.4400 -0.0579  0.5121
14801W        W19101  22.702   2.094  20.642  0.1032  0.0288  0.2143
14802W        W19102   4.064   1.296  31.575 -0.2028  0.0796  0.0391
14803W        W19103   6.836   2.216   8.641 -0.1405  0.3002  0.0943
14804W        W19104   7.911   5.456   5.579  0.0110 -0.0203 -0.1752
14805W        W19105   9.894   2.696   0.715 -0.0104  0.1533 -0.0899
14806W        W19106   9.954   0.007   9.159  0.0107  0.0758 -0.1098
14807W        W19107   5.725   3.920   2.096  0.3488 -0.2144  0.0794
14808W        W19108  20.767   1.503   9.893 -0.0689 -0.1882  0.0562
14809W        W19109   8.867   5.475   5.355  0.0001  0.0933  0.2371
14810W        W19110  17.251   1.798  19.981  0.1814  0.2507 -0.0108
14811W        W19111  14.784   3.006   9.991  0.1067  0.0504 -0.1542
14812W        W19112   2.311   5.260  28.017  0.0574  0.2322 -0.0523
14813W        W19113   2.760   2.193   5.643 -0.0036 -0.2316  0.0657
14814W        W19114  23.152   6.133  12.240  0.1554 -0.0612 -0.2062
14815W        W19115  21.541   5.450   5.515  0.1504  0.3415 -0.0481
14816W        W19116  16.639   7.242   2.365  0.0824  0.0388  0.3118
14817W        W19117  20.133   5.606  19.247  0.2099  0.1362 -0.0500
14818W        W19118   1.225   6.495  24.405 -0.0171  0.4039  0.1245
14819W        W19119  11.421   4.727  17.768  0.1376 -0.0045 -0.0079
14820W        W19120  22.391   2.241  22.986 -0.3915  0.1957 -0.1420
14821W        W19121  14.268   7.330   1.413 -0.1303 -0.0184  0.0846
14822W        W19122   2.729   7.359   8.614 -0.0017 -0.0731  0.2549
14823W        W19123  12.002   4.245   3.649 -0.0483 -0.1247  0.2729
14824W        W19124  17.043   4.307  27.260 -0.1360  0.0117 -0.0172
14825W        W19125  21.521   3.702   2.040  0.3791  0.0014 -0.0366
14826W        W19126  16.986   3.709   4.951 -0.0454 -0.3336  0.0388
14827W        W19127  21.795   2.064   3.963 -0.0062  0.0302  0.1673
14828W        W19128  21.645   4.113  30.428 -0.2173  0.2672 -0.1454
14829W        W19129  23.755   1.561  31.095 -0.2394 -0.3551  0.1187
14830W        W19130   2.851   7.413  14.400 -0.2540  0.0648  0.2483
14831W        W19131  19.337   5.193   1.165  0.0307 -0.2133 -0.0460
14832W        W19132  15.325   1.467  30.407 -0.0369  0.1437 -0.1044
14833W        W19133  12.660   7.012   9.775 -0.3706  0.2396 -0.2987
14834W        W19134  11.626   3.025  20.900  0.0501  0.0523  0.2775
14835W        W19135  10.979   7.141  22.676 -0.0019 -0.2721 -0.0921
14836W        W19136  18.869   0.887   2.254  0.1731  0.0714 -0.0592
14837W        W19137  22.344   6.202  29.522  0.1650 -0.1182 -0.0555
14838W        W19138  10.137   0.844  25.634 -0.0547 -0.1140 -0.0976
14839W        W19139   9.646   0.068   1.415 -0.0477  0.1471 -0.0736
14840W        W19140  22.052   3.062   1.946 -0.1098 -0.1329 -0.1675
14841W        W19141   6.563   2.162   1.838  0.1205 -0.0377 -0.0254
14842W        W19142   0.379   2.386  16.110  0.1372  0.0097  0.1976
14843W        W19143   4.016   5.959  10.088 -0.0421  0.2147 -0.3172
14844W        W19144  17.079   1.705  23.679  0.0343  0.1368 -0.2835
14845W        W19145  16.845   2.647   7.153  0.0796 -0.0487  0.1356
14846W        W19146  20.783   2.454   4.271  0.0975  0.0792 -0.0207
14847W        W19147   9.444   2.884  24.491 -0.0471  0.2107  0.1528
14848W        W19148  16.743   2.528   4.289 -0.0164 -0.1764 -0.2649
14849W        W19149  23.117   7.009   4.929 -0.1155 -0.0013  0.0478
14850W        W19150   0.525   2.485  23.284 -0.0003  0.1541  0.1670
14851W        W19151  20.848   1.047   9.751  0.1899 -0.1178 -0.0697
14852W        W19152  17.700   1.152  33.039 -0.1410  0.1076  0.3208
14853W        W19153  10.817   3.823  20.098 -0.2660 -0.0153  0.0646
14854W        W19154  10.577   2.841  24.511 -0.1369  0.0798 -0.0750
14855W        W19155  11.290   7.543  21.039 -0.1988  0.0058  0.0364
14856W        W19156  24.828   6.875  24.390  0.0239  0.0125 -0.0829
14857W        W19157   6.255   0.820  15.133  0.0957  0.0247  0.0710
14858W        W19158   0.955   4.259  30.168 -0.0157  0.0054 -0.1214
14859W        W19159   7.438   1.359  26.936 -0.0229 -0.1855  0.0744
14860W        W19160   4.845   1.014   8.635 -0.1599 -0.1197  0.0326
14861W        W19161   6.690   4.681   4.630 -0.0482  0.0370 -0.0406
14862W        W19162  18.886   7.094  18.010  0.0811  0.3229 -0.3940
14863W        W19163  13.412   1.489  30.530  0.0637 -0.0504 -0.0110
14864W        W19164   1.398   2.035  24.993 -0.0489 -0.0369 -0.2194
14865W        W19165  24.238   0.373   6.990  0.2627  0.0032 -0.0379
14866W        W19166  17.378   0.161   3.279 -0.3216 -0.1036 -0.0706
14867W        W19167  13.097   1.633  30.111 -0.2003 -0.2301  0.1515
14868W        W19168   6.007   4.076  14.834  0.2991  0.1576 -0.1366
14869W        W19169   7.942   3.723  30.194  0.1135  0.2980  0.1016
14870W        W19170  24.737   3.267   2.053 -0.0168 -0.1445  0.1321
14871W        W19171  23.683   4.055  32.995 -0.2964 -0.0796 -0.0953
14872W        W19172   6.829   3.491  26.780 -0.3557 -0.1190 -0.1205
14873W        W19173   9.476   7.584   5.891  0.0612 -0.1452  0.0608
14874W        W19174  13.270   5.345  18.093 -0.2827  0.1114  0.0205
14875W        W19175  17.777   0.727   9.600 -0.1285 -0.0343 -0.0513
14876W        W19176   8.809   0.425  29.260 -0.0035  0.5169  0.0882
14877W        W19177   0.689   4.100  15.786 -0.1074 -0.2188  0.1021
14878W        W19178   4.027   4.478   1.263 -0.0507 -0.2786  0.0786
14879W        W19179  17.260   7.479  29.922  0.1602 -0.2697  0.0518
14880W        W19180  17.262   5.121  20.448 -0.1483  0.0853 -0.0088
14881W        W19181   1.684   4.259  10.056  0.1981 -0.1805 -0.1494
14882W        W19182   5.139   4.015  25.762 -0.1038  0.0499 -0.0414
14883W        W19183  21.246   1.774  28.941  0.1010 -0.1367  0.0342
14884W        W19184  18.574   6.795   5.870  0.0573  0.0850  0.1489
14885W        W19185  10.076   1.113   4.428 -0.0151 -0.1785  0.4351
14886W        W19186  24.389   6.680  10.336  0.1276 -0.0703  0.3206
14887W        W19187  24.585   1.396  27.322  0.2549 -0.1546 -0.1308
14888W        W19188  24.650   5.468  32.912  0.0207 -0.2381  0.2911
14889W        W19189  15.313   1.705   3.962  0.2342  0.2894  0.0272
14890W        W19190  23.052   7.634  23.529  0.2807  0.0044  0.0528
14891W        W19191  22.773   0.018  25.984  0.1157  0.0508  0.0220
14892W        W19192  19.517   3.068   4.692  0.0202  0.1624  0.0126
14893W        W19193   1.922   6.880  33.035 -0.0729 -0.1988  0.1026
14894W        W19194  23.184   0.726  20.087  0.1339 -0.1336  0.0428
14895W        W19195  10.507   7.740  30.581  0.1335  0.0373 -0.0463
14896W        W19196   0.072   4.993   7.963 -0.2936  0.0289  0.1428
14897W        W19197   8.298   1.978  22.940 -0.3474  0.2389  0.0418
14898W        W19198  17.293   4.162   4.844  0.1384  0.0568  0.1555
14899W        W19199  20.313   1.201   4.266  0.1325 -0.0711  0.1176
14900W        W19200  22.501   4.241  25.506 -0.0894  0.0074  0.2741
14901W        W19201  16.131   4.448  30.547 -0.2001 -0.2011  0.3561
14902W        W19202   3.345   2.903  25.039  0.1468 -0.2573 -0.1836
14903W        W19203   0.813   7.130   4.461  0.1963  0.0353 -0.0643
14904W        W19204   1.482   0.362  31.108 -0.2952 -0.0010  0.2887
14905W        W19205  23.598   5.883   8.492  0.0084  0.3064  0.1807
14906W        W19206   0.689   0.848   3.485 -0.1199  0.2036  0.1105
14907W        W19207  19.986   5.110   3.475 -0.2916 -0.1166 -0.0917
14908W        W19208  21.853   0.724  25.131  0.1006 -0.2584  0.0688
14909W        W19209   6.205   3.623  32.393  0.1022  0.0705  0.0148
14910W        W19210   6.841   7.108   5.065  0.4012  0.0373 -0.0219
14911W        W19211  21.212   6.185  28.411  0.1186  0.4074  0.0743
14912W        W19212  19.577   1.081  22.212  0.1351  0.0823  0.2463
14913W        W19213  16.857   1.157   1.803 -0.1282  0.0563  0.0243
14914W        W19214  23.662   3.636   3.764 -0.0315 -0.1257  0.0673
14915W        W19215   8.669   3.815  12.817  0.2257 -0.0359  0.1797
14916W        W19216   1.627   2.072  31.283  0.3606  0.0131 -0.0526
14917W        W19217  15.504   6.111  32.581 -0.1740 -0.2172 -0.2429
14918W        W19218  21.488   4.216   2.229 -0.0951 -0.0891 -0.0503
14919W        W19219  23.324   7.531  22.710 -0.1144  0.2978 -0.0186
14920W        W19220   5.808   2.176  14.761  0.1608  0.0196 -0.0571
14921W        W19221   7.111   6.688   1.438 -0.2590 -0.2648 -0.1746
14922W        W19222  20.480   0.425  19.590 -0.1384  0.0637 -0.1207
14923W        W19223  22.600   6.926   8.029  0.1481 -0.0006 -0.0999
14924W        W19224   7.339   6.644  24.298 -0.2987 -0.3363  0.3578
14925W        W19225  15.326   4.910  31.238  0.2756  0.0348  0.2782
14926W        W19226  22.366   5.370   5.103 -0.2020 -0.1107  0.0485
14927W        W19227  11.554   1.283  26.707 -0.1719  0.1015  0.0204
14928W        W19228   7.259   7.414  12.869 -0.1470 -0.2420 -0.0540
14929W        W19229  18.326   7.769  16.846 -0.1091 -0.1503 -0.2939
14930W        W19230  18.668   7.356   1.258  0.2580 -0.0655 -0.1644
14931W        W19231  23.332   0.832   3.201 -0.0616 -0.1306 -0.2651
14932W        W19232  22.877   4.643   9.436 -0.2818 -0.2290  0.1618
14933W        W19233  18.027   5.105  15.818 -0.3458  0.3234 -0.0182
14934W        W19234   1.843   4.746  16.889 -0.0905  0.0087 -0.1287
14935W        W19235   5.585   2.956   0.484 -0.2198 -0.1663 -0.2636
14936W        W19236   3.262   0.554  26.472 -0.2110  0.3130  0.2262
14937W        W19237  23.456   7.388   4.312 -0.0625  0.1018  0.4174
14938W        W19238   9.460   5.385   2.018 -0.1080 -0.1789 -0.0566
14939W        W19239  21.288   4.867   0.422 -0.0698  0.0850 -0.1325
14940W        W19240  17.200   3.967   9.793 -0.0389 -0.0893 -0.2364
14941W        W19241   3.609   7.287  15.070 -0.0369  0.0519 -0.0229
14942W        W19242   5.767   0.557   5.764  0.1554  0.2615 -0.2411
14943W        W19243  24.685   7.231   3.612  0.0806 -0.0574 -0.1107
14944W        W19244  13.432   2.183   5.008  0.1477 -0.0391 -0.1344
14945W        W19245  21.293   7.221  21.160  0.1008  0.0626  0.0791
14946W        W19246   4.729   6.943  12.011  0.2343 -0.2400 -0.1251
14947W        W19247   3.383   7.789   7.072 -0.0967  0.1587  0.1047
14948W        W19248   4.655   5.073  23.734 -0.3421  0.0092  0.2386
14949W        W19249  10.270   2.967  22.652 -0.0269  0.1152  0.2939
14950W        W19250   3.158   2.144  26.330  0.0277 -0.3287 -0.2914
14951W        W19251  11.953   3.355  25.024  0.0891  0.2245  0.1435
14952W        W19252  22.000   5.901  25.245 -0.0365 -0.2574 -0.1901
14953W        W19253  15.864   7.718  24.796  0.0433 -0.0484 -0.0494
14954W        W19254  14.196   2.203   5.469  0.0383 -0.0360 -0.1194
14955W        W19255   8.653   2.799  11.214  0.0555  0.0200  0.1579
14956W        W19256  21.288   4.840  18.903 -0.1375  0.0421 -0.2476
14957W        W19257  12.470   4.340   0.444  0.3257 -0.0196 -0.1815
14958W        W19258  12.370   6.744   6.751  0.0491  0.0852  0.2002
14959W        W19259   0.093   7.395  12.282 -0.1922 -0.2322 -0.1097
14960W        W19260  13.268   1.808  27.626  0.0703 -0.2810 -0.0743
14961W        W19261  18.207   0.926  24.645 -0.2127  0.2202 -0.0609
14962W        W19262   1.591   0.922  23.247 -0.0781  0.0641 -0.0236
14963W        W19263   7.701   7.317  23.575 -0.1893  0.0426 -0.0509
14964W        W19264  17.068   7.708   4.997 -0.2661 -0.1364  0.1436
14965W        W19265  24.738   6.909   7.899 -0.0414  0.1809  0.1702
14966W        W19266  12.969   0.477  28.111  0.1125  0.2373 -0.0769
14967W        W19267  23.157   0.029  20.853  0.0999 -0.0171  0.3699
14968W        W19268  13.290   6.660  26.236  0.1219  0.2033 -0.1841
14969W        W19269  17.040   4.435  31.006  0.0591  0.0387 -0.1947
14970W        W19270  20.731   7.243  25.994  0.4224  0.0443 -0.2497
14971W        W19271  20.369   6.814  31.861  0.0446 -0.0251 -0.1076
14972W        W19272   5.671   0.011  17.731 -0.0227  0.0938  0.2723
14973W        W19273   1.040   0.212   2.990 -0.2804  0.2212 -0.2902
14974W        W19274  12.252   6.466  22.630 -0.2832 -0.1762  0.1798
14975W        W19275  23.192   0.070  29.990  0.1974  0.1727  0.1076
14976W        W19276  12.153   3.209  19.551 -0.0969 -0.0148 -0.0042
14977W        W19277  19.758   5.411   8.744 -0.0205  0.0257 -0.0725
14978W        W19278  16.763   1.210  26.925 -0.0647  0.1474  0.0714
14979W        W19279   0.405   3.576   4.006 -0.1581  0.0842 -0.0979
14980W        W19280  24.242   4.402  29.316  0.0069  0.1042 -0.2142
14981W        W19281   4.899   0.093   3.546 -0.1385  0.1384 -0.1882
14982W        W19282   9.886   3.254  11.702 -0.0112  0.2005  0.0119
14983W        W19283   6.634   1.829  12.906 -0.2281  0.1797  0.0329
14984W        W19284   2.308   0.438  28.116  0.0133  0.1948 -0.0706
14985W        W19285   2.012   4.440  24.149 -0.1420 -0.1650  0.0634
14986W        W19286   3.568   7.706  10.249 -0.2637  0.1081  0.0542
14987W        W19287   0.964   6.783  13.230  0.2625 -0.2532  0.2105
14988W        W19288  23.797   0.535   7.197  0.1641  0.0081  0.0807
14989W        W19289   8.150   1.742   8.347  0.0366 -0.2146  0.1967
14990W        W19290  20.985   0.814  21.035 -0.0677  0.0732  0.2654
14991W        W19291   7.592   6.394   5.821 -0.1993  0.0838  0.2485
14992W        W19292   6.252   1.264  31.638  0.2730 -0.0906  0.0556
14993W        W19293   7.127   4.511  12.306 -0.1390 -0.1632  0.2232
14994W        W19294   1.005   4.390   4.158 -0.0588  0.0466  0.0569
14995W        W19295  14.901   7.019   9.823 -0.0640 -0.1199 -0.0076
14996W        W19296  14.908   4.738   7.390 -0.1350  0.1420 -0.1120
14997W        W19297  13.570   3.255  26.866 -0.0521  0.1671 -0.2172
14998W        W19298   8.667   2.297  23.019 -0.1487 -0.2230  0.2433
14999W        W19299  18.415   4.171   7.318  0.0028  0.2929 -0.2885
15000W        W19300   1.331   5.137   7.958  0.0767  0.0175 -0.0428
15001W        W19301  24.316   3.183  20.853 -0.1651 -0.1506 -0.0579
15002W        W19302   0.885   0.756   0.507  0.0922  0.0799 -0.0480
15003W        W19303  20.558   1.398  22.521 -0.1219  0.3096  0.0860
15004W        W19304   5.166   7.543  26.663  0.0726 -0.1727 -0.0627
15005W        W19305  24.465   6.574  13.676  0.3241  0.1824 -0.2402
15006W        W19306   9.031   3.296  28.099 -0.3798  0.3626 -0.1562
15007W        W19307   0.873   7.769   2.178 -0.1695 -0.1660  0.1989
15008W        W19308  15.118   5.649  10.009  0.1309  0.2408 -0.0179
15009W        W19309  11.376   7.186  12.849 -0.0121  0.2874 -0.0399
15010W        W19310   6.730   6.655  25.759  0.0546 -0.0606  0.0446
15011W        W19311   5.163   4.272  28.821  0.1654  0.2184  0.2545
15012W        W19312  13.270   2.502  17.120 -0.0762 -0.1793  0.0664
15013W        W19313  20.253   3.899   9.986  0.0413  0.1706 -0.3804
15014W        W19314   7.911   7.696  32.896 -0.2054 -0.3512  0.2302
15015W        W19315  15.794   6.856  29.869  0.0071  0.0510 -0.0707
15016W        W19316   1.463   7.789  28.839 -0.1168 -0.3126  0.0949
15017W        W19317  16.680   5.402   9.857 -0.1901 -0.1441  0.0317
15018W        W19318   6.545   6.369  24.143  0.1827  0.1625 -0.5978
15019W        W19319  10.426   4.097  26.171 -0.1082  0.0539 -0.2982
15020W        W19320   5.044   1.557   9.802 -0.0898  0.2550  0.0189
15021W        W19321  24.836   6.313  13.892 -0.0082 -0.4898 -0.1888
15022W        W19322  16.416   5.321   5.044 -0.0055  0.1927 -0.4172
15023W        W19323   4.059   1.473   2.541  0.3075 -0.0730 -0.2127
15024W        W19324   9.490   1.095  12.680 -0.3101 -0.1009  0.0206
15025W        W19325  11.838   6.374   7.511 -0.1131  0.0519  0.0848
15026W        W19326   4.839   2.844   8.159 -0.0465  0.1750 -0.2674
15027W        W19327   6.811   0.888  10.168  0.3732 -0.0134 -0.2099
15028W        W19328  17.359   3.967  30.519  0.1951  0.1864 -0.0867
15029W        W19329   8.777   7.024  31.082 -0.3455 -0.0837 -0.1611
15030W        W19330  23.273   5.110  24.141  0.1910 -0.2884  0.0654
15031W        W19331   0.339   7.742  15.675 -0.0826 -0.1378 -0.0269
15032W        W19332  23.816   4.609  31.177 -0.0324 -0.1134  0.0740
15033W        W19333  12.631   4.042  23.913 -0.2500 -0.0623  0.0030
15034W        W19334   6.512   7.161  25.871 -0.5313  0.0495 -0.0744
15035W        W19335   2.387   2.122  26.894  0.1341 -0.1066  0.1878
15036W        W19336   9.136   3.979  25.643  0.0003 -0.2065  0.1068
15037W        W19337  13.147   1.068   4.606 -0.0632 -0.0123  0.0151
15038W        W19338  19.273   7.011  29.990  0.3022  0.0320  0.0446
15039W        W19339  19.510   2.345  17.289 -0.1604  0.1959 -0.1090
15040W        W19340  17.366   3.163  20.762  0.1304  0.2871  0.5442
15041W        W19341   7.868   6.147  24.124  0.2494 -0.0619  0.1089
15042W        W19342   1.502   6.379   2.287  0.0560 -0.1740  0.2669
15043W        W19343   9.997   1.571  11.394  0.0676 -0.0705  0.3717
15044W        W19344  18.729   1.062  19.006  0.1261  0.1684 -0.0169
15045W        W19345  10.741   3.087  25.737 -0.1268  0.2716 -0.0027
15046W        W19346  22.617   6.841  20.853 -0.1958 -0.0639 -0.0711
15047W        W19347  21.089   0.204  25.438 -0.0370  0.2694  0.0344
15048W        W19348   1.830   2.062  24.648  0.1925  0.1593 -0.2163
15049W        W19349   4.058   4.794  14.813 -0.1101  0.0448 -0.1448
15050W        W19350  20.767   0.450   7.411 -0.1910 -0.0965  0.0660
15051W        W19351   3.956   5.098  22.701  0.2828 -0.2643  0.2407
15052W        W19352   6.309   3.212  25.824  0.0229  0.1712 -0.0571
15053W        W19353   0.991   2.467  24.838 -0.0176 -0.0476 -0.0138
15054W        W19354  10.170   4.124  23.394 -0.2041 -0.0302 -0.0659
15055W        W19355   8.692   2.422   4.193 -0.1066  0.1551  0.0966
15056W        W19356  14.720   2.125   3.450  0.2706  0.0258  0.0548
15057W        W19357  19.921   6.446  30.390 -0.3306  0.0300 -0.0729
15058W        W19358   0.764   0.323  15.724 -0.0100  0.0213  0.1746
15059W        W19359   6.573   1.930  12.378  0.0339 -0.0241 -0.1294
15060W        W19360  23.158   3.595   5.208  0.4145  0.3501 -0.4666
15061W        W19361  16.863   2.887  19.369  0.0155  0.2259  0.1159
15062W        W19362  21.568   4.532  31.899 -0.0437 -0.0258  0.3362
15063W        W19363   4.978   3.380   4.338 -0.0713  0.2207  0.0559
15064W        W19364   0.685   5.527  32.787  0.0448  0.1848 -0.1191
15065W        W19365   2.681   5.509  14.051 -0.2424  0.0491  0.0677
15066W        W19366  19.832   7.180  23.646  0.0720  0.3386  0.1934
15067W        W19367  14.371   2.731   5.837  0.2712  0.0114  0.3512
15068W        W19368   7.187   0.556  26.958 -0.0922  0.0168 -0.0020
15069W        W19369  17.905   6.159  26.697  0.0854  0.0179  0.0426
15070W        W19370   4.116   1.857  14.334  0.1153  0.1963  0.1495
15071W        W19371   2.536   6.711   5.795 -0.2088 -0.1176 -0.0876
15072W        W19372   8.474   4.036   4.885 -0.5675 -0.0524  0.0688
15073W        W19373  19.600   1.873  28.627  0.2664  0.0854 -0.3962
15074W        W19374   6.802   7.008  14.190  0.2114  0.0535 -0.1726
15075W        W19375  17.515   5.839  26.902  0.1348 -0.1477 -0.1748
15076W        W19376   7.635   0.609   4.955 -0.0620 -0.1283 -0.1449
15077W        W19377  17.375   5.853   9.618 -0.1887 -0.0960  0.0372
15078W        W19378  12.604   0.253   8.110 -0.2031  0.1924 -0.1085
15079W        W19379  14.575   2.098   8.462  0.0495 -0.1695 -0.2246
15080W        W19380   1.744   0.545  23.684 -0.1124 -0.0351  0.1348
15081W        W19381   0.741   1.485  14.509 -0.1644  0.0078  0.1911
15082W        W19382  17.861   3.212  26.741  0.0385 -0.2780  0.0763
15083W        W19383   5.140   4.469  28.281 -0.1787 -0.0070  0.0087
15084W        W19384   4.470   5.705  13.268  0.1291 -0.1459 -0.1165
15085W        W19385   1.614   0.483  22.885 -0.4094  0.0392  0.1259
15086W        W19386   8.085   6.450  32.168  0.2976 -0.0812  0.3874
15087W        W19387  22.886   5.336  29.849 -0.3258  0.0738  0.1238
15088W        W19388  15.321   4.584  18.318  0.0164  0.0727 -0.0067
15089W        W19389   8.648   6.474  11.376 -0.2765 -0.2420  0.1674
15090W        W19390  16.938   0.168  15.783  0.0184 -0.1462  0.0429
15091W        W19391   5.895   6.955   2.828  0.3977 -0.2318  0.2033
15092W        W19392  11.251   2.827   3.844  0.0027 -0.4704  0.0315
15093W        W19393  23.233   5.514   5.897 -0.1969  0.2919  0.0075
15094W        W19394   2.372   0.696  25.975 -0.2010  0.0507 -0.1472
15095W        W19395   2.416   5.312  14.433 -0.0931 -0.2368 -0.3362
15096W        W19396  15.230   5.770  17.966  0.1263  0.2444 -0.0487
15097W        W19397  22.864   4.717  24.152 -0.0975  0.0481 -0.1227
15098W        W19398   1.843   6.730   2.967 -0.0639 -0.0685  0.1129
15099W        W19399   9.300   2.809  10.388 -0.1609  0.1270  0.0029
15100W        W19400   9.094   2.003  30.365  0.0512  0.3215  0.2758
15101W        W19401  17.661   4.920  17.309  0.0396 -0.0662 -0.4947
15102W        W19402   5.519   4.360  16.240 -0.0515  0.0852 -0.1012
15103W        W19403   6.143   7.595   5.941  0.0727 -0.0491 -0.0156
15104W        W19404   7.544   4.533  30.106  0.0928  0.0538  0.1689
15105W        W19405   1.438   6.400  30.452  0.4073  0.0542 -0.0598
15106W        W19406  22.734   5.682   5.966 -0.1416 -0.0686  0.0435
15107W        W19407   4.785   1.403  22.399  0.0921  0.2335  0.1832
15108W        W19408   3.895   3.344  26.769  0.1466 -0.0337  0.0303
15109W        W19409   8.676   3.576   4.720 -0.2083 -0.1528  0.2059
15110W        W19410   2.497   4.602   7.889  0.1476 -0.1940 -0.0649
15111W        W19411  12.597   6.151  20.476 -0.2981  0.1636  0.0098
15112W        W19412  21.253   1.127   6.128  0.3077  0.0701 -0.2610
15113W        W19413  13.376   5.967   0.946 -0.0706 -0.2616 -0.1351
15114W        W19414   3.465   5.979  10.116 -0.4028 -0.0573 -0.0096
15115W        W19415  14.490   2.935  28.288  0.0527 -0.0396  0.0205
15116W        W19416  10.140   6.263   3.301  0.0730 -0.3809  0.1191
15117W        W19417  21.083   6.182  22.657  0.2665  0.1109 -0.1987
15118W        W19418  22.918   6.465  23.662  0.2913 -0.4875 -0.2947
15119W        W19419   9.016   4.370  11.161  0.0639 -0.2159 -0.0470
15120W        W19420  18.889   0.220   4.521 -0.1301 -0.1120  0.0979
15121W        W19421  15.249   6.085   6.803 -0.2188 -0.1610  0.2327
15122W        W19422  21.393   3.688   2.873 -0.0356 -0.0169  0.0783
15123W        W19423   4.967   0.839  29.945  0.1284  0.3275  0.1241
15124W        W19424   3.977   2.403  24.455  0.1898 -0.1006  0.0451
15125W        W19425  16.292   1.673  26.190  0.2382 -0.2555  0.0038
15126W        W19426   1.460   7.477  26.491 -0.1873 -0.4092 -0.1402
15127W        W19427   2.488   6.425   6.695  0.2484 -0.2994  0.0305
15128W        W19428   2.658   7.537  13.182  0.2820 -0.4723 -0.0127
15129W        W19429  20.776   5.104  31.195 -0.0964 -0.1413 -0.0295
15130W        W19430  13.458   2.794   9.989  0.0311 -0.5008  0.0815
15131W        W19431   5.678   0.919   5.296 -0.1750  0.2866 -0.1148
15132W        W19432   7.805   3.089   8.556 -0.0603 -0.1407 -0.1399
15133W        W19433  10.689   0.809  20.420  0.0517 -0.1427 -0.2172
15134W        W19434  24.782   2.737   8.017 -0.2000 -0.0606 -0.0377
15135W        W19435  14.702   4.012   6.654 -0.1507  0.1809  0.0781
15136W        W19436   0.750   4.821  27.140 -0.0772 -0.1413  0.1262
15137W        W19437   2.642   5.731   8.519 -0.0767  0.1753  0.0161
15138W        W19438  22.218   4.961  31.543 -0.1046 -0.2606 -0.1471
15139W        W19439  24.718   3.328  14.228  0.1384 -0.0835  0.0408
15140W        W19440   1.066   2.136   9.716 -0.1733 -0.0684  0.0602
15141W        W19441  12.321   4.859  31.704 -0.1186  0.2524  0.4566
15142W        W19442   4.424   5.771  30.489  0.1732 -0.0113  0.2332
15143W        W19443   5.102   5.048  14.590  0.1168  0.1800 -0.2733
15144W        W19444   0.150   5.991  21.481 -0.3158 -0.2142 -0.0043
15145W        W19445  21.063   1.147  28.883  0.1953  0.2075 -0.0558
15146W        W19446  23.998   3.929  11.737  0.4367  0.1404  0.0382
15147W        W19447  19.866   1.629  28.259 -0.0698  0.0094 -0.3681
15148W        W19448  14.822   5.857   6.661  0.1097 -0.1394 -0.2417
15149W        W19449  16.977   6.696   9.533 -0.0313 -0.0377  0.0601
15150W        W19450  20.921   2.962  24.138  0.2002  0.0218 -0.2117
15151W        W19451  20.207   3.867  29.100 -0.0303 -0.0689  0.0449
15152W        W19452   5.007   1.645   7.112 -0.1431  0.1344  0.1739
15153W        W19453  15.806   5.261  23.793  0.2183  0.1318 -0.3513
15154W        W19454  18.182   7.353   9.007  0.0896  0.1951  0.2239
15155W        W19455   6.676   6.216  23.050 -0.1932  0.2927 -0.0805
15156W        W19456  12.495   1.401  30.570 -0.0975 -0.1323  0.2951
15157W        W19457   9.939   5.513   2.701 -0.0069  0.0413  0.2288
15158W        W19458  15.709   5.273  28.870  0.1224 -0.1533 -0.1008
15159W        W19459  10.878   2.413  24.260 -0.1385 -0.1166 -0.0230
15160W        W19460  17.721   3.849   7.583 -0.1176 -0.2040  0.0738
15161W        W19461  22.321   3.961  12.048 -0.2042  0.3942  0.1132
15162W        W19462  10.124   4.378  31.253 -0.0239 -0.4803 -0.1939
15163W        W19463  11.528   4.939  32.022 -0.1192  0.0985  0.2545
15164W        W19464  11.947   4.762   3.596 -0.0714 -0.2550 -0.1850
15165W        W19465  10.424   2.641   3.972 -0.0348 -0.0557 -0.2013
15166W        W19466  16.707   3.199  16.367  0.2709 -0.0321  0.0160
15167W        W19467   9.477   4.161   6.664  0.1468 -0.1308  0.2054
15168W        W19468  23.017   6.214   1.672 -0.0261  0.1682 -0.0436
15169W        W19469   9.641   6.853  21.664 -0.0228 -0.1656 -0.1188
15170W        W19470  13.283   4.344  19.109  0.0780  0.0974  0.0159
15171W        W19471  21.295   0.359   0.858 -0.2113  0.1647  0.1503
15172W        W19472  23.639   7.131  22.637  0.1059  0.0329 -0.0392
15173W        W19473   6.398   1.177   4.097 -0.1429  0.0915 -0.1162
15174W        W19474  19.133   1.633   9.214 -0.1800 -0.0999  0.2586
15175W        W19475   3.113   4.536  28.875 -0.0545 -0.0453 -0.0297
15176W        W19476  20.330   1.594   8.641  0.1548  0.1187  0.1609
15177W        W19477  14.889   2.803   0.849 -0.1171 -0.0350  0.2815
15178W        W19478  13.482   1.194  28.304 -0.1648 -0.2691  0.3415
15179W        W19479  12.666   0.253  18.403  0.1448  0.0432  0.1064
15180W        W19480  24.277   6.343  28.155  0.0779 -0.1726  0.1707
15181W        W19481   4.641   3.194   3.527  0.1208  0.1164 -0.0458
15182W        W19482   2.058   1.405   3.780 -0.0936 -0.0961  0.1438
15183W        W19483  14.635   3.336  29.751 -0.2182 -0.0545 -0.1964
15184W        W19484   0.618   7.288   5.298 -0.0454 -0.2542  0.1943
15185W        W19485  17.630   2.391   6.761 -0.1670  0.1727  0.0645
15186W        W19486   7.220   4.688  13.544  0.0513 -0.1084 -0.2238
15187W        W19487  12.455   7.552   9.945 -0.0283 -0.0069 -0.2710
15188W        W19488  17.882   4.655  21.103  0.3608  0.2803  0.0324
15189W        W19489  12.259   6.703  10.188  0.3077  0.2441  0.1600
15190W        W19490  24.061   3.538  31.125 -0.1815  0.1738  0.0660
15191W        W19491   7.649   1.898  24.065 -0.0213 -0.0519 -0.0379
15192W        W19492   3.336   3.795  30.122  0.2640 -0.1151  0.1548
15193W        W19493  17.484   6.835   5.241 -0.0549 -0.2130 -0.1373
15194W        W19494  19.316   6.897  11.519  0.0911  0.2483 -0.0538
15195W        W19495  11.325   4.893  18.763  0.0561  0.1298  0.1305
15196W        W19496   8.238   0.243  29.355  0.0771 -0.0322  0.0233
15197W        W19497   0.427   3.874   9.651 -0.3527 -0.0144  0.1539
15198W        W19498   1.486   5.000  11.779  0.2508 -0.2371 -0.1246
15199W        W19499  10.049   0.875   8.231  0.4572  0.4231  0.1875
15200W        W19500   5.848   0.118   2.735  0.1450 -0.1340 -0.4182
15201W        W19501  17.988   4.995  19.287 -0.0337  0.2090 -0.2777
15202W        W19502   4.028   4.978  24.820 -0.2441 -0.0156  0.0075
15203W        W19503  21.989   5.668  24.760  0.1959  0.0399  0.2027
15204W        W19504  18.441   0.410  20.703 -0.3546  0.3193  0.2620
15205W        W19505   4.654   1.902  22.544  0.0571  0.0530 -0.0042
15206W        W19506   7.759   1.135   0.235 -0.1794  0.0910 -0.4305
15207W        W19507   1.182   5.264  26.032  0.0399  0.2923 -0.1547
15208W        W19508  16.754   1.768  22.177  0.2051  0.3459 -0.0588
15209W        W19509  17.540   4.112  16.740  0.3664  0.2002 -0.0822
15210W        W19510  21.325   7.161   3.048 -0.2572  0.2379 -0.0231
15211W        W19511  21.213   4.523  11.897 -0.1902  0.1296  0.0017
15212W        W19512  12.070   2.578  24.208 -0.0450 -0.1190  0.0820
15213W        W19513   9.592   0.745  14.156 -0.1346 -0.0955  0.2716
15214W        W19514  10.456   6.660  31.301 -0.0959 -0.0093  0.0365
15215W        W19515   2.681   7.693   7.585  0.0856  0.0113 -0.0388
15216W        W19516  10.857   0.154  21.646 -0.1873  0.0555 -0.0791
15217W        W19517  13.774   1.276  21.921 -0.3220  0.2023  0.0685
15218W        W19518   0.271   6.544  30.899  0.2960 -0.0639  0.0681
15219W        W19519  12.026   6.752  11.380  0.3732 -0.1993 -0.1882
15220W        W19520   1.079   0.144  30.980  0.1438  0.2192 -0.3600
15221W        W19521   3.761   2.787  26.034 -0.0566 -0.0231  0.0312
15222W        W19522  12.999   0.604  18.657  0.1997 -0.0416 -0.2054
15223W        W19523   0.645   3.570  14.453  0.0128  0.1595 -0.1309
15224W        W19524  21.367   3.707   9.379 -0.0332  0.1293  0.0670
15225W        W19525   3.740   6.857  12.655  0.0938  0.0450 -0.1891
15226W        W19526   3.529   4.554  10.353 -0.0459 -0.0799  0.1825
15227W        W19527   8.725   3.950   2.687  0.2317 -0.3996  0.0286
15228W        W19528   3.515   0.424  10.040 -0.1370 -0.2922  0.1274
15229W        W19529   3.335   2.128  12.558 -0.0984 -0.0655  0.1191
15230W        W19530  10.794   7.089   2.444 -0.1266  0.0601  0.0396
15231W        W19531   4.316   0.309   2.259  0.2494  0.1408 -0.0961
15232W        W19532  15.010   7.602  24.159  0.0719 -0.2393 -0.0191
15233W        W19533   2.729   6.270  16.653  0.1109  0.0474 -0.0825
15234W        W19534  15.538   0.071   5.859  0.1485  0.0025  0.1271
15235W        W19535   1.144   4.621   2.333 -0.0906  0.4284 -0.2401
15236W        W19536   4.407   4.929  11.910  0.0273  0.0082  0.1144
15237W        W19537   3.278   0.897  32.242  0.1681 -0.1582  0.1092
15238W        W19538   3.767   6.012  16.757  0.3600  0.0648  0.4085
15239W        W19539  23.443   5.088  27.256 -0.1083 -0.0838 -0.2927
15240W        W19540  20.691   3.826  30.167  0.3371  0.1077  0.4110
15241W        W19541  15.844   1.011  16.629  0.0529  0.1255  0.2173
15242W        W19542  14.562   1.146  19.603  0.1083 -0.1853 -0.2183
15243W        W19543  16.321   7.250  22.679 -0.2001 -0.2745 -0.3027
15244W        W19544   5.256   1.020   0.196  0.2661  0.0649  0.1671
15245W        W19545  18.551   3.925   1.363 -0.1740  0.0631 -0.2683
15246W        W19546  16.829   2.903  31.897  0.0652 -0.2097  0.0393
15247W        W19547  13.550   5.480  22.006  0.1568 -0.0475 -0.0051
15248W        W19548  15.096   1.289  18.199 -0.0563  0.2578  0.0641
15249W        W19549  20.736   4.504  26.318  0.0728 -0.0417 -0.0968
15250W        W19550   4.337   1.575  24.137  0.2368  0.1392  0.0208
15251W        W19551   8.805   5.112  21.046  0.1489  0.0836  0.1638
15252W        W19552  11.129   2.920  28.980  0.2170 -0.4517 -0.1653
15253W        W19553  13.281   2.076   5.819 -0.3099  0.3575 -0.3840
15254W        W19554  18.963   4.804  24.121 -0.3874  0.0506  0.0917
15255W        W19555  22.878   5.921  30.695  0.2256  0.2050  0.2007
15256W        W19556   5.496   6.027  12.236  0.2835  0.0384 -0.2174
15257W        W19557  14.727   4.323  29.938 -0.0291  0.0498  0.2173
15258W        W19558   3.281   6.848  26.582  0.2074  0.0479 -0.2114
15259W        W19559  12.764   4.153   6.819 -0.0301 -0.2473  0.1231
15260W        W19560  24.259   6.393   2.837 -0.0330  0.0412  0.0234
15261W        W19561   4.330   3.726  14.627 -0.0956  0.0614 -0.1436
15262W        W19562  20.869   7.759   0.157  0.0994  0.0958  0.0106
15263W        W19563  20.635   2.732  29.755  0.1490 -0.0897  0.1611
15264W        W19564   7.735   2.123   2.120 -0.2483 -0.2924  0.1474
15265W        W19565   6.263   3.490   0.100  0.3122 -0.0782  0.2128
15266W        W19566  17.310   5.243   8.964  0.0009  0.1247 -0.0328
15267W        W19567  22.870   4.976  26.823  0.1220  0.0339  0.0429
15268W        W19568  12.560   4.748  32.507  0.2666  0.1186 -0.0580
15269W        W19569   0.386   0.861  24.885 -0.0586 -0.0004  0.1655
15270W        W19570  19.537   4.227  30.544 -0.1904  0.0263  0.0450
15271W        W19571  22.550   5.501  30.668  0.2219  0.0665 -0.0307
15272W        W19572   7.105   4.133  23.882 -0.1141  0.2774  0.2574
15273W        W19573  12.954   0.502  27.429  0.1538 -0.2035  0.3290
15274W        W19574  11.582   7.196  23.668 -0.0908  0.0334 -0.1238
15275W        W19575  19.894   1.706  30.836  0.0478 -0.1681 -0.1269
15276W        W19576  21.000   0.149  20.599 -0.1035 -0.0131  0.0149
15277W        W19577  16.697   3.490  32.430  0.2269  0.3322 -0.1193
15278W        W19578  16.770   1.148   4.014 -0.0461 -0.0731 -0.1093
15279W        W19579  22.794   2.636  31.774  0.4450 -0.0715  0.0231
15280W        W19580  10.494   5.966  31.124  0.0463  0.0247  0.2775
15281W        W19581  22.642   1.032   8.563 -0.1572  0.1977  0.1012
15282W        W19582  16.006   6.447  23.353  0.1037 -0.0561 -0.0388
15283W        W19583  13.470   5.652   9.082  0.0453 -0.0373  0.1278
15284W        W19584   2.488   3.526  15.329  0.0018  0.2798 -0.1192
15285W        W19585  13.655   4.353  18.211 -0.3797 -0.1060  0.1347
15286W        W19586   9.989   5.622  24.206  0.2377 -0.0785  0.0093
15287W        W19587  12.666   6.604   3.044  0.3290  0.2294  0.3627
15288W        W19588   6.542   4.160  32.467 -0.1152  0.0774 -0.0170
15289W        W19589  17.536   1.002  18.854 -0.0529 -0.1716  0.1444
15290W        W19590   8.132   2.713   3.234  0.0066  0.2612 -0.3553
15291W        W19591   2.166   7.669   7.462 -0.2528 -0.1024  0.1423
15292W        W19592   4.263   4.416   8.226 -0.0269 -0.0018 -0.0537
15293W        W19593  15.411   6.280  31.431 -0.2652 -0.1435  0.2087
15294W        W19594  23.293   7.659   8.412  0.0449  0.1126 -0.0258
15295W        W19595   6.666   6.937   6.890  0.2721  0.0087  0.2690
15296W        W19596  24.552   6.563  20.182  0.0002  0.1165  0.2600
15297W        W19597  20.053   4.054   0.326 -0.0993  0.0795  0.1375
15298W        W19598  22.674   3.114  32.035 -0.3234 -0.0302 -0.0526
15299W        W19599  23.308   3.597  29.296 -0.0433 -0.1930  0.1121
15300W        W19600   9.888   5.648  28.735 -0.2069  0.0954 -0.0614
15301W        W19601   3.431   6.449   9.625  0.0106  0.1475 -0.0687
15302W        W19602  22.012   6.463  27.817 -0.2347 -0.3067 -0.4745
15303W        W19603  20.256   2.401  10.014 -0.0661  0.0026  0.1421
15304W        W19604  14.764   3.832  17.034  0.0111 -0.1513  0.0253
15305W        W19605  21.791   5.241  25.982 -0.0048  0.0821  0.0629
15306W        W19606   3.863   3.268   6.688  0.4290 -0.0622  0.1542
15307W        W19607  14.978   1.336  20.824 -0.0878 -0.2566 -0.1055
15308W        W19608  14.964   1.754  30.186 -0.0808  0.4509 -0.0808
15309W        W19609  16.064   0.988  27.984  0.2115 -0.1687  0.2111
15310W        W19610   9.502   6.732   9.479 -0.1618  0.1673 -0.1983
15311W        W19611  13.444   4.287   1.495  0.1526 -0.1542  0.0356
15312W        W19612   8.296   3.238   1.453  0.0331 -0.2458  0.2117
15313W        W19613   2.797   3.290   7.790 -0.0815 -0.0479  0.3962
15314W        W19614  18.093   7.127   0.248 -0.0656  0.4020  0.0800
15315W        W19615  12.766   1.665  20.832 -0.1624  0.0385  0.3463
15316W        W19616  18.620   4.417  26.364  0.1997  0.0100 -0.1399
15317W        W19617   6.336   6.384  22.700 -0.3557  0.1258 -0.0657
15318W        W19618  24.205   3.939  12.790  0.1955 -0.1107 -0.2395
15319W        W19619  23.153   6.625   7.560  0.1666 -0.0627  0.0484
15320W        W19620   0.944   6.283  14.492 -0.1399 -0.0647  0.0498
15321W        W19621  18.647   4.779  31.207  0.0111 -0.0786 -0.2082
15322W        W19622   2.067   5.351  27.033 -0.1467  0.0976 -0.3110
15323W        W19623   0.637   0.723  13.151 -0.0953 -0.2626 -0.1152
15324W        W19624  10.589   3.144  27.485  0.2702  0.0534 -0.3273
15325W        W19625   3.681   6.504  30.789  0.2609  0.2146  0.2819
15326W        W19626  24.141   5.801  12.211 -0.1039  0.0398  0.1248
15327W        W19627  15.846   4.401  21.368 -0.0382 -0.0631  0.1702
15328W        W19628   0.157   1.323   2.827  0.0198 -0.1575 -0.0018
15329W        W19629   5.483   6.597  23.827  0.0303  0.0384  0.1027
15330W        W19630   9.825   2.029  30.836 -0.0742  0.0876 -0.0679
15331W        W19631  19.095   2.734   7.794 -0.2516 -0.2968 -0.2289
15332W        W19632  23.098   1.879   1.491 -0.1824 -0.3579 -0.1091
15333W        W19633  24.523   5.803  24.851  0.1785  0.0333  0.0264
15334W        W19634  15.298   3.093   7.066  0.0776  0.1970 -0.0602
15335W        W19635  14.386   5.741  10.092 -0.1306  0.0824  0.1248
15336W        W19636  10.916   4.045  21.571  0.0426 -0.2004  0.1843
15337W        W19637  18.704   6.097  31.088  0.0782  0.3479  0.2133
15338W        W19638   5.494   0.294  12.411  0.2129 -0.1120 -0.2180
15339W        W19639  19.746   5.134  17.080 -0.0389  0.1468  0.1348
15340W        W19640  11.332   1.422  19.607  0.3074  0.0437 -0.4011
15341W        W19641  12.440   7.049  32.207 -0.1841  0.1204  0.2578
15342W        W19642  13.279   4.810  18.899 -0.0217  0.0020  0.1216
15343W        W19643   8.887   4.762   8.709 -0.2172 -0.1093 -0.1309
15344W        W19644   2.008   4.403   3.961 -0.0200  0.0904 -0.0826
15345W        W19645  10.350   6.594  26.460 -0.1671  0.1436  0.0262
15346W        W19646   4.187   0.290  10.944 -0.0419  0.2834  0.1854
15347W        W19647   8.854   7.114   0.513 -0.0802  0.0741 -0.1317
15348W        W19648   4.658   2.039   8.265 -0.1532  0.0673  0.2337
15349W        W19649  19.384   5.752  31.481 -0.0454 -0.2653 -0.2349
15350W        W19650  23.727   2.883  29.505  0.0076 -0.2195 -0.0014
15351W        W19651   8.230   3.080  22.863  0.0902  0.0762 -0.1988
15352W        W19652  20.577   3.793   8.867  0.2102 -0.0536  0.0098
15353W        W19653   3.358   7.799  25.069  0.1745 -0.1666 -0.0887
15354W        W19654  13.972   6.330  22.662  0.0290  0.2280  0.1095
15355W        W19655  14.807   3.095  19.010  0.1762  0.1170 -0.0602
15356W        W19656  20.786   4.758  31.546  0.0655 -0.2668 -0.0196
15357W        W19657   6.031   4.876  24.673  0.4174  0.0147  0.0654
15358W        W19658  19.014   2.243   5.287  0.0360  0.1064 -0.0245
15359W        W19659  10.616   2.473   4.772 -0.1468  0.0406 -0.0632
15360W        W19660  14.659   5.779  26.477 -0.1744 -0.1499 -0.3148
15361W        W19661  24.143   0.270  29.476  0.3157  0.1443 -0.1133
15362W        W19662   9.705   5.078  20.547 -0.1925  0.1209 -0.1580
15363W        W19663  16.425   4.789   2.904  0.0171  0.3305  0.2631
15364W        W19664   5.779   0.284   4.900 -0.2608  0.0237 -0.1812
15365W        W19665  14.635   2.250   5.733 -0.1790 -0.0991  0.1031
15366W        W19666  16.471   3.256  30.033 -0.2168 -0.1382 -0.1807
15367W        W19667  24.481   1.795  29.204  0.1417  0.1321 -0.0366
15368W        W19668  10.665   5.204  30.592 -0.2047  0.0371 -0.2877
15369W        W19669   3.374   1.056   9.068 -0.1453 -0.0532  0.0857
15370W        W19670   9.438   3.170  22.180 -0.0563 -0.1984  0.1307
15371W        W19671  10.305   5.895  28.963  0.3412  0.0098  0.0859
15372W        W19672  14.378   5.446  17.106  0.0860 -0.1507 -0.0959
15373W        W19673  16.909   7.219   9.592 -0.2457  0.0390 -0.2204
15374W        W19674  17.961   5.900  27.741  0.1898  0.4485 -0.2092
15375W        W19675  13.605   3.914   3.720  0.1113 -0.1265 -0.1059
15376W        W19676   2.520   1.966  11.427 -0.1341  0.1376  0.1628
15377W        W19677   9.652   2.926  29.326 -0.1288  0.1556  0.1389
15378W        W19678   5.553   0.190  16.743  0.1620  0.4689 -0.0925
15379W        W19679   9.472   0.323   3.259  0.0951 -0.1050  0.3389
15380W        W19680  23.048   2.384  26.039 -0.0667  0.2530  0.1736
15381W        W19681   2.855   2.217  27.112 -0.3979  0.0727 -0.1478
15382W        W19682  23.996   5.885   8.892  0.0299  0.1316  0.1894
15383W        W19683   2.325   3.465  25.405  0.0393  0.2968 -0.0219
15384W        W19684  12.134   2.258   6.870  0.2885 -0.2715  0.1047
15385W        W19685  24.690   7.721  25.420 -0.1099 -0.0635  0.0615
15386W        W19686  12.128   1.573  20.193  0.1644 -0.1075  0.2116
15387W        W19687  17.929   4.769  32.586  0.0926  0.1096  0.3413
15388W        W19688  21.771   6.623  26.032 -0.0119  0.2571 -0.0819
15389W        W19689  20.032   2.330   3.132 -0.0428  0.1692 -0.0889
15390W        W19690  22.403   6.911  31.797 -0.0637  0.0099  0.0126
15391W        W19691  18.331   5.463   6.980 -0.0210  0.0430  0.3367
15392W        W19692  22.523   5.613   1.708 -0.0429  0.2053 -0.3282
15393W        W19693  20.483   7.307  22.275  0.1669 -0.1072 -0.2426
15394W        W19694   4.276   0.249  17.145 -0.1086  0.1530  0.1105
15395W        W19695   9.312   1.620   3.366 -0.2446  0.0441 -0.0741
15396W        W19696   3.526   3.602   5.749 -0.0979  0.2459  0.0545
15397W        W19697   5.700   3.161  14.815  0.1660 -0.2366  0.1664
15398W        W19698  24.794   4.766  26.809  0.1460 -0.2846 -0.2517
15399W        W19699  24.865   4.406   3.130  0.1610 -0.1913 -0.3052
15400W        W19700   1.828   1.694   6.712 -0.1352 -0.0811  0.0056
15401W        W19701  21.806   2.326  26.766  0.0490  0.0956 -0.1268
15402W        W19702  15.022   2.257  25.086 -0.2231  0.0670  0.3114
15403W        W19703  20.873   1.435   8.306  0.3404 -0.2744 -0.1804
15404W        W19704  10.660   1.440   3.213 -0.0698 -0.1258  0.0596
15405W        W19705   7.617   5.832  25.063  0.1149  0.2218  0.0449
15406W        W19706   4.107   5.861  14.887 -0.0067 -0.0619  0.3092
15407W        W19707  20.824   2.680   8.148 -0.0005 -0.1038  0.0991
15408W        W19708   6.737   3.902   5.075 -0.3681  0.1803  0.0019
15409W        W19709  15.738   2.911  32.902 -0.2955 -0.5076  0.1632
15410W        W19710  18.285   5.891   0.017  0.0436 -0.1494 -0.2696
15411W        W19711   5.792   3.398  11.276  0.1446 -0.2962 -0.1177
15412W        W19712  14.209   4.136  24.374 -0.2251  0.1116 -0.0651
15413W        W19713   8.999   2.923  11.573  0.0146 -0.0283 -0.0716
15414W        W19714   1.566   5.554  23.715  0.4872  0.0074 -0.0534
15415W        W19715  21.428   2.732   2.774  0.0492 -0.0874  0.1481
15416W        W19716   9.138   3.171  13.549 -0.1671 -0.1688  0.0569
15417W        W19717  24.499   6.615  26.857  0.0572 -0.0926 -0.2098
15418W        W19718   8.945   3.140  22.075 -0.2121 -0.0636 -0.0700
15419W        W19719  22.891   1.381  31.687 -0.1029 -0.0094 -0.1786
15420W        W19720   2.717   2.030   2.692  0.1069 -0.0296 -0.1318
15421W        W19721  17.843   6.387   1.515  0.1385 -0.0491  0.1938
15422W        W19722  13.903   3.643  10.138 -0.2690  0.1958 -0.2691
15423W        W19723  11.595   3.896  28.311  0.2059 -0.0261 -0.2149
15424W        W19724  12.618   3.529  10.060 -0.0712  0.0381  0.1134
15425W        W19725   6.797   5.535  16.571  0.1423  0.1968 -0.1389
15426W        W19726  21.991   6.106  25.876 -0.2958 -0.1028 -0.0189
15427W        W19727   2.935   5.103  31.249  0.2347  0.4218 -0.1029
15428W        W19728   9.551   2.375  30.040 -0.2398 -0.2885  0.1952
15429W        W19729   4.975   1.402  28.102 -0.0946  0.1584 -0.1949
15430W        W19730   0.873   5.880  11.579  0.1167  0.0121  0.0632
15431W        W19731   9.559   6.555   0.821 -0.2037 -0.1004 -0.1204
15432W        W19732   1.913   0.339  32.403 -0.0474  0.4022  0.1324
15433W        W19733  15.356   3.824   8.459  0.1963 -0.1963 -0.0381
15434W        W19734   7.675   4.591  22.429 -0.1622  0.1434  0.1138
15435W        W19735  16.174   5.911  21.635 -0.2310  0.2693 -0.1991
15436W        W19736  13.033   3.396  25.549 -0.0630  0.2828 -0.1225
15437W        W19737  14.662   6.751   4.718  0.1350  0.0984  0.0461
15438W        W19738  17.545   6.517  20.427  0.1809 -0.2644 -0.2598
15439W        W19739  23.919   3.226  13.571 -0.1082 -0.2629  0.1683
15440W        W19740  14.751   6.672   0.932 -0.1012 -0.0193  0.0329
15441W        W19741   6.918   4.090  11.459 -0.0086 -0.1378 -0.1059
15442W        W19742  10.966   5.255   3.602  0.0537 -0.0489  0.1122
15443W        W19743   5.605   7.399  25.196  0.1980  0.0111 -0.2184
15444W        W19744   8.331   2.143  31.882 -0.0515  0.1275 -0.0567
15445W        W19745   5.271   0.162  15.796  0.1498 -0.3806 -0.1322
15446W        W19746   5.496   3.801  25.319 -0.0585 -0.1627  0.1212
15447W        W19747   3.343   6.277  14.435  0.1551 -0.0707  0.0079
15448W        W19748  22.564   5.925   6.420 -0.3120  0.3863  0.1797
15449W        W19749   4.453   5.637   0.069  0.2696  0.0035  0.0309
15450W        W19750   7.139   0.161  27.218  0.0901  0.0916  0.1955
15451W        W19751  23.577   5.536  27.023  0.3813  0.0213  0.0094
15452W        W19752  14.616   6.172  26.783  0.1603  0.1552  0.0631
15453W        W19753  18.041   0.872   7.857 -0.1123 -0.0011 -0.0058
15454W        W19754  14.861   6.404   4.412 -0.2241  0.1889  0.0392
15455W        W19755  15.152   7.695   1.240  0.0173 -0.2625 -0.0445
15456W        W19756   5.488   5.884  29.376  0.1507 -0.2012  0.2102
15457W        W19757   8.557   2.953   8.627  0.0905 -0.1854  0.1789
15458W        W19758  11.444   7.459  11.005  0.0991  0.0823  0.1130
15459W        W19759  22.007   0.885  25.557 -0.1692  0.3906 -0.2001
15460W        W19760   7.910   7.103  26.292  0.0499 -0.0387 -0.3452
15461W        W19761  12.675   4.423  16.666 -0.0733  0.0945  0.3981
15462W        W19762  19.700   3.075   8.668  0.0472 -0.1305 -0.1079
15463W        W19763   0.946   1.280   4.884 -0.1864 -0.2390 -0.2451
15464W        W19764  21.135   3.336   9.168 -0.0394 -0.1290 -0.1420
15465W        W19765   2.087   2.488  16.753  0.1873 -0.1012 -0.0658
15466W        W19766   9.618   3.977  26.952 -0.0281 -0.5949  0.0681
15467W        W19767  17.234   3.309  15.636  0.3454 -0.3352 -0.1809
15468W        W19768   5.873   0.178   0.411  0.1322  0.0416 -0.0311
15469W        W19769  16.212   4.965   9.495 -0.1157  0.1039 -0.0087
15470W        W19770   3.478   2.928  28.829  0.1798 -0.2072 -0.0359
15471W        W19771   6.192   4.633  27.341 -0.3859 -0.4549  0.2354
15472W        W19772   9.805   1.153  10.137  0.0308  0.1197  0.0398
15473W        W19773  21.621   4.101  31.569  0.1526  0.0662  0.0023
15474W        W19774   9.769   5.805  26.420 -0.1455 -0.3818 -0.1782
15475W        W19775  13.646   3.821  18.763  0.0574  0.0921 -0.2684
15476W        W19776   6.215   0.176  28.392 -0.4600  0.3250  0.3168
15477W        W19777   0.242   3.135  28.804 -0.1594 -0.0106  0.3537
15478W        W19778  12.425   2.676  28.851 -0.0378  0.1544  0.1824
15479W        W19779  22.434   5.964  19.797 -0.2779 -0.0214  0.2735
15480W        W19780   8.924   3.604  30.331  0.0735  0.0089  0.0916
15481W        W19781   5.520   0.306  16.285  0.0627  0.0428 -0.2205
15482W        W19782  22.798   5.939  23.737 -0.0232 -0.0479 -0.0911
15483W        W19783  12.788   3.521   2.567  0.0596  0.1991  0.0435
15484W        W19784   1.389   5.300   3.853  0.0884  0.2371 -0.0372
15485W        W19785   4.720   2.956  24.523  0.0889 -0.0727  0.1218
15486W        W19786  14.486   5.697   0.519  0.0387  0.0362  0.0287
15487W        W19787  20.279   3.617  23.066 -0.0193  0.0149  0.0427
15488W        W19788  23.708   5.062  32.674  0.1306  0.3277  0.0818
15489W        W19789   9.380   6.547  14.637  0.0579  0.2110 -0.1719
15490W        W19790   3.887   5.071  15.311  0.1419 -0.0776 -0.3197
15491W        W19791  11.982   1.408  21.750 -0.1451  0.1634 -0.0809
15492W        W19792  12.345   4.398  24.172  0.2546 -0.0542 -0.2560
15493W        W19793   6.655   0.249  23.048  0.0347  0.2141 -0.3092
15494W        W19794  20.328   6.697   1.917  0.1138 -0.1751 -0.0021
15495W        W19795  24.817   1.859   4.249  0.0063  0.2729 -0.4282
15496W        W19796  15.318   1.022  21.031  0.0252 -0.1379 -0.2285
15497W        W19797  17.950   3.944   0.608  0.1069 -0.2244  0.0264
15498W        W19798  22.145   2.460  27.075 -0.0845  0.1769  0.2490
15499W        W19799   7.353   1.527  11.015  0.1664 -0.2352 -0.0389
15500W        W19800   9.582   5.535  24.792 -0.0946 -0.1754 -0.2241
15501W        W19801  12.425   3.920   1.809 -0.1105 -0.2774 -0.1432
15502W        W19802  11.835   1.056  18.156  0.1273  0.1691  0.0770
15503W        W19803  21.340   6.003  26.994  0.3857 -0.1103  0.2337
15504W        W19804   3.880   2.335  14.263  0.1069 -0.2984 -0.2039
15505W        W19805  15.101   4.201   2.071  0.0990  0.2858  0.1790
15506W        W19806  12.660   4.113   4.197 -0.0582  0.2633 -0.2688
15507W        W19807  24.160   5.091  25.276  0.2152  0.0072 -0.0738
15508W        W19808  19.067   1.863  22.583 -0.0035 -0.0625  0.2298
15509W        W19809  21.928   5.524  28.500 -0.0861 -0.3654  0.0075
15510W        W19810   7.767   0.174  11.177 -0.2886 -0.1787 -0.2133
15511W        W19811  21.014   4.040   8.815  0.1740  0.0638 -0.0173
15512W        W19812   3.338   6.556  31.931 -0.2895  0.1161 -0.0974
15513W        W19813  11.922   6.170  22.375  0.0038 -0.0575  0.0106
15514W        W19814   5.159   6.904   7.671 -0.1506  0.2871 -0.1670
15515W        W19815  16.558   2.287  26.597 -0.0863  0.2489  0.1768
15516W        W19816  18.852   2.942  21.654 -0.1934  0.0836 -0.4310
15517W        W19817   7.113   4.770   9.851 -0.1670  0.1566 -0.1831
15518W        W19818  16.688   0.752  28.770 -0.0959 -0.2967 -0.1404
15519W        W19819  24.535   6.184  15.519  0.2835  0.1946 -0.0288
15520W        W19820  13.443   4.366  23.834 -0.0228  0.3748 -0.3216
15521W        W19821   8.687   3.719  30.900  0.1542  0.0727 -0.1005
15522W        W19822  10.882   7.644  22.052  0.1904  0.0428 -0.2794
15523W        W19823  10.879   5.925   0.854  0.1800  0.2821 -0.0292
15524W        W19824  19.919   6.761   4.776  0.0234 -0.0474 -0.1299
15525W        W19825  10.718   6.242  21.024 -0.1975 -0.4338 -0.0085
15526W        W19826  18.929   4.630  26.934  0.1195 -0.0032 -0.2426
15527W        W19827  23.095   0.507  10.738  0.2303 -0.0565  0.1826
15528W        W19828  19.916   0.857  27.757 -0.1324  0.2118 -0.1599
15529W        W19829  17.090   2.240   1.309 -0.2554  0.0791 -0.0951
15530W        W19830   8.920   1.357   1.851 -0.2713  0.1517  0.0088
15531W        W19831  24.272   2.985  21.316  0.1098  0.0457 -0.0228
15532W        W19832  11.111   1.326   2.935 -0.0771  0.1109  0.0684
15533W        W19833   5.521   4.491  23.483 -0.0300  0.0899  0.1328
15534W        W19834   7.029   2.150  28.010 -0.0996 -0.2481  0.0288
15535W        W19835  12.290   1.699   0.064  0.0629 -0.3157  0.0377
15536W        W19836  24.165   1.858  10.553  0.1016  0.3524  0.0659
15537W        W19837  16.440   4.999   9.041 -0.0517 -0.0788 -0.2293
15538W        W19838  11.666   6.561  29.285 -0.1552 -0.1585 -0.1908
15539W        W19839   1.339   5.864  22.629 -0.3991  0.1665  0.2885
15540W        W19840  22.595   6.589  25.596 -0.2657  0.0314 -0.0247
15541W        W19841   7.719   1.625  12.490 -0.0613 -0.1432 -0.0257
15542W        W19842  14.971   6.463  17.666 -0.0907 -0.0963  0.1122
15543W        W19843  11.488   3.931  22.441  0.0374 -0.0819  0.0712
15544W        W19844  22.771   0.841  32.539 -0.3152 -0.0034  0.1128
15545W        W19845  20.619   3.574  29.092  0.3129  0.0589  0.0227
15546W        W19846   5.256   5.309  16.346  0.2712  0.1802 -0.1731
15547W        W19847  20.663   1.842   7.813  0.0200 -0.0747 -0.0847
15548W        W19848  19.812   0.271  32.460  0.0339 -0.1998 -0.1357
15549W        W19849   1.751   5.472   0.543 -0.3124 -0.0817 -0.0241
15550W        W19850   1.712   4.753   0.648 -0.0136  0.0979 -0.1669
15551W        W19851   6.701   0.711  16.598 -0.0862  0.0871  0.0712
15552W        W19852  12.620   4.162  23.381  0.0026  0.3780  0.1913
15553W        W19853   5.612   5.050  23.404 -0.1246 -0.0216  0.2487
15554W        W19854  24.329   5.476   8.643 -0.1216 -0.1961  0.1422
15555W        W19855  13.171   3.521  18.722  0.1863 -0.0465  0.2391
15556W        W19856  16.433   5.066  32.961 -0.1914 -0.0716 -0.0664
15557W        W19857  10.742   6.659   9.452  0.1480 -0.1425  0.0694
15558W        W19858  12.831   1.201  10.623  0.3239 -0.2332 -0.1966
15559W        W19859  12.808   0.217   5.821 -0.1114 -0.0690  0.0513
15560W        W19860  24.201   0.889   3.626  0.2412 -0.0390 -0.0248
15561W        W19861  10.559   3.838   2.754  0.3918  0.2299  0.0648
15562W        W19862  10.227   4.162   3.507 -0.0005 -0.2799 -0.0922
15563W        W19863  11.241   5.774  11.024 -0.0290 -0.0830  0.0790
15564W        W19864   3.387   0.301  10.545 -0.1228 -0.0988  0.0241
15565W        W19865   5.422   7.519  24.648 -0.1688  0.2303  0.2097
15566W        W19866  21.207   2.799  28.534  0.1677 -0.1538  0.1423
15567W        W19867   1.943   0.507  16.298  0.2399 -0.0363 -0.1597
15568W        W19868   5.079   2.656   4.863 -0.1713 -0.0417  0.0066
15569W        W19869  14.378   5.121   3.027  0.1755  0.1404 -0.0785
15570W        W19870  15.915   6.400   2.388 -0.3212  0.1401  0.0695
15571W        W19871  23.691   3.667  32.715  0.1935  0.0241  0.3794
15572W        W19872  13.237   1.080   5.495  0.3178 -0.1998  0.1883
15573W        W19873  15.188   2.119   4.625  0.1718  0.1443 -0.2761
15574W        W19874  18.097   1.509  27.614  0.0409  0.0248 -0.0039
15575W        W19875  15.581   1.131   9.103 -0.1381  0.0072 -0.0581
15576W        W19876   1.150   2.591  32.260  0.2205  0.1176 -0.0976
15577W        W19877  10.364   6.025   1.182 -0.0209  0.0585  0.2355
15578W        W19878   7.207   3.917   4.454 -0.0050  0.0602  0.1976
15579W        W19879   5.515   5.545  14.081 -0.0692  0.2374 -0.2318
15580W        W19880  17.161   0.496  26.248 -0.3458  0.1100  0.1559
15581W        W19881   1.126   2.544   4.971  0.0363 -0.2081 -0.4089
15582W        W19882   4.099   3.444  10.977 -0.1094 -0.2703 -0.2272
15583W        W19883  11.831   6.579  18.298 -0.1307 -0.1980 -0.2754
15584W        W19884  15.331   0.301   6.320  0.0924 -0.1743 -0.1018
15585W        W19885  21.607   4.757   4.263  0.0878 -0.0113 -0.0388
15586W        W19886  11.501   0.305  23.287 -0.1354  0.1672  0.1126
15587W        W19887  17.743   0.180  19.523  0.0236 -0.1574 -0.1741
15588W        W19888  20.952   2.832  17.479  0.1943  0.0699 -0.0673
15589W        W19889  15.887   1.916   1.205  0.1678 -0.4200 -0.1008
15590W        W19890   3.531   7.510  15.612  0.0858  0.2294 -0.2988
15591W        W19891   8.445   0.987   7.220 -0.0341 -0.1754  0.2164
15592W        W19892  20.038   0.149   2.534  0.1560  0.1428  0.1933
15593W        W19893   6.083   0.736  10.695  0.3726  0.0569  0.1737
15594W        W19894   6.265   6.628  28.043 -0.2127 -0.4334 -0.2985
15595W        W19895  23.123   0.596  29.340 -0.0884  0.2280  0.1038
15596W        W19896  12.299   0.184   6.057 -0.2122 -0.0721  0.2094
15597W        W19897  23.425   2.759   5.420 -0.0509 -0.2146 -0.0611
15598W        W19898   8.845   6.162  32.204 -0.0682 -0.1936 -0.0457
15599W        W19899  17.421   5.744  32.593 -0.1690  0.2300 -0.0826
15600W        W19900   5.766   6.132   8.307  0.0586 -0.0055 -0.0878
15601W        W19901  16.293   6.596  28.020 -0.3267  0.0444 -0.0822
15602W        W19902  20.066   4.790   2.146  0.1619 -0.0662 -0.2372
15603W        W19903   3.961   5.896   0.099 -0.1182 -0.1794  0.1343
15604W        W19904  11.778   1.667   9.673  0.0471 -0.2243 -0.0980
15605W        W19905  13.973   7.224  22.284 -0.3188  0.1441  0.3596
15606W        W19906   1.095   2.235  12.658  0.0609  0.0270  0.0097
15607W        W19907  23.823   1.124  28.387  0.1933  0.2576 -0.1037
15608W        W19908  14.235   1.869   2.856 -0.1200  0.3268  0.1260
15609W        W19909   2.770   7.423   0.616 -0.2549  0.1688 -0.2002
15610W        W19910  17.846   6.861  21.163 -0.0176 -0.1223  0.5428
15611W        W19911  11.441   2.891  28.376  0.0441 -0.0715  0.2003
15612W        W19912  19.708   7.648   2.878 -0.1570 -0.1760  0.1583
15613W        W19913  19.255   5.091  26.634 -0.0585  0.2948  0.1224
15614W        W19914   8.163   1.244  22.395  0.2033  0.1206  0.3760
15615W        W19915   5.364   3.230  24.234  0.1387  0.1562 -0.2095
15616W        W19916   6.672   1.438  28.342  0.0117 -0.0065 -0.2925
15617W        W19917  18.784   4.751  31.690  0.1362  0.1009 -0.3057
15618W        W19918  10.674   0.357  25.348 -0.1322 -0.1259 -0.0699
15619W        W19919   2.416   2.675  32.985  0.0174  0.2129  0.0711
15620W        W19920  12.242   0.014  23.001 -0.0704  0.1388 -0.0265
15621W        W19921  22.609   1.194  26.872  0.0125  0.2820 -0.0855
15622W        W19922  17.397   3.394  25.500 -0.0001 -0.0197 -0.0021
15623W        W19923  18.445   2.307   7.275 -0.0817 -0.2331 -0.0144
15624W        W19924  14.186   1.866  30.077 -0.0353 -0.3174 -0.1553
15625W        W19925  22.933   0.491  27.510  0.0747  0.3717  0.2696
15626W        W19926  18.343   1.716  26.281 -0.0497  0.1681  0.2668
15627W        W19927   1.980   1.952  28.663  0.0574  0.1126 -0.2380
15628W        W19928  14.934   3.248  17.691 -0.0688  0.0108  0.0038
15629W        W19929   9.522   7.055   6.148 -0.1232  0.2323  0.2580
15630W        W19930  17.697   2.499   2.310  0.1454 -0.1565  0.0614
15631W        W19931  18.544   4.068   4.793 -0.0238 -0.0698  0.2403
15632W        W19932  12.089   3.888   1.434 -0.3811 -0.0281  0.0714
15633W        W19933  20.996   2.624  18.421  0.2146  0.0950 -0.0352
15634W        W19934  16.595   4.857   9.900 -0.1326 -0.0684  0.2469
15635W        W19935  19.705   3.840   6.450 -0.0191 -0.0181  0.2800
15636W        W19936   9.133   0.016  26.277 -0.2164  0.3592  0.0903
15637W        W19937  21.921   5.188  27.338 -0.0619  0.1151  0.0707
15638W        W19938   9.968   6.505  28.287  0.0572  0.0593  0.1016
15639W        W19939   9.517   3.179  22.683 -0.1640 -0.2010  0.0640
15640W        W19940  16.680   1.749   1.398 -0.1210  0.2055  0.2519
15641W        W19941  16.559   6.194   1.823  0.2582  0.1206 -0.0325
15642W        W19942  23.340   4.980  12.152 -0.1916  0.0015  0.1876
15643W        W19943   7.667   4.101  26.893  0.2919 -0.0035 -0.0124
15644W        W19944  21.335   1.319  20.305  0.1153  0.1230 -0.0235
15645W        W19945  18.992   0.214  18.958 -0.1793 -0.1180  0.2221
15646W        W19946   6.118   7.470  14.026  0.0291  0.1385  0.0440
15647W        W19947  16.337   6.025  27.285  0.0535  0.0307  0.2448
15648W        W19948   7.190   0.493   8.328 -0.0762  0.1132 -0.0206
15649W        W19949   6.108   1.100  29.435  0.1476  0.2788  0.3321
15650W        W19950  19.735   0.887  23.637 -0.2909  0.0252 -0.0816
15651W        W19951  13.185   1.119   2.863 -0.3428 -0.1681 -0.1582
15652W        W19952  21.441   2.347  10.799 -0.2092 -0.1159  0.0117
15653W        W19953   0.156   1.420  23.460 -0.2571 -0.3326 -0.1376
15654W        W19954   6.907   4.154  10.995  0.1590 -0.0772 -0.1352
15655W        W19955  17.716   1.078   4.658  0.2468  0.3324 -0.1569
15656W        W19956  20.814   1.627   3.005 -0.3020 -0.1624  0.1220
15657W        W19957  24.561   0.853  22.820  0.0698  0.1897 -0.0425
15658W        W19958  16.774   3.013   6.670  0.0234  0.0238 -0.1717
15659W        W19959  14.941   0.779  15.115  0.1211 -0.0029  0.0074
15660W        W19960   2.457   2.563  25.720 -0.2585 -0.1013  0.1438
15661W        W19961   7.365   4.847  29.440  0.0166  0.0868  0.1151
15662W        W19962   9.785   2.904   2.372 -0.1041  0.1045  0.0805
15663W        W19963   5.331   2.046  14.714 -0.1185 -0.2091 -0.2160
15664W        W19964  19.555   3.161   7.284  0.0851 -0.1451 -0.1373
15665W        W19965  13.245   0.010  22.645  0.0430 -0.1073 -0.1060
15666W        W19966  17.447   2.375  20.641 -0.0583  0.4907 -0.0712
15667W        W19967  17.327   3.559   7.376  0.0233 -0.0972  0.0640
15668W        W19968   2.062   5.212  28.445  0.0962 -0.1235  0.1799
15669W        W19969  17.314   6.903  29.627  0.1923 -0.1995  0.3361
15670W        W19970   1.114   6.480  25.847  0.0766  0.0192 -0.2482
15671W        W19971  21.328   6.424   3.294  0.0737  0.0160 -0.0094
15672W        W19972   9.681   3.636  10.307 -0.1825  0.0904  0.2286
15673W        W19973  18.707   7.055   8.102 -0.0566  0.2293  0.0365
15674W        W19974  22.231   7.310  29.720  0.1646 -0.0083  0.3217
15675W        W19975  24.868   2.883  24.994  0.1215  0.1641  0.0682
15676W        W19976  11.452   1.537  31.243 -0.1486 -0.0421  0.0390
15677W        W19977  19.857   0.276  16.815  0.1702  0.0181  0.1589
15678W        W19978   1.620   0.605  15.430 -0.0538 -0.1803  0.3833
15679W        W19979   3.893   1.934  29.905 -0.3103  0.3482 -0.1302
15680W        W19980   3.834   2.360   4.143 -0.0646 -0.0015 -0.2249
15681W        W19981  10.940   3.217   3.052  0.0330 -0.0658 -0.0327
15682W        W19982   9.875   4.649  32.725 -0.0743  0.1464 -0.0991
15683W        W19983   7.209   6.997  29.641 -0.0519  0.3202  0.0416
15684W        W19984   1.384   3.530   2.074 -0.4149 -0.2862 -0.2092
15685W        W19985  23.370   3.251   1.704 -0.0555 -0.0449 -0.0286
15686W        W19986   6.030   1.985  29.556  0.4269  0.0237  0.1245
15687W        W19987  10.480   3.680   6.757 -0.1899  0.1934  0.2390
15688W        W19988   4.009   7.691  25.458  0.1210  0.0842 -0.1525
15689W        W19989   5.091   7.291   1.284  0.0350 -0.0952 -0.3088
15690W        W19990  11.483   1.105  28.060 -0.1743  0.1172  0.0441
15691W        W19991  17.266   5.664  16.290 -0.1156  0.0863  0.1889
15692W        W19992  24.263   1.010  14.579 -0.0834 -0.0805  0.2416
15693W        W19993  20.926   6.385  21.368  0.3920 -0.1480  0.3303
15694W        W19994  12.962   6.100   7.138 -0.1345  0.1307  0.0999
15695W        W19995   9.463   2.969  14.005 -0.5642  0.2725  0.3263
15696W        W19996  22.276   3.470  22.155 -0.0256  0.0340  0.0617
15697W        W19997  21.231   0.277  28.282  0.1002 -0.1737 -0.1986
15698W        W19998  10.952   3.979   9.263 -0.1199 -0.2909  0.2703
15699W        W19999  19.862   0.969   2.090  0.0933 -0.0589  0.2990
15700W        W20000   9.639   4.677  25.978  0.1565 -0.0156  0.1274
15701W        W20001  10.621   6.947   1.292 -0.3033 -0.3787 -0.0948
15702W        W20002  16.370   1.193  23.519 -0.2007 -0.0691  0.1405
15703W        W20003  24.351   3.709   0.912  0.0153 -0.1787  0.0384
15704W        W20004   1.472   0.271   7.484 -0.0029  0.0905 -0.1597
15705W        W20005  17.098   0.148  15.164 -0.2290  0.3469 -0.0722
15706W        W20006   3.052   0.439  29.268  0.1196 -0.0674 -0.1246
15707W        W20007  12.236   2.285   8.174  0.2872  0.2462 -0.0595
15708W        W20008   5.917   0.485  16.560  0.4119  0.2563 -0.0902
15709W        W20009   9.261   6.682   4.125 -0.2968 -0.1745  0.2655
15710W        W20010   2.336   4.780   4.132 -0.1783  0.1066  0.0388
15711W        W20011  17.920   6.894  30.767  0.0460 -0.1575 -0.0382
15712W        W20012  15.616   4.660  27.328  0.1061 -0.1657  0.2377
15713W        W20013   4.837   1.047  24.965  0.1276  0.2612  0.1133
15714W        W20014  11.452   5.343  20.052 -0.0661  0.2783  0.1232
15715W        W20015   2.034   6.166   7.591 -0.1507 -0.0086  0.3085
15716W        W20016   9.189   2.192  22.958 -0.3104 -0.3077  0.2763
15717W        W20017  20.011   7.390  18.717 -0.0953 -0.1232 -0.1567
15718W        W20018  22.105   4.840   7.815  0.2792  0.2624  0.0013
15719W        W20019  16.861   1.875  21.722  0.0058 -0.1207  0.1426
15720W        W20020   3.024   3.891  25.224 -0.0318 -0.1135 -0.1573
15721W        W20021  11.597   1.957   6.235  0.1031  0.4509 -0.2841
15722W        W20022  10.871   1.080  32.448  0.1967 -0.0428 -0.0569
15723W        W20023   7.436   5.530  24.257 -0.0303 -0.0769 -0.3125
15724W        W20024  20.487   0.913  26.191 -0.2839  0.2134  0.1414
15725W        W20025   6.422   0.995  29.909 -0.0498 -0.1678 -0.0734
15726W        W20026  10.092   2.955  32.846  0.0977  0.0675  0.0324
15727W        W20027   7.426   0.659  15.346 -0.0008 -0.0468  0.0489
15728W        W20028  14.031   7.608  31.544  0.0531 -0.1005 -0.1760
15729W        W20029  17.387   2.998  30.672  0.1890 -0.1389  0.1311
15730W        W20030   2.471   2.813  12.586 -0.1290 -0.0622 -0.1742
15731W        W20031  19.229   2.410  21.134  0.2077  0.2096 -0.1024
15732W        W20032   5.373   3.954  23.485  0.0247 -0.0342  0.0883
15733W        W20033  14.495   1.496  23.413 -0.1448 -0.0722 -0.0337
15734W        W20034   1.853   7.234   9.999 -0.0706  0.1244  0.0137
15735W        W20035  16.198   3.516  26.864  0.2674 -0.3447  0.1803
15736W        W20036   2.658   5.277   0.111  0.0437 -0.0028  0.0421
15737W        W20037  24.698   0.600   7.655 -0.1163 -0.2266 -0.0799
15738W        W20038  18.581   5.109  18.564 -0.2168 -0.1815  0.0613
15739W        W20039  18.520   0.916  30.248 -0.1049  0.0776  0.0258
15740W        W20040   0.109   5.873   2.782  0.0184  0.0232  0.1367
15741W        W20041  20.429   1.546  21.546 -0.0282 -0.0520  0.3516
15742W        W20042  16.116   6.952  24.155 -0.1016 -0.1768 -0.2591
15743W        W20043  11.926   2.234  26.946  0.0305  0.1233  0.3370
15744W        W20044  14.085   5.176  25.467  0.0059  0.0797 -0.3331
15745W        W20045  17.584   4.707  24.720 -0.0125  0.0370 -0.1915
15746W        W20046  16.786   2.413  19.043  0.1991 -0.0253 -0.0043
15747W        W20047  14.641   7.232  26.476  0.1360  0.0270  0.1691
15748W        W20048   0.203   2.980  32.880 -0.2098  0.0332  0.0700
15749W        W20049  19.669   0.761   0.823  0.1036 -0.0687 -0.2019
15750W        W20050  22.378   2.804   7.840  0.2433 -0.2101 -0.1446
15751W        W20051  24.699   6.305  13.333  0.1990  0.1026  0.1060
15752W        W20052   9.372   1.348   0.983  0.0691  0.0333 -0.0077
15753W        W20053  23.580   2.857  22.080 -0.1011 -0.2599 -0.2461
15754W        W20054  21.505   1.717  32.605  0.3989 -0.2135  0.3460
15755W        W20055  21.409   4.143   9.564  0.1146 -0.0081 -0.0984
15756W        W20056  12.731   3.606  28.350  0.1637 -0.2718 -0.1389
15757W        W20057  21.575   5.065  22.942 -0.1163  0.0237 -0.3983
15758W        W20058   0.581   3.581   5.586  0.1049  0.5384 -0.0387
15759W        W20059  21.149   1.105   3.841  0.0483 -0.4904 -0.1317
15760W        W20060   5.082   2.637   9.985  0.0441 -0.2516 -0.2869
15761W        W20061   7.371   0.999   9.598 -0.6156  0.0477 -0.1661
15762W        W20062  21.512   4.526  24.744 -0.0246  0.0472  0.0121
15763W        W20063  12.110   0.050  31.450  0.0129  0.1095 -0.5452
15764W        W20064   6.880   5.635  14.313  0.0758  0.0670 -0.0342
15765W        W20065  13.174   3.674  30.156  0.1544 -0.1766 -0.1614
15766W        W20066   1.629   6.297   9.455  0.2258  0.1290 -0.2029
15767W        W20067  19.768   6.110   9.914 -0.2566 -0.3210  0.0756
15768W        W20068  13.498   0.333   2.143  0.2150  0.2469  0.3725
15769W        W20069  21.480   7.274   1.989  0.1585 -0.1870  0.1542
15770W        W20070  16.534   7.550  14.529  0.0097  0.1305 -0.2458
15771W        W20071  10.403   5.451  28.548  0.0248  0.0539  0.4135
15772W        W20072  16.254   5.932   3.751 -0.0515 -0.0054 -0.0498
15773W        W20073   8.225   4.549  23.286 -0.2959  0.2560  0.2912
15774W        W20074   6.596   2.608  26.604 -0.0917  0.0591 -0.0248
15775W        W20075  18.178   1.692   3.810  0.2490 -0.1911  0.0405
15776W        W20076  16.373   6.757  15.149  0.2446 -0.2769 -0.2634
15777W        W20077  19.080   5.670   3.966 -0.0681  0.0437  0.1568
15778W        W20078  22.883   2.194  31.637 -0.0903  0.0650 -0.0169
15779W        W20079  18.526   5.228  27.765 -0.1044 -0.0239 -0.1412
15780W        W20080  16.246   4.877   4.867 -0.1625 -0.3829  0.1104
15781W        W20081  15.982   5.876  32.494  0.0919 -0.0323  0.0754
15782W        W20082  22.881   1.318   0.621  0.0539  0.1965 -0.0360
15783W        W20083  24.578   4.330  23.294 -0.3387  0.0923  0.2694
15784W        W20084  19.209   1.120  24.449  0.0732  0.1080 -0.1049
15785W        W20085  16.382   1.920   3.620 -0.1711  0.1569 -0.2680
15786W        W20086  13.792   3.423  27.297 -0.1178 -0.1192  0.1104
15787W        W20087  23.107   5.708   6.316  0.1766 -0.0014 -0.1363
15788W        W20088  18.021   3.103  21.416  0.2153 -0.2101 -0.1182
15789W        W20089  18.853   7.641  15.870 -0.0028  0.2613  0.0720
15790W        W20090  16.850   2.654   8.057 -0.0739  0.4121  0.1512
15791W        W20091  13.911   4.659  28.710  0.1489 -0.2528 -0.0667
15792W        W20092   6.176   5.050   5.845  0.1270  0.1912 -0.0439
15793W        W20093  14.089   7.472  26.160  0.0454  0.0114 -0.0769
15794W        W20094  22.854   2.008   3.844 -0.0442  0.0378 -0.1576
15795W        W20095  20.660   4.299  31.378  0.1279  0.0355 -0.0084
15796W        W20096   0.806   0.799   4.435  0.0529  0.1949 -0.0795
15797W        W20097  10.287   4.899   4.316 -0.2117  0.2414  0.0909
15798W        W20098   3.002   6.447   4.625  0.0288  0.2052  0.2603
15799W        W20099   5.916   3.471  25.116  0.2661  0.1650 -0.1397
15800W        W20100  11.442   3.137  24.427 -0.0778  0.2344 -0.0686
15801W        W20101  22.245   0.758  23.754 -0.0630 -0.1489 -0.2239
15802W        W20102  14.668   6.608   5.236 -0.1647 -0.6239  0.2967
15803W        W20103  21.285   2.355   4.421  0.0021 -0.3173  0.0351
15804W        W20104  14.406   3.922  18.623  0.0873  0.1221  0.0135
15805W        W20105   9.180   2.900  26.733 -0.1613  0.0721  0.0787
15806W        W20106  20.007   0.559   0.252 -0.2157 -0.1175  0.1082
15807W        W20107  11.132   0.953   4.496 -0.0741  0.0082 -0.1364
15808W        W20108  11.440   5.173   7.260  0.0366  0.1029 -0.4905
15809W        W20109   3.656   2.415  13.277  0.2278  0.0478 -0.1508
15810W        W20110  18.440   6.442   6.685 -0.3869  0.1746  0.0414
15811W        W20111  23.667   3.374   8.834 -0.1674 -0.1389 -0.0782
15812W        W20112   2.131   5.729   2.195 -0.0010 -0.1543 -0.1935
15813W        W20113  21.033   3.392   7.495 -0.0277  0.0733  0.0002
15814W        W20114  14.719   7.311  27.390 -0.1111  0.0678 -0.5637
15815W        W20115  19.137   3.020   6.966 -0.0094 -0.0710  0.0318
15816W        W20116   4.096   1.986   2.969 -0.0052  0.1270 -0.1741
15817W        W20117   6.998   0.909  12.239 -0.1076 -0.0613  0.1412
15818W        W20118  23.941   2.777   8.245 -0.0013 -0.0972  0.1393
15819W        W20119   2.482   0.454   7.529 -0.0721 -0.0908 -0.2249
15820W        W20120  12.048   2.276   2.029 -0.2247 -0.2987 -0.1323
15821W        W20121   7.257   5.666  29.955 -0.1399 -0.1813 -0.2279
15822W        W20122   5.967   0.398   3.554  0.2072  0.1051  0.2225
15823W        W20123   1.384   5.551   2.763 -0.0763 -0.0846  0.0490
15824W        W20124  18.484   1.569  16.601 -0.0553  0.0989 -0.0772
15825W        W20125  20.854   2.885   7.262 -0.1303  0.0417  0.2353
15826W        W20126   7.984   2.143   5.733  0.3904 -0.3434 -0.1211
15827W        W20127   4.206   0.895  16.010 -0.0780 -0.3689 -0.1021
15828W        W20128  24.427   7.639  23.772  0.1378  0.0276 -0.2068
15829W        W20129   5.071   4.197  14.289  0.0407 -0.0142 -0.1117
15830W        W20130  19.437   1.481  16.494 -0.1687 -0.0505  0.1622
15831W        W20131  12.141   7.732  32.393  0.1042 -0.0563  0.0439
15832W        W20132   9.505   2.811   9.104  0.1146 -0.2198 -0.0016
15833W        W20133   2.512   3.392  14.398  0.0447 -0.0579  0.2026
15834W        W20134   5.331   3.266  26.224 -0.0974 -0.0569 -0.0457
15835W        W20135  16.227   1.993  25.658  0.4819  0.1355 -0.1951
15836W        W20136  21.948   7.701   8.934 -0.3491 -0.0560 -0.0765
15837W        W20137  21.808   4.696  18.943 -0.2148  0.3768  0.3186
15838W        W20138  19.723   4.549  22.441  0.0661 -0.1398  0.2180
15839W        W20139   6.792   2.550   8.278  0.0582  0.0052  0.1120
15840W        W20140   6.569   1.955  23.171  0.2828  0.1912 -0.1997
15841W        W20141  10.796   3.346  23.958 -0.0475 -0.2248 -0.1842
15842W        W20142   8.589   0.232  22.086 -0.1100  0.2734 -0.4075
15843W        W20143   1.161   6.202  23.060 -0.1668  0.3079  0.0872
15844W        W20144  16.850   4.138   4.675 -0.1559  0.0920 -0.1047
15845W        W20145  13.956   0.959   2.664  0.0425  0.5594 -0.0578
15846W        W20146  10.010   0.785  12.218 -0.0954  0.1860  0.1775
15847W        W20147   4.311   0.002   0.998 -0.1415  0.1509  0.2230
15848W        W20148   7.599   3.739   4.197  0.0594 -0.1014  0.0595
15849W        W20149   6.257   6.687  31.340  0.0317  0.0991  0.2267
15850W        W20150   6.001   0.639   1.705 -0.1464 -0.0595 -0.1816
15851W        W20151  17.381   1.096  17.236 -0.1969  0.4131 -0.1108
15852W        W20152   5.454   6.259  13.694 -0.1771 -0.0970 -0.0472
15853W        W20153  19.204   4.194  25.159  0.0744  0.0745 -0.2529
15854W        W20154   9.564   1.739  28.313 -0.0769  0.0330 -0.0416
15855W        W20155   0.500   1.583   4.891  0.1657  0.1029 -0.0957
15856W        W20156  24.205   1.534   6.962 -0.3359 -0.2079 -0.2756
15857W        W20157  10.639   4.937  22.046  0.3186  0.0618  0.2016
15858W        W20158   6.185   6.172  28.648  0.0315 -0.0620 -0.1115
15859W        W20159  11.762   2.058  28.105 -0.0068 -0.0306 -0.1151
15860W        W20160  12.369   7.076  31.605  0.0468 -0.2544 -0.1829
15861W        W20161  23.948   1.893  12.328 -0.1131 -0.0336  0.1238
15862W        W20162   0.247   4.294  13.011 -0.2131 -0.1927  0.0289
15863W        W20163  24.324   0.620   1.782 -0.2899 -0.0394 -0.0981
15864W        W20164  10.328   7.363  29.886  0.1050 -0.0517  0.0819
15865W        W20165   8.365   4.283  28.199 -0.1964  0.0842 -0.0022
15866W        W20166   3.548   5.476   9.312 -0.0011 -0.1790  0.0649
15867W        W20167  11.466   7.169  18.650 -0.1362  0.0943 -0.3200
15868W        W20168  17.298   2.211  24.462  0.0858  0.1384  0.2308
15869W        W20169  19.281   6.432   0.504  0.1323  0.0543  0.0556
15870W        W20170  20.095   6.793   4.225  0.1812 -0.1509  0.0120
15871W        W20171  20.705   2.689   1.624 -0.0618  0.0808 -0.0054
15872W        W20172   4.497   0.763  13.359  0.1557 -0.1633 -0.0205
15873W        W20173   5.377   5.606  25.415  0.1811 -0.1618  0.2107
15874W        W20174   3.927   6.023   2.133 -0.2271  0.0620 -0.2052
15875W        W20175   3.677   0.057   4.211 -0.0821 -0.0453  0.0782
15876W        W20176  11.787   5.158   8.245  0.2148  0.1769 -0.2359
15877W        W20177   2.981   4.171   0.809 -0.1582  0.0483  0.1295
15878W        W20178   3.488   1.421  14.147 -0.1176  0.1195  0.0729
15879W        W20179   8.163   5.160  24.540  0.2846 -0.0851 -0.2160
15880W        W20180   2.530   6.225  24.420 -0.0024 -0.1347 -0.0592
15881W        W20181   1.600   3.890  24.917  0.1210 -0.0176  0.0544
15882W        W20182   1.070   5.900  27.906  0.3983 -0.2418 -0.0580
15883W        W20183  20.381   2.741  19.227 -0.1845 -0.0049  0.1085
15884W        W20184  19.679   4.256   6.760  0.1332 -0.0044 -0.1704
15885W        W20185  20.387   5.543  27.724 -0.1875 -0.2186 -0.1195
15886W        W20186   3.304   7.092   8.485  0.0349 -0.0229  0.1773
15887W        W20187   5.111   3.926  17.606  0.2418 -0.1826 -0.0172
15888W        W20188   8.232   5.827  30.883  0.0174 -0.2745 -0.0882
15889W        W20189   6.502   1.619  16.624  0.0141  0.3927 -0.2686
15890W        W20190  10.019   0.980   5.590 -0.1871  0.2000  0.0153
15891W        W20191   8.660   6.815  14.746 -0.2562 -0.0500 -0.4290
15892W        W20192   7.116   6.461  10.215 -0.2800 -0.2090  0.2040
15893W        W20193  15.471   6.787  10.486 -0.0791 -0.0453 -0.1843
15894W        W20194   9.770   2.623  21.222 -0.1434  0.1466  0.0046
15895W        W20195   7.496   6.505  31.261 -0.0256 -0.0510 -0.2460
15896W        W20196  18.213   0.532  23.473 -0.1845  0.1030 -0.0399
15897W        W20197   7.861   6.400  28.432  0.1094 -0.1993  0.0217
15898W        W20198  16.541   0.573  32.534 -0.1415 -0.1607 -0.0342
15899W        W20199   0.541   2.021  11.751  0.2253 -0.0924 -0.1020
15900W        W20200   7.967   0.593  32.417  0.1088  0.0579 -0.1028
15901W        W20201   6.706   3.412  23.116  0.0218 -0.2162 -0.1944
15902W        W20202  11.282   5.182  29.789  0.3967  0.1215  0.1129
15903W        W20203   2.970   7.440  28.255  0.1068  0.0192 -0.0046
15904W        W20204   3.485   4.131  26.767 -0.1875  0.0995 -0.1081
15905W        W20205   2.738   1.820  31.250 -0.2134 -0.4605 -0.0797
15906W        W20206  18.669   6.743  23.182  0.1748  0.0827 -0.0518
15907W        W20207  16.529   6.686  32.155  0.1813 -0.0774  0.0643
15908W        W20208   6.185   1.113  30.730  0.1752 -0.1145  0.2270
15909W        W20209   3.657   0.695   3.161 -0.0017 -0.1606  0.1225
15910W        W20210  17.534   0.655  10.817 -0.1344  0.1489  0.2464
15911W        W20211   7.163   6.422   7.347  0.1293 -0.3588  0.2002
15912W        W20212   7.836   3.542  10.952  0.0190 -0.1770  0.2602
15913W        W20213  14.755   1.102  15.568 -0.0965  0.0397  0.1471
15914W        W20214  24.163   3.683   8.939  0.1518 -0.1584  0.1569
15915W        W20215  14.220   0.760   5.684  0.2440 -0.0739  0.0494
15916W        W20216  13.817   0.727  30.601  0.0979 -0.0559 -0.1273
15917W        W20217   5.456   5.353  31.306 -0.1794  0.1037  0.0464
15918W        W20218  20.242   6.249   9.699  0.1521 -0.1692 -0.3774
15919W        W20219  22.885   3.951  28.376  0.2180 -0.2265  0.1450
15920W        W20220  16.133   2.696  14.714 -0.0268 -0.0840 -0.0458
15921W        W20221  13.105   3.188   4.306 -0.0059  0.1877  0.0398
15922W        W20222   4.652   0.444   7.118 -0.0224 -0.2176 -0.1824
15923W        W20223   7.564   4.759  11.228 -0.3036 -0.0061 -0.0319
15924W        W20224  10.670   1.375   5.297  0.1552 -0.0837  0.2646
15925W        W20225  14.739   1.102  29.090  0.0745 -0.1317 -0.2849
15926W        W20226   4.160   3.915  11.215  0.2182  0.0562  0.0853
15927W        W20227  14.846   6.268   8.593  0.0108  0.2358  0.2076
15928W        W20228  10.897   6.607  10.485  0.1932 -0.2737 -0.0986
15929W        W20229  12.086   2.701  33.019  0.0618 -0.2195 -0.0365
15930W        W20230   9.289   4.364  27.052  0.0474  0.0132 -0.3023
15931W        W20231  23.687   3.815  11.360 -0.1499  0.0740 -0.1220
15932W        W20232   2.800   0.268  26.568 -0.0554  0.3142  0.0540
15933W        W20233  10.170   5.679  22.835  0.4155 -0.0303  0.1042
15934W        W20234  20.517   2.080  20.359  0.1661 -0.2726  0.0191
15935W        W20235   1.300   3.991   3.214 -0.0060 -0.1879  0.2423
15936W        W20236   2.962   4.630  12.354 -0.0077 -0.4049 -0.4432
15937W        W20237  12.331   0.280  24.275 -0.1346 -0.1021  0.0701
15938W        W20238   9.712   1.416   5.668 -0.0726  0.0997  0.3155
15939W        W20239  14.707   5.845  16.334 -0.1104  0.2287 -0.0251
15940W        W20240   7.372   2.614  13.688  0.0485 -0.4218 -0.2135
15941W        W20241   0.356   1.224   6.433 -0.0006 -0.1635 -0.1449
15942W        W20242  16.818   3.934  10.075  0.0815 -0.2017  0.0818
15943W        W20243  12.790   7.058  20.719 -0.0686  0.0505  0.0844
15944W        W20244  15.939   5.307  16.403 -0.2191  0.1607  0.0472
15945W        W20245   1.719   0.430  27.328  0.2778  0.1451  0.0206
15946W        W20246   4.273   7.276  13.496  0.2531  0.1244  0.0603
15947W        W20247  15.966   7.154  31.693 -0.4220 -0.1724 -0.1493
15948W        W20248  17.264   3.062   7.197  0.0219  0.1343 -0.2499
15949W        W20249  12.393   2.662  31.247  0.1983 -0.0503  0.0909
15950W        W20250  15.909   5.674  30.296  0.0766 -0.2374 -0.1619
15951W        W20251   2.962   6.102  30.191 -0.0179 -0.1422  0.2125
15952W        W20252   9.357   6.639  27.655  0.1105 -0.2893  0.1651
15953W        W20253  23.047   4.119  13.931 -0.3634  0.0901  0.1867
15954W        W20254  21.918   3.060   3.846  0.0837 -0.1182  0.0363
15955W        W20255   5.414   2.399   7.476 -0.2198  0.2907  0.2613
15956W        W20256  14.568   5.933  17.145  0.1007  0.0531 -0.2671
15957W        W20257  12.462   1.189  11.020  0.3104 -0.1854 -0.2082
15958W        W20258   9.249   7.532  32.818 -0.0867  0.0747 -0.0333
15959W        W20259  14.620   5.351   6.477  0.3214  0.1678  0.0383
15960W        W20260   4.227   7.241   6.914  0.2083 -0.0022  0.1404
15961W        W20261   9.542   1.193  31.887 -0.1807  0.0635  0.1370
15962W        W20262   4.609   7.229  27.643 -0.1614 -0.1585  0.3866
15963W        W20263   0.026   6.828  15.162  0.1953  0.0627  0.1153
15964W        W20264  21.138   6.587  28.073 -0.1088  0.5552  0.1978
15965W        W20265  22.838   1.480  12.627  0.0288 -0.0405  0.0415
15966W        W20266  20.476   4.122   3.762 -0.1879 -0.1541 -0.0819
15967W        W20267  11.849   7.569   6.387 -0.2152  0.0118 -0.0314
15968W        W20268   1.473   2.082   3.423 -0.0499  0.2053  0.2791
15969W        W20269  14.504   3.315  16.735  0.0580  0.0642 -0.2984
15970W        W20270   0.861   5.147  30.929 -0.1660 -0.4167  0.1103
15971W        W20271  14.382   1.173  25.855 -0.0398 -0.0515 -0.2519
15972W        W20272  18.151   5.480  32.270 -0.2275 -0.4965 -0.3612
15973W        W20273  11.704   2.912   5.945  0.0853 -0.1662 -0.1125
15974W        W20274   3.150   2.837  10.294 -0.0026 -0.1079 -0.0547
15975W        W20275  10.917   5.991  13.181  0.0633  0.0793 -0.1457
15976W        W20276   1.995   6.318  33.039  0.1243  0.2105  0.1270
15977W        W20277  15.833   2.711  19.069  0.0443 -0.0625 -0.1168
15978W        W20278  11.876   0.555  28.981  0.0849 -0.1741  0.3369
15979W        W20279  11.538   5.139  29.354  0.0052  0.0136  0.0263
15980W        W20280  21.180   4.132   5.918 -0.0288 -0.2146 -0.0069
15981W        W20281  15.067   6.775   5.024  0.0983  0.1765 -0.0968
15982W        W20282  13.000   1.176   5.940  0.1883 -0.2927  0.3792
15983W        W20283  20.168   0.285  10.579  0.0580 -0.1835 -0.2554
15984W        W20284   7.541   2.723  31.170  0.1029  0.2719 -0.2929
15985W        W20285  24.700   5.278   3.347  0.1546 -0.0620 -0.1110
15986W        W20286  19.331   7.109  24.079  0.0501  0.0079 -0.4279
15987W        W20287   9.390   4.308   1.300 -0.0988  0.0159 -0.0627
15988W        W20288   2.389   6.280   5.615  0.0864 -0.1042 -0.1544
15989W        W20289  18.824   4.662  17.091  0.0943  0.1491  0.0883
15990W        W20290  13.922   1.165   5.781  0.1276 -0.1572  0.0799
15991W        W20291  18.689   4.842  18.133 -0.0947 -0.2567 -0.1643
15992W        W20292  23.502   1.767  29.411  0.0458  0.1085 -0.4353
15993W        W20293  16.121   5.572  31.170 -0.2669  0.0056  0.2632
15994W        W20294   9.479   0.033  24.115  0.0638  0.1237 -0.1050
15995W        W20295  19.640   4.088  29.841 -0.3588  0.3393 -0.4624
15996W        W20296   0.382   7.157  24.185  0.1192 -0.2841  0.2328
15997W        W20297  15.002   3.529   7.341 -0.0601 -0.1039 -0.0599
15998W        W20298  22.247   6.699  30.098  0.3425 -0.0493  0.2582
15999W        W20299  11.866   6.178  31.370  0.3320  0.1675 -0.0748
16000W        W20300   0.546   0.980   9.752  0.1646  0.1827 -0.2645
16001W        W20301   2.859   0.316  28.800 -0.2418  0.2315 -0.3097
16002W        W20302  11.469   1.522  29.363 -0.3833  0.1824 -0.0012
16003W        W20303  16.462   2.186  22.008 -0.0302  0.0378 -0.0227
16004W        W20304   6.583   4.791   1.597 -0.0745 -0.0642 -0.2717
16005W        W20305  19.827   2.670  21.787 -0.1770  0.1844 -0.1579
16006W        W20306  14.921   4.294   7.581 -0.1789  0.3432 -0.0897
16007W        W20307  13.638   6.185  19.885  0.1563 -0.1528  0.0043
16008W        W20308  12.101   7.656  28.260 -0.3587  0.0930  0.0509
16009W        W20309   9.433   4.185  31.510  0.0145  0.2817 -0.0537
16010W        W20310  16.376   3.989  32.338 -0.0607  0.5346 -0.2304
16011W        W20311  15.495   4.200  26.102  0.0226 -0.1762 -0.1371
16012W        W20312  17.579   5.945  23.698 -0.1575  0.0055  0.0495
16013W        W20313  23.955   2.058   8.900  0.4254  0.3748 -0.2949
16014W        W20314  22.083   0.960   4.251 -0.3634 -0.0108  0.0077
16015W        W20315   8.580   1.735  30.512  0.1688  0.1025  0.1075
16016W        W20316   3.457   4.224  32.199 -0.1813  0.2811  0.1047
16017W        W20317   5.916   5.424  23.858 -0.0306  0.1894 -0.1301
16018W        W20318  18.323   4.751  10.064 -0.0206 -0.0085 -0.1056
16019W        W20319   2.822   2.747   0.509 -0.0722 -0.0104 -0.1048
16020W        W20320   4.216   7.651   6.628  0.0434 -0.0261 -0.0927
16021W        W20321  19.628   4.555  25.125 -0.1899 -0.1386  0.1585
16022W        W20322  22.186   5.691  26.461  0.2104  0.1599  0.2826
16023W        W20323  15.862   2.055  27.329 -0.2423 -0.0618 -0.0966
16024W        W20324   5.152   1.536  13.695  0.0862  0.1451 -0.0526
16025W        W20325   9.761   5.173  10.095 -0.0796  0.1167  0.0245
16026W        W20326  11.807   4.984   6.345  0.2912 -0.2085 -0.1260
16027W        W20327  11.601   1.362  20.802 -0.1263  0.0487  0.1287
16028W        W20328   0.775   0.641  22.964  0.3051 -0.1519  0.0612
16029W        W20329  21.200   3.227  22.870  0.0136  0.2874 -0.3057
16030W        W20330  16.435   0.292  28.507 -0.1980 -0.0421  0.0832
16031W        W20331  19.657   6.969   3.862  0.3245 -0.0031 -0.3135
16032W        W20332  23.941   4.020  14.046 -0.0359 -0.2096 -0.0582
16033W        W20333  21.531   1.300  28.450 -0.0240  0.5913  0.1092
16034W        W20334  18.241   3.378  25.829  0.1586 -0.0330  0.1525
16035W        W20335  17.512   7.681  32.195 -0.2161 -0.1941  0.1817
16036W        W20336  21.011   4.753  23.102 -0.1206 -0.0019 -0.1386
16037W        W20337  19.014   0.728   7.898 -0.0200  0.4274 -0.0963
16038W        W20338  15.773   2.633  26.057  0.1421 -0.1642 -0.0034
16039W        W20339  17.420   6.069   3.364 -0.2005  0.1049  0.0883
16040W        W20340  23.800   1.629  26.155 -0.2576 -0.0546 -0.1816
16041W        W20341   4.473   4.715   2.516 -0.1438 -0.0904 -0.0560
16042W        W20342  11.592   3.212   9.167  0.0477 -0.0068  0.0448
16043W        W20343  19.442   3.762  28.308 -0.0225  0.2709 -0.2019
16044W        W20344  17.814   1.656  32.180 -0.2207 -0.3386  0.1812
16045W        W20345  21.399   4.282   8.217  0.3136  0.1398  0.1319
16046W        W20346  23.708   5.821   7.297 -0.0454 -0.0128 -0.1587
16047W        W20347  13.318   2.253   8.208 -0.0632  0.0722 -0.4069
16048W        W20348  21.004   2.990   5.635 -0.1853 -0.1900  0.0631
16049W        W20349   4.713   3.933   9.135 -0.4360 -0.0564  0.1068
16050W        W20350   2.606   2.930  28.600  0.0541  0.1870  0.0111
16051W        W20351   3.353   1.981  22.330 -0.1129  0.0529  0.2087
16052W        W20352   1.461   2.110  10.096  0.0698 -0.1258 -0.3090
16053W        W20353  15.745   5.822   3.942  0.3756  0.0121  0.2510
16054W        W20354   0.269   4.773  26.526  0.0322  0.0792  0.1245
16055W        W20355   2.129   2.051  12.562  0.2088 -0.1307 -0.0214
16056W        W20356  10.754   0.905  10.777  0.3299 -0.0392 -0.1056
16057W        W20357   5.739   5.086  13.543  0.1438 -0.0755  0.2084
16058W        W20358  20.541   2.065   2.279 -0.3780  0.0110 -0.0898
16059W        W20359  22.072   4.644  12.496  0.0098  0.2958  0.0347
16060W        W20360  18.158   1.481   5.088 -0.0121  0.1402  0.1294
16061W        W20361  20.897   2.150  24.579 -0.1939  0.2471 -0.2271
16062W        W20362  10.290   1.186  10.729  0.2383  0.1064  0.0372
16063W        W20363   7.208   7.014  22.219  0.0635 -0.1750 -0.0303
16064W        W20364  21.418   6.668   7.218 -0.2395 -0.1673 -0.2127
16065W        W20365   9.207   2.431  32.121  0.1690 -0.1750  0.0414
16066W        W20366  22.553   5.736  31.130  0.1436 -0.2259  0.3093
16067W        W20367   0.377   6.167  22.759 -0.1128 -0.0438  0.0648
16068W        W20368   0.086   0.811   3.090  0.0134 -0.0680  0.0597
16069W        W20369  17.392   7.704   7.723 -0.1826  0.2201  0.2852
16070W        W20370   5.085   3.481  32.469  0.0993 -0.2201  0.0929
16071W        W20371   3.107   7.299  27.360  0.0247  0.2736 -0.0105
16072W        W20372  13.728   3.181  17.945  0.3604 -0.4807  0.0812
16073W        W20373  14.237   6.640  32.311 -0.4172  0.2093  0.3040
16074W        W20374   8.047   1.948  30.220  0.1924  0.1422  0.2819
16075W        W20375  24.810   7.349   0.155 -0.1112  0.0638 -0.3161
16076W        W20376   6.519   2.503  25.366 -0.1046 -0.0245  0.2155
16077W        W20377  12.253   6.212   3.256 -0.0772  0.0658  0.0855
16078W        W20378  13.502   0.650  26.474 -0.0073  0.0689 -0.0303
16079W        W20379  22.215   7.250   7.877  0.2502 -0.0542 -0.0973
16080W        W20380  23.391   2.267  30.728 -0.0437  0.1768 -0.0816
16081W        W20381  13.761   1.663   7.472  0.0402 -0.5021 -0.0581
16082W        W20382  23.067   5.025   7.513  0.0490  0.3012  0.2047
16083W        W20383   8.457   0.675  27.218  0.2140  0.0188 -0.0712
16084W        W20384  15.391   3.303   4.022 -0.1988 -0.2017  0.0154
16085W        W20385  22.518   4.346  23.144 -0.1515  0.0849  0.1114
16086W        W20386  17.262   0.806   8.878  0.3815 -0.0835 -0.0020
16087W        W20387  13.374   6.919  11.405 -0.2008  0.2778  0.0403
16088W        W20388   7.265   3.762   0.034  0.1216  0.1909  0.1692
16089W        W20389   3.576   7.092   0.494  0.3328 -0.3037  0.2713
16090W        W20390  17.307   3.742  18.338  0.1779 -0.1061 -0.2290
16091W        W20391  22.653   0.079  19.378  0.3550 -0.2050 -0.0091
16092W        W20392  22.355   5.465   5.666  0.1352  0.2278  0.0123
16093W        W20393  24.160   2.018  14.128  0.1838  0.0421 -0.0140
16094W        W20394  16.222   4.684  16.327 -0.0629  0.2640  0.2333
16095W        W20395   8.727   0.172  25.048 -0.0448 -0.2566  0.1944
16096W        W20396   8.521   1.704  25.465  0.1690  0.0140 -0.3309
16097W        W20397   2.374   2.647   9.528  0.0062 -0.3817  0.2204
16098W        W20398  21.723   3.629  26.441  0.0872  0.1567  0.1314
16099W        W20399   3.295   5.292   6.919 -0.0527 -0.0609  0.0631
16100W        W20400  23.600   1.230  10.943  0.0204  0.0763 -0.0259
16101W        W20401   0.245   5.051   2.617 -0.1205 -0.2045  0.0389
16102W        W20402  15.133   1.447   0.523  0.4449  0.2184 -0.1079
16103W        W20403  12.760   3.119  23.270 -0.0380  0.1218 -0.3365
16104W        W20404  17.237   6.387  16.277  0.0318 -0.2847  0.0077
16105W        W20405   9.749   5.003  14.163  0.2076  0.2464 -0.1854
16106W        W20406  23.055   1.925  22.941 -0.1168  0.1101  0.1081
16107W        W20407  15.673   5.175   1.279 -0.1548 -0.0056 -0.0164
16108W        W20408  18.799   6.231   1.863 -0.2613  0.2153  0.0241
16109W        W20409  24.785   3.494   0.693  0.2822  0.0478  0.1418
16110W        W20410   5.359   7.721  28.935 -0.2087 -0.0793  0.2158
16111W        W20411   2.219   7.786  13.168 -0.2025 -0.0874  0.1753
16112W        W20412   4.797   3.882  27.066  0.3423 -0.0214 -0.1858
16113W        W20413   5.216   5.621   9.681 -0.0004  0.4056 -0.0648
16114W        W20414  12.105   0.701  11.289  0.3245 -0.0805 -0.2833
16115W        W20415  22.059   3.629  19.364  0.0223 -0.0134  0.0388
16116W        W20416   1.839   4.008  32.960  0.2250 -0.0150  0.2895
16117W        W20417   1.656   5.680  14.184 -0.2131 -0.0022 -0.1485
16118W        W20418  18.250   3.385   7.895  0.3123  0.0217  0.0209
16119W        W20419   3.464   6.786   8.058 -0.0425  0.0240 -0.2171
16120W        W20420   2.597   4.846  22.385  0.0983  0.0938 -0.3115
16121W        W20421  16.095   6.944  26.481 -0.4121 -0.0908 -0.1506
16122W        W20422  15.472   5.124  16.749 -0.2386  0.0980 -0.2488
16123W        W20423  23.196   4.289  25.386  0.2636 -0.0631 -0.1331
16124W        W20424   6.786   5.918   6.151  0.3546 -0.1663 -0.1786
16125W        W20425   7.568   4.780  16.242 -0.0916  0.0808  0.2836
16126W        W20426  18.186   6.775  27.537  0.0669  0.2304  0.3267
16127W        W20427  18.340   3.447   0.602  0.0486 -0.0574 -0.0251
16128W        W20428  13.138   6.937  19.974  0.0353 -0.2299 -0.1368
16129W        W20429  24.285   1.701  27.581  0.2084 -0.1094 -0.1317
16130W        W20430   7.164   3.998  17.001 -0.0157  0.0073 -0.0338
16131W        W20431   8.985   3.493   2.524 -0.1421 -0.0545 -0.3372
16132W        W20432  14.431   2.932  31.046  0.0422  0.0777  0.3830
16133W        W20433  23.628   7.104  25.954  0.3135 -0.0652  0.1094
16134W        W20434   1.758   0.689  24.787  0.3710  0.0643 -0.0778
16135W        W20435  19.724   0.314   5.123  0.1176  0.0550 -0.0169
16136W        W20436  15.931   0.566   3.787  0.0654 -0.0247 -0.0160
16137W        W20437   7.882   2.212   3.330 -0.1043 -0.0669 -0.2567
16138W        W20438  10.403   5.860   7.325  0.0467  0.0105  0.0499
16139W        W20439   4.763   6.447  29.953  0.3970  0.1251 -0.2547
16140W        W20440  11.297   5.044  25.746 -0.0049 -0.0813  0.0034
16141W        W20441  23.950   0.115  21.341  0.0158  0.2331  0.2353
16142W        W20442   6.761   6.794   9.919  0.0533  0.0955 -0.0845
16143W        W20443  13.112   6.538  22.950  0.0748 -0.0564  0.5533
16144W        W20444  15.459   1.324   4.279  0.0461 -0.1386  0.2354
16145W        W20445   7.756   6.252   5.227  0.1599  0.4924 -0.4870
16146W        W20446  10.392   7.113  23.359 -0.0484 -0.2751  0.0975
16147W        W20447   5.567   3.314  27.261  0.2825 -0.2176 -0.0086
16148W        W20448  16.580   4.298   8.412 -0.2291  0.0652 -0.0337
16149W        W20449  23.298   2.761  25.082  0.1516 -0.3205  0.3959
16150W        W20450  14.232   5.317  32.088 -0.0131 -0.0507 -0.1598
16151W        W20451   9.435   7.055  10.974  0.2313  0.1716  0.3295
16152W        W20452   3.583   1.394   7.555 -0.1153  0.1669 -0.0452
16153W        W20453   0.586   5.059  23.121 -0.0512  0.0081  0.2027
16154W        W20454  15.632   5.651   0.791  0.0520 -0.0557 -0.1711
16155W        W20455  10.840   4.406  22.714  0.1767 -0.4585 -0.2954
16156W        W20456   7.439   4.279  16.244 -0.3964 -0.1515 -0.1149
16157W        W20457   7.289   6.142  25.675 -0.1827  0.0419  0.0588
16158W        W20458   8.913   6.318   3.391  0.0718 -0.3537  0.0352
16159W        W20459  18.079   3.935   1.191  0.3002  0.0653  0.1052
16160W        W20460  10.117   6.645   9.080 -0.0099 -0.1951 -0.3007
16161W        W20461  16.472   4.989  24.444  0.1555 -0.0401 -0.0474
16162W        W20462   7.499   7.330   5.904 -0.1935 -0.1725 -0.1428
16163W        W20463   6.014   7.692  16.753  0.0478  0.1418 -0.1288
16164W        W20464   0.946   6.208  14.012  0.2784  0.1595 -0.1585
16165W        W20465   7.815   7.700   6.399  0.1056 -0.0075  0.3018
16166W        W20466   6.761   3.233   7.671 -0.1679 -0.0515  0.1498
16167W        W20467   3.166   6.367  15.192  0.2097  0.2584  0.1289
16168W        W20468   4.836   4.826   7.607  0.1882 -0.0485  0.0433
16169W        W20469  24.049   0.586  12.598  0.0207  0.0585 -0.0495
16170W        W20470  23.849   5.685   5.665 -0.0229  0.0786 -0.2152
16171W        W20471   9.391   5.831   8.577 -0.2441 -0.0332 -0.2612
16172W        W20472  20.248   1.292  17.023 -0.0952  0.2638  0.1566
16173W        W20473  19.563   7.486   2.403  0.2587 -0.0261  0.2604
16174W        W20474  15.685   1.677  24.492  0.1760 -0.1195  0.1762
16175W        W20475  19.306   7.253  27.093 -0.1645 -0.3234 -0.0045
16176W        W20476   6.181   4.669  16.549  0.1767 -0.0435 -0.2388
16177W        W20477  18.071   3.498  32.429  0.0677 -0.1300 -0.1372
16178W        W20478  14.776   4.964  21.127  0.1369  0.2717 -0.4639
16179W        W20479  12.654   0.473  19.433  0.2105 -0.1550 -0.2155
16180W        W20480  15.078   4.858  16.677  0.0003 -0.2222 -0.1309
16181W        W20481   9.870   6.845   7.517 -0.4588 -0.3033 -0.0318
16182W        W20482   3.665   4.479   2.974 -0.1568 -0.1235 -0.0687
16183W        W20483   0.999   3.526  14.999 -0.0210 -0.1087 -0.2754
16184W        W20484  24.484   0.430  22.575  0.1699 -0.1470  0.1355
16185W        W20485  15.512   1.034   3.185  0.1553 -0.1484 -0.0462
16186W        W20486  19.525   7.147  30.422 -0.5105 -0.2351  0.0162
16187W        W20487  23.772   3.841  28.487 -0.0851  0.1965 -0.2468
16188W        W20488   6.936   1.033  31.176 -0.1203  0.3659  0.0838
16189W        W20489  19.728   3.343  28.199  0.2259 -0.1902 -0.0366
16190W        W20490  15.996   4.236  32.566 -0.1379  0.0324 -0.3080
16191W        W20491  23.756   1.857  30.683 -0.2095  0.2362  0.1626
16192W        W20492   9.018   6.959  24.892 -0.0546 -0.0253  0.1218
16193W        W20493  13.436   4.162  16.100  0.1861  0.1281 -0.0853
16194W        W20494  18.446   5.591   8.799  0.1796 -0.1188  0.1788
16195W        W20495  18.781   3.792  23.057 -0.0079  0.0793 -0.1597
16196W        W20496  19.366   5.271   2.490  0.2571  0.0073  0.2687
16197W        W20497  18.808   1.702  23.818 -0.0008  0.0519  0.1316
16198W        W20498  10.482   5.127  10.574  0.3139  0.0788 -0.0092
16199W        W20499   6.099   2.062  12.203 -0.0794 -0.1626 -0.0853
16200W        W20500  19.533   4.598  18.720 -0.0422  0.2216 -0.3171
16201W        W20501  19.570   1.288  26.406  0.3462  0.0577  0.2054
16202W        W20502  11.253   1.681   1.244  0.0550 -0.0432  0.0628
16203W        W20503  19.719   4.646  22.958 -0.0236 -0.0414 -0.0868
16204W        W20504  21.973   4.990  19.702  0.0521  0.2399 -0.0694
16205W        W20505   8.928   5.748  28.815  0.1047  0.0324 -0.2236
16206W        W20506  18.395   4.318   7.910 -0.3265 -0.3128 -0.1353
16207W        W20507   8.596   1.894   2.959 -0.0442 -0.0061  0.2390
16208W        W20508  22.972   1.757  28.282  0.1101  0.1945 -0.1342
16209W        W20509  12.641   1.579   8.464 -0.0075  0.2210 -0.0408
16210W        W20510   2.413   5.972  31.166 -0.0139  0.2682 -0.3779
16211W        W20511  18.239   6.083   2.723  0.0355 -0.0992 -0.1810
16212W        W20512   2.031   2.583   0.254 -0.1501  0.1878  0.2133
16213W        W20513   0.279   0.660  27.634 -0.3346 -0.0529  0.0176
16214W        W20514  13.561   2.179  19.336 -0.0689 -0.5646  0.3241
16215W        W20515   0.692   1.292  28.790 -0.1073 -0.1240  0.0144
16216W        W20516   5.525   3.762   6.928 -0.0535 -0.2156  0.0646
16217W        W20517  20.674   3.515   0.001  0.0530  0.0562 -0.1618
16218W        W20518  12.651   2.667  22.308 -0.0049  0.3435  0.1157
16219W        W20519   2.763   3.857  30.481 -0.0201  0.3108  0.3650
16220W        W20520  20.131   1.706  27.482 -0.0752 -0.1667 -0.0022
16221W        W20521  14.697   2.373  22.116  0.2437  0.0414 -0.2017
16222W        W20522  17.712   6.645   6.150 -0.1585 -0.3525 -0.1089
16223W        W20523   4.818   0.038  16.041 -0.3974 -0.0568  0.2029
16224W        W20524  23.701   7.183  12.656 -0.2536  0.1526 -0.0408
16225W        W20525   6.873   7.511  25.797  0.0491  0.1831 -0.2295
16226W        W20526  12.576   2.701   4.892 -0.3062 -0.1144  0.0861
16227W        W20527  14.042   4.275  19.605  0.0012  0.1640  0.1396
16228W        W20528  22.971   4.922  23.729  0.0753 -0.3345  0.1964
16229W        W20529  13.826   7.146  28.018  0.1793  0.0464 -0.0333
16230W        W20530   6.261   4.004  12.568 -0.0032  0.0420  0.0765
16231W        W20531   1.693   4.236  16.994 -0.0270  0.3135  0.0159
16232W        W20532   8.943   1.397  31.168 -0.2091 -0.0548 -0.1272
16233W        W20533  15.298   2.495  19.331 -0.1642  0.1664 -0.0026
16234W        W20534  20.848   0.389  18.054 -0.2743  0.2729  0.0562
16235W        W20535  22.467   5.507  28.788  0.2546  0.1880 -0.1395
16236W        W20536   7.848   5.766  14.439  0.1304  0.1075 -0.1318
16237W        W20537  19.258   5.380  19.200 -0.0077  0.0491 -0.1954
16238W        W20538   3.372   6.089   0.677 -0.0358  0.2110 -0.3132
16239W        W20539  23.896   6.286   7.599  0.0784  0.0835 -0.1407
16240W        W20540  21.271   3.143   2.109 -0.1530 -0.2242  0.1631
16241W        W20541  18.198   2.779  24.622  0.1857 -0.0358 -0.0940
16242W        W20542  10.953   7.503  31.347 -0.1624 -0.0950  0.2194
16243W        W20543   4.065   5.723  27.772 -0.3960  0.1882 -0.1497
16244W        W20544   8.772   4.660  24.963  0.2298  0.5167 -0.0400
16245W        W20545   2.496   3.279   0.781  0.0469  0.2478 -0.2017
16246W        W20546  16.781   0.989  17.841  0.4229  0.2941 -0.3417
16247W        W20547   6.804   5.316  31.391 -0.1422 -0.1933  0.4197
16248W        W20548   4.279   7.533   9.494  0.1322 -0.1453  0.0968
16249W        W20549  15.162   0.686  15.563 -0.0180  0.0085  0.1018
16250W        W20550  18.318   5.717  20.746 -0.1382 -0.0942  0.2469
16251W        W20551  13.469   4.858  24.017 -0.0039  0.1648 -0.0132
16252W        W20552   5.469   6.578  29.870 -0.0032 -0.0139  0.0158
16253W        W20553   0.672   3.854  23.601 -0.0167 -0.1740  0.1290
16254W        W20554  22.031   2.325  11.150 -0.3189 -0.0913  0.0556
16255W        W20555   7.004   3.721   6.970  0.2307  0.1404 -0.0875
16256W        W20556  12.546   5.667  24.463  0.1843  0.1541 -0.1106
16257W        W20557  18.791   4.491  24.496 -0.1929 -0.1128 -0.0530
16258W        W20558   8.380   3.140  12.101 -0.0443 -0.1907 -0.0095
16259W        W20559   8.675   5.357  21.831 -0.0926  0.1231  0.0704
16260W        W20560  20.207   6.633  32.823 -0.1006 -0.1527  0.1089
16261W        W20561  20.300   1.618  31.115  0.3609  0.0367 -0.2081
16262W        W20562  20.983   0.496   9.705  0.1601 -0.0377  0.0169
16263W        W20563  20.125   4.357  27.890 -0.0388 -0.0079  0.1138
16264W        W20564  12.533   1.403  27.524 -0.0834  0.1965 -0.2685
16265W        W20565  24.596   7.057  30.778 -0.1074  0.0683 -0.0979
16266W        W20566  24.006   5.787  11.699 -0.0137  0.0336 -0.0946
16267W        W20567  14.842   1.993  28.733 -0.0492 -0.2504 -0.0051
16268W        W20568  20.960   5.735  18.657 -0.0325  0.0944 -0.1392
16269W        W20569  24.012   1.994  31.815  0.2465  0.1929 -0.0441
16270W        W20570  12.094   6.570  19.163 -0.0174 -0.2446  0.1355
16271W        W20571  11.929   1.328   1.761  0.0492  0.0962 -0.0610
16272W        W20572   6.848   1.926   4.219  0.1251 -0.3797 -0.1237
16273W        W20573  14.321   4.293   0.881  0.0465 -0.5184 -0.2259
16274W        W20574  11.492   2.284   5.846  0.2642  0.0202 -0.0300
16275W        W20575   1.887   0.154  28.158 -0.0326 -0.0496  0.0532
16276W        W20576   0.043   6.612   1.347  0.0163 -0.0012  0.1531
16277W        W20577  11.612   7.714   5.601 -0.1610  0.2056 -0.0434
16278W        W20578  15.003   2.275  22.971  0.2149  0.0447 -0.1480
16279W        W20579  22.221   5.323  31.020 -0.2146  0.1505  0.1831
16280W        W20580  18.770   3.078  18.043  0.0229 -0.4097  0.2192
16281W        W20581   4.818   2.116  24.791 -0.1523  0.1753  0.0099
16282W        W20582   1.513   1.056  10.936  0.1905 -0.0246 -0.2652
16283W        W20583  23.552   5.045   3.787 -0.2144  0.0397 -0.0519
16284W        W20584  24.384   6.920  14.051  0.0338  0.1975 -0.1675
16285W        W20585   7.036   5.542  16.034  0.0807  0.0995 -0.0197
16286W        W20586  11.214   6.409   1.398 -0.2016 -0.3561  0.3089
16287W        W20587  23.551   7.055   4.632 -0.3672  0.0142 -0.1106
16288W        W20588   7.512   3.665  12.736 -0.0851 -0.1308  0.0925
16289W        W20589  11.145   3.855  23.291 -0.2012  0.2339 -0.2119
16290W        W20590  18.861   5.691  28.052  0.1571  0.2616 -0.0586
16291W        W20591  19.269   1.284  17.921  0.0448  0.0559  0.1412
16292W        W20592  11.571   5.396   6.521 -0.1734 -0.2489  0.3777
16293W        W20593  11.447   7.647   1.148 -0.0341 -0.2015  0.0117
16294W        W20594   8.887   1.188   4.581 -0.1241  0.1482 -0.1016
16295W        W20595   6.560   1.027   3.145  0.1316  0.0505 -0.0855
16296W        W20596  18.967   6.905  27.465  0.1695  0.0497  0.0604
16297W        W20597  13.955   1.167   3.576  0.0885  0.1270 -0.3304
16298W        W20598  15.322   7.364  31.686 -0.2105 -0.2820 -0.2069
16299W        W20599   4.251   3.929   8.369 -0.0813 -0.0438  0.0527
16300W        W20600   6.582   5.368  13.450  0.0241  0.1596 -0.0393
16301W        W20601  10.725   7.376  26.252  0.1861 -0.0051  0.0904
16302W        W20602   8.559   1.786  11.710 -0.0974 -0.0040 -0.0614
16303W        W20603  15.387   2.413   3.267  0.1794  0.2164 -0.1129
16304W        W20604   7.191   3.574  27.120 -0.0527  0.2503  0.3093
16305W        W20605  12.278   5.478  31.806  0.0505 -0.2453 -0.0421
16306W        W20606  16.328   2.931  20.441  0.1321 -0.0887 -0.0381
16307W        W20607   2.361   3.553   4.204  0.0772  0.0806  0.0078
16308W        W20608  15.983   2.013  32.704  0.1236 -0.1689 -0.0208
16309W        W20609  15.634   3.244   0.731  0.0642 -0.3013  0.1389
16310W        W20610   9.026   4.832  25.414 -0.3099 -0.0309 -0.0487
16311W        W20611  20.429   0.790  19.250  0.2512  0.1139  0.1763
16312W        W20612  18.487   6.923   6.768  0.2738 -0.0395  0.1084
16313W        W20613   4.159   0.171  23.982  0.1962  0.0365 -0.1896
16314W        W20614  11.591   1.504   9.131  0.3362  0.2865 -0.1266
16315W        W20615   5.213   3.604   4.966 -0.2275 -0.1113 -0.1233
16316W        W20616   5.510   7.567  14.070 -0.0819 -0.1644 -0.1597
16317W        W20617  19.052   1.858  28.902 -0.0624 -0.2119  0.0314
16318W        W20618  17.553   0.313   2.851  0.1463 -0.1503 -0.2232
16319W        W20619   3.857   0.510  28.995 -0.4395  0.1097 -0.0951
16320W        W20620  12.641   4.484   1.977 -0.0528 -0.1745  0.1521
16321W        W20621   6.658   3.142  24.639 -0.0389  0.0784  0.0254
16322W        W20622   1.306   0.275  12.632 -0.2218  0.0976  0.0607
16323W        W20623   6.960   2.650   7.133 -0.2428  0.1378  0.2504
16324W        W20624   4.164   1.727  32.316  0.2866 -0.0769 -0.1277
16325W        W20625  23.777   1.903   0.102 -0.1962  0.1140  0.0333
16326W        W20626   0.537   0.235  14.481  0.1900  0.1223 -0.2683
16327W        W20627  12.227   2.164   1.295  0.1164 -0.0685 -0.0692
16328W        W20628   3.539   6.795  16.493  0.0018  0.1578 -0.1174
16329W        W20629   9.644   0.011   2.343 -0.0497 -0.3218  0.2058
16330W        W20630   8.046   0.979   4.808  0.1007  0.0391 -0.2931
16331W        W20631   3.943   5.230  18.196  0.0211  0.0531 -0.1383
16332W        W20632  19.574   5.200   3.263 -0.0607  0.1411  0.1681
16333W        W20633  13.072   2.163  19.454 -0.0718  0.2499 -0.0348
16334W        W20634  10.952   5.337  12.102  0.3541  0.0453  0.3292
16335W        W20635  20.626   4.703   0.918 -0.0725  0.1603 -0.1173
16336W        W20636  18.914   4.731  18.558  0.1162  0.0771 -0.0813
16337W        W20637  12.618   3.147   1.426 -0.1038  0.1861 -0.2335
16338W        W20638  20.235   6.294  16.372  0.2789 -0.1631  0.1452
16339W        W20639  23.609   0.929   6.836 -0.0652 -0.0458  0.1014
16340W        W20640  11.721   0.762   5.018  0.2145  0.0090 -0.1937
16341W        W20641  13.162   5.535  17.566  0.1179 -0.0007 -0.0365
16342W        W20642   0.711   2.238  12.261  0.2374  0.0786 -0.0055
16343W        W20643   6.727   5.224  12.618 -0.0634 -0.0680  0.0589
16344W        W20644   3.658   1.499   9.145  0.3520  0.2094 -0.3482
16345W        W20645  22.290   3.655  27.678 -0.2167 -0.1151  0.0927
16346W        W20646   3.462   3.403   0.463  0.0626  0.1764  0.0920
16347W        W20647   2.230   2.829   6.484  0.0752  0.0344  0.2325
16348W        W20648  14.023   6.972  19.728 -0.0929 -0.3872  0.0920
16349W        W20649  15.755   7.665  18.194  0.2379  0.2975 -0.1334
16350W        W20650   6.792   7.158   4.351 -0.0321 -0.0047  0.4113
16351W        W20651   2.176   4.877   3.630  0.3875  0.0962 -0.2894
16352W        W20652  13.699   3.171   8.190 -0.2315 -0.0042  0.3079
16353W        W20653  10.146   2.296  27.358 -0.0437 -0.0076 -0.0168
16354W        W20654  11.682   0.580  27.137  0.1597 -0.0713  0.1722
16355W        W20655   7.567   6.433  23.878  0.4031 -0.0536 -0.1824
16356W        W20656  18.245   2.529  23.711 -0.1815  0.1403  0.0730
16357W        W20657  12.687   6.118   4.460  0.0344 -0.0950 -0.0616
16358W        W20658  10.286   5.821  19.485  0.1642 -0.4558  0.0328
16359W        W20659   8.651   0.228  27.309 -0.0591 -0.0130  0.0942
16360W        W20660   1.637   2.876  13.033 -0.0801  0.0705  0.0900
16361W        W20661  24.367   5.245   7.081 -0.0555  0.2166  0.0624
16362W        W20662   5.662   5.271   5.184 -0.0287  0.2247  0.2972
16363W        W20663   0.771   3.927  21.720  0.1240  0.0707 -0.1294
16364W        W20664  15.672   6.082  24.200  0.0595  0.0264  0.1295
16365W        W20665  10.462   0.290  32.491 -0.2537 -0.0694 -0.1497
16366W        W20666  16.680   4.574  18.598 -0.0455  0.1274  0.1589
16367W        W20667   9.331   7.538  28.525 -0.0325 -0.1157 -0.1351
16368W        W20668  17.866   2.255  30.266 -0.0810 -0.3484 -0.1331
16369W        W20669   5.482   5.903  24.808 -0.0247 -0.1236  0.5656
16370W        W20670  17.644   5.109  20.871 -0.3313  0.0774 -0.0579
16371W        W20671  21.922   5.747  10.510 -0.2208 -0.0563 -0.0586
16372W        W20672   9.146   7.354  30.148  0.4449 -0.3367 -0.2117
16373W        W20673   3.229   0.970   5.159 -0.0173 -0.1366 -0.0752
16374W        W20674  16.249   2.457   0.533 -0.0979  0.0689  0.2543
16375W        W20675   7.185   0.834  25.613  0.2646  0.1725  0.1990
16376W        W20676  20.301   6.348   8.808  0.0141 -0.2319  0.0202
16377W        W20677   0.311   5.629  10.936  0.1228  0.0583  0.3440
16378W        W20678   8.338   2.231   1.615 -0.0227  0.3048 -0.3055
16379W        W20679  18.901   3.232   2.865  0.0292  0.1638  0.0771
16380W        W20680   2.531   4.916   5.015 -0.0119  0.1091 -0.1892
16381W        W20681  17.770   2.225  26.859 -0.1376 -0.0407  0.0126
16382W        W20682   5.802   6.896  31.436  0.0004  0.0141  0.0951
16383W        W20683  24.257   3.878  14.737  0.1357 -0.1021  0.0210
16384W        W20684   0.769   1.821  10.907  0.0844 -0.1316  0.1374
16385W        W20685   9.235   0.484  27.797 -0.0433 -0.0625  0.1032
16386W        W20686  19.776   0.439  27.597  0.1300  0.2484  0.1211
16387W        W20687  23.437   6.158   2.823  0.3472 -0.4070 -0.2947
16388W        W20688   3.008   4.620  10.246  0.3514  0.1850  0.2313
16389W        W20689  11.005   1.930  32.022  0.4176 -0.1479 -0.1740
16390W        W20690  16.672   7.225  20.654 -0.2950  0.0472 -0.1201
16391W        W20691   3.447   1.819  26.564  0.2399  0.2432 -0.0942
16392W        W20692  14.998   3.281  25.047 -0.2110 -0.2723  0.1609
16393W        W20693  19.008   7.466   0.379 -0.2909  0.1349 -0.0070
16394W        W20694  20.668   2.137   5.717 -0.0561 -0.1027 -0.1594
16395W        W20695  18.217   4.858  28.038 -0.1403  0.0794  0.0923
16396W        W20696   9.892   0.442  25.876 -0.0186  0.2167  0.0600
16397W        W20697   3.106   7.606   2.709 -0.2108  0.1467 -0.1150
16398W        W20698  18.031   4.457  30.716  0.1499  0.1124  0.0205
16399W        W20699   1.706   5.527  22.554 -0.2040  0.2281 -0.2968
16400W        W20700  22.080   5.227  11.143  0.1238 -0.0639 -0.2910
16401W        W20701  19.429   2.377  27.485 -0.0376  0.2130 -0.1043
16402W        W20702  15.463   6.786  29.487 -0.3041 -0.0143  0.0978
16403W        W20703   6.127   6.624  25.018 -0.2195 -0.2674 -0.1999
16404W        W20704  17.869   7.479  14.883  0.3751 -0.0043  0.0703
16405W        W20705  16.946   7.566  10.005 -0.2275 -0.3049  0.1602
16406W        W20706  20.242   7.768   9.708  0.0639 -0.0158  0.2011
16407W        W20707  12.916   4.377  22.961 -0.1351 -0.0970  0.1166
16408W        W20708  21.642   5.954   8.784  0.1157  0.4149  0.1536
16409W        W20709  20.950   4.744  27.619  0.2531 -0.2144 -0.2512
16410W        W20710  24.770   7.650  28.148  0.1040 -0.1076 -0.0253
16411W        W20711  24.179   6.838  25.455  0.2230 -0.0462 -0.1188
16412W        W20712  15.620   3.002  28.555  0.0095 -0.0106 -0.2374
16413W        W20713   6.091   4.050   8.330  0.0278 -0.1505  0.0463
16414W        W20714   3.158   6.462  29.132 -0.2208 -0.0460 -0.0674
16415W        W20715  24.161   1.126   0.020 -0.2328  0.2718  0.3236
16416W        W20716  17.377   3.880  26.184 -0.1779 -0.1203 -0.1343
16417W        W20717   3.270   4.368   3.497  0.0377 -0.0337  0.0070
16418W        W20718  20.283   2.554  28.514 -0.0590 -0.1466 -0.1343
16419W        W20719  19.309   3.765  30.683  0.2749  0.1303 -0.2741
16420W        W20720   7.999   7.339  24.800  0.0279  0.0544 -0.0434
16421W        W20721   1.310   3.252   5.513 -0.0788 -0.1907  0.0567
16422W        W20722  13.072   6.288  20.552  0.2215 -0.0197  0.1977
16423W        W20723  19.425   3.390  26.129  0.0567 -0.0610  0.0378
16424W        W20724   0.408   7.621   0.616 -0.0871  0.2780  0.2784
16425W        W20725   0.685   2.306   9.389  0.0618  0.0971 -0.0676
16426W        W20726  22.858   6.893   0.995  0.0424 -0.1422 -0.2236
16427W        W20727   6.392   4.224  23.672 -0.0095  0.0598 -0.1005
16428W        W20728  24.723   7.477  29.208  0.0643  0.1108  0.1102
16429W        W20729  21.437   0.746  19.508  0.2574  0.1004 -0.1356
16430W        W20730   0.983   0.035  28.051  0.2113  0.0638 -0.0965
16431W        W20731  20.128   6.290  29.376 -0.0587  0.1478  0.2757
16432W        W20732  14.589   1.622  29.873  0.3677  0.0806 -0.1611
16433W        W20733   1.665   3.356  26.598 -0.1661 -0.0642  0.0576
16434W        W20734  11.996   4.386   5.696 -0.0740  0.0355 -0.3758
16435W        W20735   3.464   1.385  23.872 -0.2159 -0.1888 -0.2130
16436W        W20736  19.140   2.480   6.869 -0.0860 -0.0413  0.1775
16437W        W20737   2.195   3.369   6.724 -0.0791  0.0999 -0.0886
16438W        W20738  24.476   0.541  14.844  0.0217 -0.2123 -0.2034
16439W        W20739  13.113   4.298  17.547 -0.1989  0.0809  0.3918
16440W        W20740   8.567   4.695  28.341  0.0420 -0.1693  0.0887
16441W        W20741  24.600   0.396   2.133  0.0376  0.4102 -0.0670
16442W        W20742   0.892   5.824  10.897  0.1023 -0.1021  0.0942
16443W        W20743  15.833   3.102  30.538  0.2929 -0.1385 -0.2748
16444W        W20744   7.770   5.771   2.942  0.0461  0.0197  0.1934
16445W        W20745   2.114   3.401  24.169  0.2753 -0.0810  0.3169
16446W        W20746  13.179   5.975  23.402  0.0470  0.0958  0.0249
16447W        W20747   7.019   7.276  12.393 -0.4996  0.0089  0.0278
16448W        W20748  11.115   6.101  25.301 -0.1233 -0.2249 -0.0627
16449W        W20749  15.476   3.562   7.709 -0.1054  0.1067 -0.2052
16450W        W20750  18.443   4.016  23.391 -0.0079 -0.1365 -0.1391
16451W        W20751  18.820   3.769   6.998  0.0043  0.1177 -0.1858
16452W        W20752  10.924   7.312  20.820  0.0742 -0.1959 -0.0733
16453W        W20753   1.455   1.588   4.917  0.1527 -0.0410  0.0488
16454W        W20754  24.774   2.572   9.056  0.1592 -0.1644 -0.0407
16455W        W20755  20.834   0.714   0.262  0.1420  0.0484  0.0805
16456W        W20756  13.400   3.105  32.317  0.1554  0.1075 -0.1111
16457W        W20757  14.034   7.528  28.904  0.1677  0.0105 -0.0848
16458W        W20758  18.787   1.063  20.519  0.1565 -0.1401 -0.0202
16459W        W20759  15.732   3.217  17.980 -0.2485 -0.1205 -0.2860
16460W        W20760   4.407   7.533  27.105 -0.0174  0.3037  0.1631
16461W        W20761  19.034   2.387  30.309  0.2916 -0.1575  0.0455
16462W        W20762  14.334   7.628  31.992 -0.0077 -0.1516  0.2033
16463W        W20763  16.805   0.237  20.127 -0.1213  0.0687  0.0222
16464W        W20764  13.184   0.935   1.463 -0.1847 -0.3510  0.0347
16465W        W20765  20.836   1.206   0.703  0.0552  0.0450 -0.0630
16466W        W20766  19.759   2.713  31.472  0.0029 -0.0507  0.2138
16467W        W20767  17.355   5.123  16.430  0.3145 -0.0691  0.0432
16468W        W20768  21.419   4.855  32.867 -0.1112  0.0401  0.2351
16469W        W20769   6.249   1.136  22.802 -0.0118 -0.0222  0.0202
16470W        W20770   0.571   7.499   4.078 -0.1891  0.2386 -0.0883
16471W        W20771  10.971   4.755  29.797  0.0722  0.1488  0.0779
16472W        W20772  20.448   4.964  24.353 -0.4898 -0.0545 -0.0992
16473W        W20773  11.121   4.998   6.756 -0.0506 -0.0213  0.2012
16474W        W20774   3.095   1.398   8.760 -0.0930  0.0720  0.0440
16475W        W20775  19.460   3.379  17.719 -0.2471 -0.1247  0.0678
16476W        W20776  18.036   4.129  17.381 -0.1133 -0.0834 -0.1813
16477W        W20777  13.835   0.364  28.201 -0.1185  0.1595 -0.0592
16478W        W20778  15.659   6.296  15.665 -0.0200  0.0920 -0.1584
16479W        W20779  20.194   5.954   6.275 -0.0920  0.0761  0.6331
16480W        W20780   0.888   4.621   7.620 -0.0213 -0.1996 -0.1416
16481W        W20781  17.485   0.931  18.310 -0.1840 -0.0920  0.2251
16482W        W20782   7.746   3.857  30.735  0.2621 -0.1468  0.2546
16483W        W20783   6.409   1.735  15.950 -0.1958  0.2178 -0.0966
16484W        W20784  17.085   1.473   4.758  0.2123 -0.0279  0.0354
16485W        W20785  24.318   2.236   2.345  0.1229  0.0697  0.1849
16486W        W20786  16.030   6.292  21.284  0.1424  0.1102 -0.1517
16487W        W20787  16.976   5.384   3.171  0.1323 -0.0837  0.2660
16488W        W20788  17.008   6.145  22.362  0.1435 -0.0291 -0.0325
16489W        W20789  22.529   4.940  24.476 -0.2604  0.1264  0.0419
16490W        W20790  11.173   6.060  30.444  0.1691  0.0558  0.1174
16491W        W20791  21.864   3.185  28.468 -0.0241 -0.4314 -0.0297
16492W        W20792  18.525   6.343   0.059 -0.0316  0.0251 -0.1851
16493W        W20793  22.288   5.177   1.721 -0.0413  0.0508 -0.0323
16494W        W20794   2.730   5.813  10.879 -0.0665  0.0039  0.3456
16495W        W20795  22.302   3.328   4.136  0.1502 -0.2620 -0.0505
16496W        W20796  15.363   5.952  26.038  0.0608 -0.2252 -0.3639
16497W        W20797  22.987   6.331  26.517  0.0055  0.0752  0.0314
16498W        W20798   8.937   1.691   6.806 -0.3516 -0.1764  0.1160
16499W        W20799   7.345   1.513   3.896  0.0144 -0.1365  0.1801
16500W        W20800  20.569   4.228   1.650  0.4171  0.1392  0.1680
16501W        W20801   6.520   1.335   0.013  0.0657 -0.0082  0.3209
16502W        W20802  17.654   4.370  22.963  0.1072 -0.2506  0.2544
16503W        W20803  18.139   5.707  10.262  0.1029 -0.2670 -0.1052
16504W        W20804  16.499   5.921  19.626  0.3418 -0.0424  0.0408
16505W        W20805  22.950   5.032  22.842 -0.1050  0.0210 -0.0675
16506W        W20806   3.578   0.648  26.108 -0.1174  0.1898  0.0173
16507W        W20807  20.355   7.382  24.841  0.0585  0.1079  0.0686
16508W        W20808   4.586   2.440   1.983 -0.1059  0.1742 -0.0173
16509W        W20809   5.314   5.487   9.178  0.0333 -0.3300 -0.0445
16510W        W20810   8.852   4.600  32.150  0.1003  0.1865 -0.1762
16511W        W20811  15.050   7.461  23.170 -0.0878  0.1209  0.0440
16512W        W20812  22.754   5.925  31.633 -0.0415  0.1835 -0.0924
16513W        W20813   9.645   2.821   5.780 -0.1430  0.1636  0.0468
16514W        W20814   7.209   6.665  26.002  0.0766  0.0618  0.0582
16515W        W20815  19.653   3.150  19.113  0.1258  0.0923  0.1268
16516W        W20816  19.423   2.762   4.276  0.2793 -0.1175 -0.2954
16517W        W20817   2.541   4.076  15.049 -0.0505 -0.1192  0.1952
16518W        W20818  10.355   4.764   8.632  0.0597 -0.0410  0.0070
16519W        W20819  18.457   5.902  19.353  0.0246  0.1290  0.1733
16520W        W20820  20.250   4.473   5.919  0.3364 -0.1755  0.0493
16521W        W20821  11.840   6.662  25.875  0.0884  0.1348 -0.1855
16522W        W20822   9.060   2.550  32.573 -0.1104 -0.2025 -0.2695
16523W        W20823   7.593   0.251  23.138  0.1104  0.2220  0.0378
16524W        W20824  12.071   1.831   1.857  0.0772  0.1283  0.2087
16525W        W20825  22.068   3.390  26.680  0.3922  0.1395 -0.1299
16526W        W20826  22.117   4.099  12.443  0.2682 -0.0844 -0.0915
16527W        W20827  18.720   0.835  32.388  0.1454  0.2332 -0.1664
16528W        W20828   5.724   6.610  11.223 -0.2311  0.1842  0.0257
16529W        W20829  20.006   0.803  26.002  0.2237  0.2724 -0.2286
16530W        W20830  20.550   5.148  10.529  0.1146 -0.1181  0.0150
16531W        W20831  16.618   1.012  31.503  0.1861 -0.1280 -0.1506
16532W        W20832  23.383   5.001   3.163  0.0721  0.0245  0.1199
16533W        W20833  18.817   1.831  30.234 -0.2325  0.0087 -0.3040
16534W        W20834  14.108   3.702  23.495  0.3740 -0.2574  0.1467
16535W        W20835   6.335   2.314  22.521  0.2633  0.3111  0.1147
16536W        W20836   3.284   0.607  31.297  0.2137 -0.3339 -0.2640
16537W        W20837  14.584   0.013   3.277 -0.1714  0.0369 -0.2228
16538W        W20838   5.852   1.986  15.942 -0.1110  0.2377  0.2149
16539W        W20839   5.035   2.336   8.261  0.0973 -0.3890  0.3096
16540W        W20840  14.161   7.435   6.084 -0.1439 -0.1077 -0.2605
16541W        W20841   5.374   0.287   0.207  0.2583  0.1152 -0.0459
16542W        W20842   5.430   4.866  14.961 -0.0893  0.1056  0.3044
16543W        W20843   6.723   6.148   4.139 -0.1382  0.2425  0.0021
16544W        W20844  24.939   0.544  12.362 -0.0028  0.2035 -0.0469
16545W        W20845  11.376   0.589   7.315  0.1403  0.2346  0.2101
16546W        W20846  21.707   2.721   1.158  0.0127  0.2160 -0.3601
16547W        W20847  13.076   6.144  24.777  0.0615  0.2878  0.0975
16548W        W20848  12.757   4.320  22.302  0.4081  0.1928  0.1849
16549W        W20849   5.783   0.176   6.891  0.1227  0.3246  0.1367
16550W        W20850   7.906   1.388   1.832 -0.1921  0.3627  0.1050
16551W        W20851  10.803   3.426   7.458 -0.3421  0.1069  0.0041
16552W        W20852  23.025   1.827  21.541 -0.1941 -0.2010  0.2219
16553W        W20853  11.741   1.922  31.120  0.0636 -0.3542 -0.2223
16554W        W20854  24.565   2.044   8.400  0.1727 -0.1885  0.3385
16555W        W20855  24.737   2.517  22.954  0.2723  0.0444  0.0609
16556W        W20856   0.294   0.804  32.910 -0.1478 -0.0238 -0.3127
16557W        W20857   5.531   1.075  10.536  0.1753  0.2606 -0.1607
16558W        W20858   1.971   3.716  16.092 -0.1385 -0.1917 -0.0929
16559W        W20859   8.689   6.403  30.866  0.0221  0.1255 -0.0247
16560W        W20860   8.257   0.106  14.683 -0.2007 -0.2376  0.3504
16561W        W20861  15.573   1.599   6.529  0.1511  0.1506  0.0976
16562W        W20862  20.972   1.052  25.333  0.3231 -0.1892  0.0682
16563W        W20863  18.121   1.388  23.389  0.0956 -0.2403 -0.0574
16564W        W20864   5.045   0.661  15.604  0.0306  0.2645  0.0093
16565W        W20865  19.061   4.900  30.945  0.2893 -0.0168 -0.2600
16566W        W20866   8.407   3.459  15.092 -0.3541  0.1917 -0.0080
16567W        W20867   7.961   2.287  15.603  0.0560  0.0019  0.0046
16568W        W20868   1.238   3.518  31.853 -0.0342 -0.2530 -0.1027
16569W        W20869  14.836   3.094  27.880  0.0666 -0.0202  0.2441
16570W        W20870  10.312   4.567   5.761  0.1620  0.2567  0.1973
16571W        W20871  24.696   4.971  13.201  0.0732  0.2009  0.1101
16572W        W20872   7.205   6.317   7.891  0.0959  0.1950 -0.2829
16573W        W20873  16.763   2.691  25.566 -0.0569 -0.0057 -0.1793
16574W        W20874   6.878   1.449  23.822  0.1799 -0.0528  0.0486
16575W        W20875  21.076   6.989   7.329 -0.0480  0.0463  0.1666
16576W        W20876  16.496   4.000  30.494 -0.1707 -0.2433  0.2677
16577W        W20877  12.420   6.012   7.344 -0.1235 -0.0474 -0.0721
16578W        W20878  13.391   2.959   3.601  0.3094 -0.1875 -0.0341
16579W        W20879  11.054   4.834   5.844  0.0069  0.0879 -0.0168
16580W        W20880   3.914   2.934   0.186  0.0620  0.0038  0.1585
16581W        W20881  17.960   6.705  20.200 -0.0037 -0.0280  0.3374
16582W        W20882   2.340   5.840  29.630 -0.1712 -0.2602 -0.0150
16583W        W20883  18.677   3.010  15.559 -0.0697 -0.2785 -0.0857
16584W        W20884   9.006   1.404  28.772 -0.2039  0.1470  0.0441
16585W        W20885  10.198   3.090   0.668 -0.2276 -0.1123 -0.2046
16586W        W20886   1.347   5.613  30.300  0.0669  0.0320 -0.1436
16587W        W20887  20.556   4.717  30.980 -0.1296  0.0727 -0.2419
16588W        W20888  12.847   5.697   7.414  0.0104  0.0187  0.3039
16589W        W20889  21.951   2.839   6.167 -0.0275 -0.0126  0.1423
16590W        W20890   9.891   3.114  32.371  0.2152  0.2431  0.1010
16591W        W20891  12.364   1.012  16.442 -0.1573  0.0266 -0.3058
16592W        W20892  20.572   1.944  10.176 -0.1583 -0.2131 -0.0021
16593W        W20893  16.624   7.639  15.504  0.5393 -0.2369 -0.0934
16594W        W20894   0.272   4.124   3.155 -0.0485  0.0449  0.2421
16595W        W20895   3.025   0.910  24.594 -0.3198 -0.1281 -0.0399
16596W        W20896  14.313   0.050   2.381  0.2564  0.1488 -0.1842
16597W        W20897   9.591   7.360   9.184 -0.0356 -0.2103  0.0011
16598W        W20898  11.202   1.785  24.952 -0.1967  0.2790 -0.0402
16599W        W20899  17.222   3.654   8.803 -0.0812 -0.2981 -0.2300
16600W        W20900  16.371   5.362   1.983 -0.1278  0.3833 -0.4547
16601W        W20901  10.460   1.112   5.781  0.1662 -0.1338  0.2156
16602W        W20902  17.822   1.298  15.974  0.1531  0.3239 -0.1400
16603W        W20903  16.863   2.051  19.420  0.0611  0.0807 -0.1134
16604W        W20904   4.150   1.671  27.677  0.0459  0.0110 -0.1862
16605W        W20905   1.379   0.798  30.825 -0.2562 -0.0772 -0.0994
16606W        W20906  23.651   0.498  22.253  0.1214 -0.0217  0.2528
16607W        W20907   7.561   7.579   7.753 -0.0032  0.0823 -0.1609
16608W        W20908   0.036   3.203   0.280  0.0697 -0.0709  0.1757
16609W        W20909   5.670   0.640  11.557  0.1164  0.1428  0.1216
16610W        W20910  11.277   0.550  10.909 -0.1518 -0.0570 -0.2310
16611W        W20911   2.509   2.333  12.807  0.0259  0.3167  0.1682
16612W        W20912  24.665   5.979  29.151  0.0638  0.0326 -0.0237
16613W        W20913  18.109   3.406  28.512 -0.0407  0.1415  0.1112
16614W        W20914   1.297   2.934   6.966  0.1381  0.1351  0.0411
16615W        W20915   4.509   2.395  12.388  0.1821 -0.0038  0.0729
16616W        W20916   4.385   4.814  25.720  0.3525 -0.0904 -0.1367
16617W        W20917   6.720   1.267  22.751  0.0490 -0.1031  0.2783
16618W        W20918   2.601   6.007  14.321  0.2083  0.0781 -0.2384
16619W        W20919   3.685   3.135   6.242  0.0320 -0.1197 -0.0379
16620W        W20920   0.655   1.056   0.110 -0.2490  0.1261 -0.0212
16621W        W20921  22.266   1.468  25.805 -0.0060  0.1964  0.1441
16622W        W20922  24.660   4.615  22.873 -0.3176 -0.0375 -0.1476
16623W        W20923   0.706   7.091  15.101  0.2271 -0.1151  0.0811
16624W        W20924   6.697   3.288  10.261 -0.1243  0.0869 -0.4891
16625W        W20925  18.315   0.623  15.725 -0.1823 -0.2079 -0.0840
16626W        W20926   2.790   3.266  31.055  0.2077 -0.0836 -0.2013
16627W        W20927  22.935   5.200   9.508 -0.0974 -0.0995  0.0429
16628W        W20928  18.065   3.242   6.390  0.0216  0.3831  0.0332
16629W        W20929   5.707   0.289  29.652  0.2772  0.1174  0.1119
16630W        W20930  21.534   4.798  30.588  0.1881  0.3204 -0.0959
16631W        W20931  13.894   0.768  31.159 -0.1082 -0.2466  0.1710
16632W        W20932  23.343   1.552  25.938 -0.1178 -0.1237  0.1117
16633W        W20933   8.993   6.259  11.876 -0.2000  0.0847 -0.0800
16634W        W20934   0.850   3.654   0.606  0.0917 -0.1163 -0.0910
16635W        W20935  10.557   0.092  10.527 -0.1885  0.3014  0.2203
16636W        W20936  16.410   3.635   2.597 -0.1134 -0.0889 -0.0232
16637W        W20937   7.522   7.452  22.220 -0.1680 -0.0270 -0.1069
16638W        W20938   8.818   3.427   3.523 -0.0312 -0.4352 -0.4393
16639W        W20939  21.287   4.611   9.384  0.0699 -0.0450  0.0634
16640W        W20940  22.587   0.867  27.568 -0.0919 -0.0718 -0.1772
16641W        W20941  14.252   0.830  26.916  0.2713 -0.1190 -0.1486
16642W        W20942  20.397   6.754   9.808  0.1977 -0.1135 -0.0260
16643W        W20943  24.243   1.214  22.652 -0.0598  0.0127  0.1322
16644W        W20944  12.932   6.763  19.072 -0.1617 -0.2614 -0.2137
16645W        W20945   8.322   6.687   0.174 -0.1221 -0.0247 -0.0173
16646W        W20946  17.720   1.450   6.586  0.0131 -0.2384  0.2022
16647W        W20947  18.498   2.750  10.076  0.4655  0.1649  0.1596
16648W        W20948  18.886   0.539   6.017  0.1029 -0.0845 -0.0977
16649W        W20949   6.715   3.905  28.331 -0.0367  0.2230  0.0885
16650W        W20950  21.025   1.702   6.227  0.0828  0.0564 -0.2133
16651W        W20951  19.549   1.933  22.858 -0.0318 -0.0830 -0.0328
16652W        W20952  20.478   4.560   5.498 -0.2073  0.0162  0.1469
16653W        W20953   8.459   7.043  22.790 -0.2075  0.0592  0.0472
16654W        W20954  17.644   3.444   8.529 -0.2215 -0.1386 -0.0251
16655W        W20955  10.566   0.828  28.938 -0.0516 -0.0885 -0.2842
16656W        W20956  20.155   5.366  20.101 -0.1929 -0.0198 -0.1602
16657W        W20957  21.563   4.572  23.790  0.0285 -0.0686 -0.2907
16658W        W20958   2.771   2.514  14.255 -0.5751  0.1811 -0.2056
16659W        W20959  11.029   0.390  26.614 -0.0375 -0.1252  0.0042
16660W        W20960  21.200   7.473   7.226 -0.0211  0.4180 -0.2083
16661W        W20961   2.587   4.491  15.415 -0.1025 -0.2703 -0.3881
16662W        W20962  24.133   6.083   5.448 -0.1449  0.0041 -0.2889
16663W        W20963   0.839   2.117  23.189  0.1121  0.1007 -0.1554
16664W        W20964  11.765   0.719  10.866 -0.2896  0.0762  0.0734
16665W        W20965  22.651   1.263  21.900  0.1851  0.2822  0.1071
16666W        W20966  13.892   4.434  30.025 -0.3489  0.0141 -0.0812
16667W        W20967   8.334   2.006  21.598 -0.1418 -0.1827  0.2182
16668W        W20968   6.652   2.933  13.311 -0.3506  0.0081  0.3721
16669W        W20969  23.005   2.230   1.988  0.0640 -0.0783 -0.2815
16670W        W20970   1.046   3.216  16.115 -0.1436  0.0784 -0.2115
16671W        W20971  22.389   4.175   9.790  0.2900  0.1662 -0.1419
16672W        W20972  17.825   0.074  32.869 -0.1390  0.1519 -0.0866
16673W        W20973   0.714   7.460   1.060  0.1580  0.1819 -0.0985
16674W        W20974   5.800   0.300  28.188 -0.1578  0.1573  0.1933
16675W        W20975  11.100   5.180  21.837  0.1860  0.1532 -0.0016
16676W        W20976   8.129   5.735  30.369  0.3312 -0.0167 -0.3131
16677W        W20977  13.946   5.613   2.778 -0.2196 -0.1338  0.0548
16678W        W20978  15.314   5.040  15.390  0.2965  0.0891 -0.1580
16679W        W20979   8.172   4.205  12.174 -0.2742 -0.0308 -0.2427
16680W        W20980   6.403   1.214   1.169 -0.1230 -0.1368 -0.1257
16681W        W20981   5.161   2.417  16.180 -0.2288  0.0439  0.0990
16682W        W20982   1.663   6.208  22.820  0.3408  0.3651  0.0609
16683W        W20983  13.977   1.839   9.898 -0.0237 -0.0418  0.2554
16684W        W20984   2.824   6.012   4.527  0.2339  0.2036 -0.0248
16685W        W20985  16.388   2.842   4.186  0.2986  0.1776 -0.2276
16686W        W20986   1.789   2.271  23.014  0.0430  0.0864  0.0291
16687W        W20987   5.703   7.361  28.499 -0.1853 -0.1063 -0.2755
16688W        W20988  14.203   3.190   6.560  0.0427  0.1462  0.0909
16689W        W20989  23.521   1.269  10.209  0.1025 -0.1977 -0.0250
16690W        W20990  16.735   2.734   9.800 -0.0937  0.1293  0.0892
16691W        W20991  11.529   7.796  30.782  0.1461 -0.0579 -0.1719
16692W        W20992  16.254   7.254  15.626 -0.1651 -0.1915 -0.1966
16693W        W20993   1.848   1.088   7.563  0.1237  0.3170 -0.0309
16694W        W20994   1.007   2.266  11.840  0.0461  0.0237 -0.3459
16695W        W20995  18.764   7.685   2.041  0.0291  0.2109 -0.0939
16696W        W20996   6.476   3.244   8.577  0.0014  0.1845  0.4215
16697W        W20997  13.466   0.254  31.215  0.0960 -0.2448  0.0775
16698W        W20998  21.956   7.270  26.690 -0.1567  0.3388 -0.1847
16699W        W20999  17.716   0.586  27.282  0.3775  0.3212 -0.1303
16700W        W21000   0.533   4.945  10.360 -0.0933  0.1416 -0.1000
16701W        W21001   1.020   0.770  13.868 -0.0712 -0.2352  0.1275
16702W        W21002  10.132   2.595   4.460  0.1624  0.2024  0.2963
16703W        W21003   4.139   3.398   0.325  0.2754 -0.4416  0.1342
16704W        W21004  13.979   3.724  28.578 -0.0626 -0.2620  0.2211
16705W        W21005   7.538   4.932  30.517  0.1076 -0.0484 -0.0590
16706W        W21006  23.026   4.284  24.549  0.0684 -0.1883  0.1544
16707W        W21007   4.052   4.587  11.691  0.0289  0.1618  0.1323
16708W        W21008  12.538   2.644  30.748  0.0033 -0.1937  0.0826
16709W        W21009  17.534   6.250  16.761  0.0572 -0.0838  0.0862
16710W        W21010   7.572   2.701  26.882 -0.0201  0.0999 -0.3509
16711W        W21011   3.398   0.921   6.625  0.1980  0.2218 -0.0189
16712W        W21012  10.114   6.213  14.120  0.0003  0.0586 -0.0197
16713W        W21013   2.654   6.864  31.548  0.0544 -0.1635 -0.1083
16714W        W21014  13.936   6.798  23.336  0.0683  0.1037 -0.2681
16715W        W21015  23.056   7.696  28.508 -0.3356  0.0706  0.0806
16716W        W21016  20.618   1.071  27.198  0.0341  0.1018 -0.0830
16717W        W21017   8.359   3.051  10.358  0.0383 -0.0450 -0.0001
16718W        W21018  16.138   5.992  30.023 -0.2442  0.1875  0.0527
16719W        W21019   7.006   4.864  14.005 -0.1308  0.2605 -0.0624
16720W        W21020  12.957   7.082  25.614 -0.2765  0.0967 -0.1382
16721W        W21021  17.594   0.053  16.707 -0.2769  0.0998 -0.1738
16722W        W21022  13.654   2.247  21.958 -0.1663 -0.0914 -0.2957
16723W        W21023  11.116   3.087   2.162 -0.0341 -0.1883 -0.3183
16724W        W21024  19.074   6.374   4.765  0.2763 -0.2157 -0.3324
16725W        W21025   0.294   5.109  26.976  0.1720  0.1312 -0.0155
16726W        W21026   2.870   2.016  28.761  0.0237  0.1106  0.0187
16727W        W21027  15.726   0.206  17.827  0.0358  0.2548  0.0172
16728W        W21028  24.747   4.153  28.018  0.1020  0.2198  0.3214
16729W        W21029  19.748   0.176   5.671  0.1436 -0.0328  0.2431
16730W        W21030  13.694   6.545  31.508  0.1700  0.3499  0.1335
16731W        W21031  24.206   5.417   9.668 -0.1226  0.2053 -0.1945
16732W        W21032   5.191   3.213  14.712 -0.1058 -0.0853 -0.0898
16733W        W21033  20.219   2.955  28.919  0.0820  0.0223  0.0702
16734W        W21034   6.222   5.496  12.796 -0.1610  0.2172 -0.0397
16735W        W21035  11.912   4.405   3.175 -0.0951 -0.2812  0.1100
16736W        W21036  13.203   7.791  10.275  0.0645  0.2662  0.0283
16737W        W21037   6.703   4.987   6.010  0.0868  0.0302  0.0912
16738W        W21038  15.253   2.603  29.905  0.1818  0.2782 -0.2532
16739W        W21039  15.185   0.507  23.017  0.1375  0.2439  0.1594
16740W        W21040   1.744   6.797   3.461 -0.0147 -0.1656  0.3079
16741W        W21041  12.441   3.577  33.041  0.0739 -0.0655  0.4942
16742W        W21042  13.917   2.125  16.080  0.2574  0.0943  0.0978
16743W        W21043  21.099   2.212   3.044 -0.1779  0.1005  0.4739
16744W        W21044   0.929   4.584  13.519  0.1156  0.3800  0.0505
16745W        W21045  21.568   0.852  10.926 -0.1144 -0.0218 -0.4001
16746W        W21046  23.189   3.640  30.650  0.0322 -0.1231 -0.1491
16747W        W21047  12.149   7.102  28.109  0.2616  0.1289  0.1995
16748W        W21048   5.782   6.513   1.143  0.2089 -0.1685 -0.0491
16749W        W21049  24.297   6.265   1.934  0.0861 -0.1130 -0.2047
16750W        W21050  18.965   6.991  25.050 -0.0119 -0.1503  0.1184
16751W        W21051  13.549   4.229  28.529  0.1979  0.1816  0.2164
16752W        W21052  10.059   2.098   2.270 -0.1408  0.0102  0.1724
16753W        W21053   0.320   3.585  29.140  0.0090  0.1298 -0.1443
16754W        W21054  12.072   5.802  30.090  0.2862 -0.0109 -0.0204
16755W        W21055  22.025   1.122   5.445 -0.2657 -0.1654  0.4386
16756W        W21056  18.674   7.614   4.753  0.0863  0.0862  0.2453
16757W        W21057  15.605   3.746  17.981  0.1268  0.1606  0.2026
16758W        W21058   1.508   6.512  29.037 -0.3108  0.0246 -0.3272
16759W        W21059  14.094   3.023   7.445  0.0626  0.1705  0.2788
16760W        W21060   0.306   1.747   2.463  0.0327  0.0654 -0.2719
16761W        W21061  17.992   3.489  16.006  0.1670 -0.3829  0.1777
16762W        W21062  22.823   1.737  28.870  0.0747 -0.0783 -0.1516
16763W        W21063   6.601   3.730   5.917  0.0914  0.0568  0.0762
16764W        W21064  15.981   5.277  22.531  0.1183  0.1205  0.0875
16765W        W21065   4.160   7.785  16.668 -0.1832 -0.0742  0.0920
16766W        W21066  22.672   4.338  12.269 -0.1391 -0.4805  0.3017
16767W        W21067   5.750   2.837  27.520 -0.1123  0.0406 -0.1661
16768W        W21068  24.825   0.717   5.040 -0.0793  0.0285  0.1445
16769W        W21069  17.469   6.343   6.536 -0.1132 -0.2563 -0.1078
16770W        W21070  22.567   2.435   1.374  0.0749  0.3315  0.1393
16771W        W21071   2.319   0.673  26.495  0.1787 -0.1432  0.0203
16772W        W21072  10.742   6.151  10.507 -0.2081  0.0169  0.2194
16773W        W21073   6.490   4.276   1.429  0.2680 -0.0695 -0.1049
16774W        W21074  11.782   0.260   5.161  0.2383 -0.1098  0.4716
16775W        W21075  16.619   2.294  20.113  0.5262  0.1994 -0.1419
16776W        W21076   7.385   6.873   0.293 -0.0582 -0.0195  0.1314
16777W        W21077   7.689   4.358  15.823 -0.0685  0.0114 -0.0653
16778W        W21078  21.883   4.035  27.672 -0.1186 -0.0687  0.1109
16779W        W21079  18.644   7.271  23.027 -0.1150  0.0666 -0.1166
16780W        W21080   7.232   7.611   3.462  0.0284  0.0398  0.1101
16781W        W21081  16.263   5.905   7.716 -0.1833  0.1171 -0.4996
16782W        W21082   6.922   6.545  10.679  0.0003  0.0313  0.0188
16783W        W21083  13.445   5.935   6.664  0.2391 -0.1751 -0.2935
16784W        W21084   9.559   5.577  10.499 -0.0110 -0.2486 -0.0673
16785W        W21085  11.873   7.739  26.883  0.0657 -0.0468 -0.1446
16786W        W21086   0.539   7.075   6.211  0.2084 -0.1503 -0.2891
16787W        W21087  10.328   5.984   3.637  0.0567  0.2237  0.3218
16788W        W21088   5.440   3.853  13.198 -0.2421 -0.1083  0.3722
16789W        W21089  18.337   4.757  32.871  0.0035 -0.1139 -0.0433
16790W        W21090   2.354   1.154  32.503 -0.0746  0.0159 -0.1432
16791W        W21091   9.953   0.999  21.079  0.2019 -0.1673 -0.0338
16792W        W21092   9.701   1.055   0.825 -0.4144 -0.0904 -0.1172
16793W        W21093  17.730   2.925   7.301 -0.2207 -0.1159 -0.1812
16794W        W21094  22.275   1.201  12.448 -0.0974  0.0081  0.4084
16795W        W21095  13.134   6.783   5.479 -0.5766 -0.2765 -0.1124
16796W        W21096  17.227   2.182  18.918  0.0430 -0.1914 -0.2926
16797W        W21097  24.115   6.698   7.358 -0.2284  0.2276  0.1703
16798W        W21098   2.552   4.778  24.537 -0.1038 -0.0599 -0.3032
16799W        W21099   2.115   1.748   8.819  0.0372  0.1256  0.2609
16800W        W21100  12.114   7.698  28.998 -0.1737 -0.0378 -0.0157
16801W        W21101   3.080   2.395   6.636 -0.0499  0.0564  0.1967
16802W        W21102  13.870   4.277   3.046 -0.1898 -0.0315  0.2542
16803W        W21103  14.978   0.402   1.322 -0.3241 -0.2032  0.0756
16804W        W21104  12.601   5.947   6.845 -0.2999 -0.2830  0.0379
16805W        W21105  24.339   0.911   8.467 -0.2668  0.0113 -0.4256
16806W        W21106  13.974   6.081   5.662 -0.0749 -0.0944  0.0114
16807W        W21107  20.781   7.345   0.690  0.1440 -0.0628  0.0172
16808W        W21108   3.186   0.562   7.581 -0.0673  0.1376 -0.1835
16809W        W21109  17.048   5.030   1.390 -0.3961 -0.0767 -0.2550
16810W        W21110   2.705   7.153  12.021  0.0116  0.2045  0.2595
16811W        W21111   1.328   3.448  25.996  0.1454 -0.0103 -0.0378
16812W        W21112  21.938   1.495   0.067 -0.0920  0.0025  0.1270
16813W        W21113  13.385   6.855  23.611  0.1322  0.4223 -0.1652
16814W        W21114  12.543   6.958  21.111 -0.2072  0.2664 -0.1403
16815W        W21115  16.725   7.794  27.232  0.0014  0.0974  0.1466
16816W        W21116  18.439   7.061   3.517 -0.1476 -0.2240  0.4192
16817W        W21117   2.470   2.716  27.619 -0.2499 -0.3465 -0.2843
16818W        W21118  19.911   5.026  25.119 -0.2304  0.2981 -0.3456
16819W        W21119  13.701   4.163  28.977 -0.0798  0.1835 -0.3593
16820W        W21120  20.165   0.214   9.151 -0.0894  0.1151 -0.1552
16821W        W21121  24.530   6.733   5.963  0.1754 -0.0638 -0.1104
16822W        W21122   6.871   3.183   7.123  0.1042  0.2035 -0.1666
16823W        W21123  22.453   1.532  25.158 -0.0496  0.2703  0.1935
16824W        W21124  17.702   3.381   2.570  0.0171  0.1151  0.1330
16825W        W21125   9.037   0.868  12.629 -0.1273  0.1759  0.1949
16826W        W21126   9.973   5.827  11.777 -0.2063  0.0608  0.2976
16827W        W21127  21.026   3.684  29.511 -0.1887 -0.1000  0.3120
16828W        W21128   9.548   7.045  12.889  0.1398  0.1361  0.0110
16829W        W21129   3.428   6.640   0.960  0.1108 -0.0448 -0.0980
16830W        W21130   5.691   2.315  32.839 -0.0666 -0.1129  0.1174
16831W        W21131   7.454   3.877   2.158  0.0316 -0.2210  0.3772
16832W        W21132   0.735   2.352  30.977  0.0540 -0.1050  0.0204
16833W        W21133  20.410   0.337  16.948  0.2591 -0.1377 -0.1538
16834W        W21134  24.749   0.476   4.446 -0.1154 -0.0577 -0.1440
16835W        W21135  20.596   2.517  30.582 -0.0297  0.4434 -0.0037
16836W        W21136  14.808   3.934   5.150  0.1348 -0.0925 -0.1706
16837W        W21137  22.905   2.361  29.393 -0.1261  0.1506  0.0069
16838W        W21138  18.158   0.511  21.974  0.0574 -0.1664 -0.0433
16839W        W21139   2.910   0.737   1.068  0.3047 -0.0960  0.0601
16840W        W21140  23.891   6.356   3.231  0.1227  0.0374 -0.2125
16841W        W21141   7.240   0.562  10.701 -0.0665  0.2317  0.1729
16842W        W21142  24.538   5.180   7.779  0.2651 -0.2003 -0.0776
16843W        W21143   1.555   3.212  11.061 -0.3282  0.0658  0.1156
16844W        W21144   3.430   7.724   3.737 -0.1961 -0.1950  0.1674
16845W        W21145  20.661   0.015   0.700  0.0156  0.0904 -0.0808
16846W        W21146   4.758   6.895  27.213  0.0199 -0.0044 -0.2101
16847W        W21147   0.362   0.492  14.120 -0.0259 -0.2588  0.0327
16848W        W21148  24.302   2.659  27.767  0.2000 -0.0297  0.0178
16849W        W21149  19.109   0.786   1.651  0.0330  0.1401 -0.2266
16850W        W21150  16.086   1.432  19.308  0.4459  0.1133 -0.2581
16851W        W21151  16.818   5.827  29.474 -0.0095  0.0477 -0.0348
16852W        W21152   2.134   2.490   8.174 -0.1937  0.0565 -0.2096
16853W        W21153  18.818   7.472  23.770  0.2555 -0.0765  0.0996
16854W        W21154  19.395   7.040  11.052 -0.0378 -0.2343  0.0182
16855W        W21155  21.464   4.205   2.721  0.1759 -0.0063  0.1244
16856W        W21156   0.766   5.870   2.291 -0.0759 -0.1488 -0.0147
16857W        W21157  16.711   4.743  19.095 -0.1335  0.0343 -0.0896
16858W        W21158   3.280   4.782   9.863  0.1487  0.0471 -0.3114
16859W        W21159  10.634   0.320   1.453 -0.0420  0.0664  0.0367
16860W        W21160   3.144   3.600   9.267  0.2395  0.0948  0.0905
16861W        W21161  10.005   6.687  28.733 -0.0024  0.1631  0.0436
16862W        W21162   2.839   5.916   7.249 -0.0473 -0.1472  0.1184
16863W        W21163   0.371   7.270  11.256 -0.2361  0.2726  0.0964
16864W        W21164   9.895   7.009  12.529 -0.0862  0.0188  0.0938
16865W        W21165  13.340   1.019   0.363 -0.1517  0.0771  0.0840
16866W        W21166  14.029   0.525   2.410 -0.0069 -0.0210 -0.1611
16867W        W21167  23.134   2.021   9.967 -0.1474  0.1428 -0.0117
16868W        W21168   0.208   6.422   9.775  0.2298  0.1416  0.1984
16869W        W21169  19.204   0.931  17.516 -0.0535  0.0247  0.0327
16870W        W21170  12.045   2.040   0.748 -0.1857  0.0976 -0.2305
16871W        W21171  10.413   3.099   3.303 -0.1800 -0.5412 -0.2734
16872W        W21172  17.725   7.039  24.724  0.1450 -0.0325  0.1638
16873W        W21173   6.948   3.216  11.339 -0.0224 -0.0299  0.0942
16874W        W21174  19.309   4.030   3.556  0.0163  0.1770  0.0246
16875W        W21175   3.646   1.197  25.227 -0.1110 -0.2746  0.0572
16876W        W21176  14.317   5.832  26.073  0.0077  0.0668 -0.0264
16877W        W21177   9.124   4.028  22.605 -0.2414  0.2867 -0.2550
16878W        W21178  12.573   0.648  22.153 -0.3874  0.1539  0.2153
16879W        W21179   1.886   3.620  13.217 -0.1732 -0.1580 -0.0067
16880W        W21180   6.295   2.392  12.470  0.0704 -0.3224 -0.2640
16881W        W21181   2.339   5.209  10.690 -0.0927  0.1134  0.0963
16882W        W21182  16.286   0.652   0.769 -0.0714 -0.2237  0.1409
16883W        W21183   2.523   0.072   9.899 -0.1635  0.1232 -0.0803
16884W        W21184  16.684   6.566  17.758 -0.1859  0.0176  0.1208
16885W        W21185  17.376   4.568  17.046  0.1979 -0.1627 -0.1237
16886W        W21186   7.600   7.285   3.124 -0.0579  0.0221  0.4399
16887W        W21187  13.122   3.980  28.464  0.0903 -0.0429  0.1296
16888W        W21188  21.770   5.694  26.144  0.2874 -0.0090  0.2924
16889W        W21189  10.503   1.814  26.149  0.0534  0.0828 -0.1711
16890W        W21190  10.489   5.526  31.372  0.0772 -0.0351 -0.4470
16891W        W21191   0.268   3.800   0.852  0.0577 -0.1027  0.0092
16892W        W21192  20.023   7.226  28.722  0.1322  0.4158  0.0801
16893W        W21193  15.575   1.357  20.008  0.0614  0.3055 -0.0445
16894W        W21194  15.381   5.687   1.231  0.1089  0.1950  0.0228
16895W        W21195   4.213   0.440   3.229 -0.0025 -0.2289  0.0996
16896W        W21196  12.464   4.319   6.507  0.1731 -0.0647 -0.2870
16897W        W21197   4.463   1.325  10.416  0.0314 -0.2060  0.1298
16898W        W21198  18.299   6.177   6.099  0.3499  0.0123  0.1224
16899W        W21199   0.007   7.789   8.459 -0.0216  0.0590  0.3791
16900W        W21200  14.353   5.835  27.231 -0.0017 -0.2172 -0.0832
16901W        W21201   9.153   0.325   7.682 -0.2114 -0.0559 -0.1216
16902W        W21202  17.133   1.725   1.069 -0.1268  0.1601  0.2789
16903W        W21203   6.028   6.730  15.339  0.3635 -0.2342  0.2181
16904W        W21204   1.520   3.900  26.226  0.3181 -0.2473  0.0577
16905W        W21205  15.195   1.302  22.471 -0.1149 -0.1114  0.0109
16906W        W21206   3.172   0.922  25.334 -0.2389  0.1017  0.1687
16907W        W21207  20.345   4.986  31.395  0.0944 -0.0419 -0.0934
16908W        W21208   3.293   6.448   2.604  0.2023 -0.2143  0.1672
16909W        W21209  20.215   0.647   2.864  0.0985  0.0611 -0.1054
16910W        W21210   4.080   2.267  31.586  0.2016  0.0960  0.0855
16911W        W21211   0.317   1.396   0.764 -0.1175  0.0037 -0.1563
16912W        W21212  13.454   4.112   5.826  0.1627 -0.1796 -0.1969
16913W        W21213   7.269   4.756   1.023 -0.1575  0.1246  0.0756
16914W        W21214  16.780   4.351  26.819 -0.0470 -0.1930  0.1497
16915W        W21215   7.193   2.412   9.534  0.2125 -0.0130  0.4261
16916W        W21216  15.233   5.845  31.241 -0.1536  0.0460 -0.1924
16917W        W21217  19.543   2.640  19.445 -0.2296  0.1434 -0.0890
16918W        W21218  10.200   7.413  23.727 -0.0911  0.0007  0.2125
16919W        W21219  12.670   0.773   4.847 -0.1307 -0.1745 -0.4592
16920W        W21220  11.240   5.080  20.686  0.2594  0.0059  0.2642
16921W        W21221  15.407   0.888   7.192 -0.2528  0.0411  0.2222
16922W        W21222  18.389   7.792  25.931 -0.0712  0.0599 -0.0971
16923W        W21223   2.783   1.245   9.229 -0.1035  0.1698 -0.0241
16924W        W21224  15.329   4.673  25.067 -0.0420 -0.2390  0.2194
16925W        W21225   2.345   1.599   6.656  0.2429 -0.1810  0.0611
16926W        W21226  14.996   5.641  29.229  0.0306 -0.1651 -0.0824
16927W        W21227  13.784   7.319   4.768 -0.2030 -0.1255  0.2550
16928W        W21228   1.614   1.419   1.916  0.0092 -0.0398 -0.0034
16929W        W21229   5.875   2.297  23.757  0.1098 -0.2963 -0.1572
16930W        W21230  20.963   4.400   5.520  0.0073  0.0208  0.0684
16931W        W21231   2.657   3.405  28.323  0.1423 -0.1916  0.2815
16932W        W21232   2.782   4.659  22.976  0.1498 -0.1441  0.4133
16933W        W21233  19.737   0.332  24.914 -0.0907  0.0889 -0.3285
16934W        W21234   9.132   6.492  24.822  0.2593  0.2123 -0.4692
16935W        W21235  24.216   5.911   2.793  0.0204  0.1489 -0.3613
16936W        W21236   4.667   2.939   9.945 -0.1767  0.0226  0.2212
16937W        W21237  17.991   3.413   7.483  0.2894 -0.1153 -0.0747
16938W        W21238  20.276   1.805  20.688  0.0087  0.1283 -0.0687
16939W        W21239  24.218   1.610  23.831 -0.3671  0.4388  0.1408
16940W        W21240   4.393   5.863  32.182  0.0045 -0.1771  0.0081
16941W        W21241  24.524   2.893  10.385  0.1010 -0.0830  0.0030
16942W        W21242   0.180   4.759  32.340 -0.0883  0.1385  0.1022
16943W        W21243   6.133   1.888  12.670 -0.2191  0.2885 -0.2319
16944W        W21244  23.458   3.057  10.310  0.1619  0.1054 -0.0020
16945W        W21245   6.741   6.160   9.823  0.1932 -0.1356  0.1025
16946W        W21246  20.534   5.972   8.672  0.0375  0.4571 -0.0351
16947W        W21247  20.425   5.034   8.208  0.2892 -0.1521  0.0159
16948W        W21248  14.091   7.232  23.187  0.1692 -0.0144  0.2088
16949W        W21249  20.268   6.154   0.999  0.1302 -0.0681 -0.1070
16950W        W21250   8.198   4.042   8.339 -0.0126 -0.0911 -0.2369
16951W        W21251  11.330   2.606   7.305  0.2656  0.2359 -0.1111
16952W        W21252   6.901   2.850  32.342 -0.0155  0.0068 -0.0914
16953W        W21253   1.832   5.200   1.551  0.0406  0.1733  0.2030
16954W        W21254  18.618   0.168  21.728 -0.3576 -0.0721  0.1469
16955W        W21255   1.978   3.110   0.886  0.2555 -0.0786  0.0102
16956W        W21256  23.280   5.524  12.250 -0.3460 -0.0191 -0.1883
16957W        W21257   1.641   7.473  15.930  0.3785  0.0424 -0.3606
16958W        W21258   3.163   4.488  26.562 -0.0824  0.2009  0.2112
16959W        W21259  11.227   7.061  10.703 -0.1163 -0.1924  0.0029
16960W        W21260  14.780   6.746  10.211 -0.0974 -0.0983 -0.0520
16961W        W21261   7.592   0.675  26.671  0.4015  0.0545  0.4079
16962W        W21262  24.449   2.616  30.655 -0.1652  0.2327 -0.1776
16963W        W21263   4.552   4.491  13.576  0.1422  0.0756  0.1157
16964W        W21264   8.396   5.457   9.319  0.3367  0.1959  0.0745
16965W        W21265  14.198   6.842   1.580  0.2012  0.0288  0.3390
16966W        W21266  11.825   6.447   6.617 -0.2094 -0.3101 -0.0054
16967W        W21267  22.047   7.488  26.087  0.0328  0.1137 -0.2509
16968W        W21268  22.642   6.261  27.112 -0.1511 -0.1010 -0.2770
16969W        W21269  13.469   2.423  18.378  0.0799  0.1696 -0.2709
16970W        W21270   7.863   5.757  16.233 -0.1138  0.1339 -0.1223
16971W        W21271   2.157   7.616  26.158 -0.0231  0.0286 -0.0711
16972W        W21272   3.430   6.380  22.415 -0.2308 -0.4072 -0.3259
16973W        W21273   4.839   1.246  27.103  0.1352  0.0877  0.0884
16974W        W21274   4.850   6.751  10.729 -0.1450  0.0397 -0.0429
16975W        W21275  23.401   7.307   2.457 -0.1826  0.1476 -0.0104
16976W        W21276   2.730   3.693  16.002 -0.3152 -0.0450 -0.2471
16977W        W21277   7.391   0.951   8.227 -0.3576 -0.0267  0.0700
16978W        W21278  24.615   7.317  32.718  0.0110 -0.0492 -0.0463
16979W        W21279   4.740   6.862   4.680  0.1416 -0.0639 -0.0371
16980W        W21280   3.776   5.523  32.479 -0.0595 -0.1031 -0.3121
16981W        W21281  17.672   7.750  24.187 -0.0444 -0.0382  0.0967
16982W        W21282   0.969   5.500  21.373 -0.3354  0.0567 -0.0813
16983W        W21283  19.468   0.065  19.152  0.0018  0.0973  0.0435
16984W        W21284  18.136   3.892  28.047 -0.1105 -0.2426  0.0857
16985W        W21285   2.195   3.261  11.745 -0.0033  0.0251 -0.1238
16986W        W21286  15.290   2.900   9.448  0.0509 -0.1431 -0.0499
16987W        W21287  22.650   2.292   5.056  0.1453  0.3938  0.0947
16988W        W21288  10.289   6.383  21.216 -0.3840  0.0822  0.0615
16989W        W21289  21.323   5.888   7.792 -0.3290 -0.1344 -0.4016
16990W        W21290   5.432   3.066   5.849 -0.1737  0.1199 -0.0689
16991W        W21291   0.285   6.780   7.721  0.1722  0.0118  0.1388
16992W        W21292  22.415   1.979  28.544 -0.2689  0.0384  0.1444
16993W        W21293   4.097   4.260   3.061  0.0720  0.1556  0.2901
16994W        W21294  14.949   2.614   6.479  0.0263  0.1514 -0.0185
16995W        W21295  18.374   3.196  15.932 -0.0532 -0.3401 -0.4419
16996W        W21296   7.681   0.922   1.773 -0.0262  0.2560  0.1160
16997W        W21297  18.788   4.598  29.649 -0.1709  0.1614  0.0796
16998W        W21298   7.841   3.159  24.656  0.1211 -0.0854 -0.2276
16999W        W21299  11.396   4.795  10.523  0.2679 -0.2296 -0.2295
17000W        W21300  10.263   3.044  12.088 -0.3100  0.2863 -0.0021
17001W        W21301   9.988   7.176  32.225  0.3594 -0.0642 -0.0918
17002W        W21302   4.569   4.690  10.961  0.2266 -0.1461 -0.0044
17003W        W21303   6.588   6.484   9.502  0.1565 -0.3483  0.1169
17004W        W21304   4.199   2.761   1.429  0.1049  0.0849  0.3110
17005W        W21305   4.095   2.659  10.363  0.1159 -0.3212  0.0547
17006W        W21306  21.464   2.874   3.710  0.2145  0.2345  0.1487
17007W        W21307  14.682   1.063  23.293  0.0030 -0.0615 -0.0237
17008W        W21308  18.927   7.432   8.539 -0.0731 -0.2204 -0.1868
17009W        W21309   5.646   3.823   4.887  0.1256  0.0956 -0.1049
17010W        W21310  10.675   2.620   1.467 -0.0381  0.0573  0.1015
17011W        W21311   7.470   4.814  14.189  0.3287 -0.0778 -0.1588
17012W        W21312   8.132   3.593  22.580 -0.0354 -0.0309 -0.1201
17013W        W21313  10.296   5.277  21.705  0.1410 -0.1286  0.0739
17014W        W21314  24.811   4.257   5.122 -0.0248  0.1726 -0.0406
17015W        W21315   2.524   7.800   9.413 -0.1437  0.1386  0.0724
17016W        W21316  23.567   4.465   6.150 -0.5348  0.0350  0.0283
17017W        W21317  24.215   7.703  13.348  0.1835  0.2707  0.3255
17018W        W21318  15.570   6.561   1.984  0.1907 -0.0678 -0.1321
17019W        W21319   0.056   0.883  31.051  0.2302  0.2233  0.1050
17020W        W21320   6.091   0.728  23.731  0.2269 -0.2989  0.2784
17021W        W21321  19.648   2.101  19.485  0.0165 -0.1364  0.0806
17022W        W21322   7.137   1.097  23.384  0.0678  0.3531  0.0754
17023W        W21323  19.745   4.195  19.655  0.1845  0.1875 -0.0014
17024W        W21324   9.866   1.576  21.123  0.1030  0.0173 -0.1455
17025W        W21325  23.649   3.195   7.793  0.1098 -0.1727  0.0206
17026W        W21326   6.245   6.441  17.497 -0.1553 -0.4402  0.1823
17027W        W21327  20.471   3.944   6.112  0.2961  0.0305 -0.0122
17028W        W21328   2.170   7.611  29.854 -0.1440 -0.0190  0.0135
17029W        W21329  13.506   4.730  27.723  0.2313 -0.1525  0.3643
17030W        W21330  24.616   0.186   4.886 -0.2308  0.3588  0.2439
17031W        W21331   5.322   7.307   3.999 -0.2022  0.1202  0.0157
17032W        W21332  15.344   2.549   0.061  0.0466  0.1463  0.0040
17033W        W21333   6.524   3.203  17.932  0.2321  0.0997 -0.0095
17034W        W21334   7.874   2.938   2.835 -0.1991  0.1501  0.1873
17035W        W21335   0.007   0.440   6.967  0.1445 -0.0254 -0.0260
17036W        W21336   1.448   4.487   8.409  0.1548 -0.1545  0.0795
17037W        W21337   3.618   0.670  32.879 -0.4103  0.1136 -0.1500
17038W        W21338  13.823   1.358  24.321  0.2554 -0.0346 -0.1302
17039W        W21339   0.915   2.824  15.683 -0.0074  0.2053  0.1268
17040W        W21340   3.005   3.905   7.796 -0.0712  0.0783  0.0207
17041W        W21341   7.201   5.452  15.145  0.0253  0.0220 -0.2301
17042W        W21342   3.692   1.365  11.080 -0.0150  0.3308  0.0659
17043W        W21343  11.402   6.727   1.014  0.1653 -0.2276 -0.1586
17044W        W21344   1.327   7.180   4.337 -0.0987 -0.0590 -0.0285
17045W        W21345  16.596   0.851  20.878  0.1465 -0.0446 -0.0950
17046W        W21346  19.849   5.487   7.005  0.1457  0.0529 -0.4403
17047W        W21347   1.389   2.999  31.511 -0.0137 -0.0704 -0.2238
17048W        W21348  20.537   7.426  16.646  0.0423 -0.0021 -0.2138
17049W        W21349  14.709   3.361   8.596 -0.0035 -0.1136  0.3628
17050W        W21350   5.302   4.721   3.058  0.0880  0.2458  0.0398
17051W        W21351   2.975   5.114   9.078 -0.0474  0.1405  0.3830
17052W        W21352  12.487   6.801  19.971 -0.3843  0.2111  0.3379
17053W        W21353  17.124   5.696  23.111  0.0272  0.0622 -0.0668
17054W        W21354   6.681   5.797   1.525 -0.0341 -0.0228 -0.2517
17055W        W21355  21.501   3.124  21.414  0.2856  0.0917  0.1334
17056W        W21356   3.024   6.224  10.823 -0.4472 -0.1773  0.0226
17057W        W21357  21.200   1.251  21.249  0.1803  0.0919 -0.1338
17058W        W21358  17.828   3.692  25.411  0.2354 -0.1729 -0.3707
17059W        W21359   9.223   1.388   2.355  0.0042 -0.1005 -0.0435
17060W        W21360  10.514   1.222  31.073  0.1641  0.0251  0.1022
17061W        W21361   6.573   2.626   9.341 -0.0255 -0.1453 -0.0425
17062W        W21362  15.203   5.064  17.185  0.1388  0.0777  0.1615
17063W        W21363  10.015   0.044  26.632  0.3788 -0.0610  0.2076
17064W        W21364   2.380   7.698  11.413 -0.2096 -0.1093 -0.0158
17065W        W21365  13.768   5.644  17.306  0.0782 -0.1669 -0.1719
17066W        W21366  11.141   0.872  10.509 -0.0519  0.2783  0.1022
17067W        W21367  22.898   4.126  13.232 -0.1244 -0.3401 -0.0797
17068W        W21368  18.417   4.781   8.180  0.1962  0.5424  0.2572
17069W        W21369  12.279   1.248   8.822 -0.0430  0.0181  0.2745
17070W        W21370   1.423   4.756   2.757 -0.0749 -0.1246  0.0538
17071W        W21371  19.193   4.990   9.958  0.1504 -0.0221 -0.0879
17072W        W21372  12.647   5.347  25.218 -0.2291 -0.2601  0.0109
17073W        W21373   9.882   5.852  10.781  0.0723  0.0773 -0.3202
17074W        W21374   6.982   2.280  29.417  0.0721  0.1530 -0.0210
17075W        W21375   9.850   5.375   7.250 -0.1581 -0.3289 -0.0342
17076W        W21376  19.227   7.681   0.798  0.1667 -0.1600  0.1014
17077W        W21377  14.065   5.996  24.509  0.0260 -0.2470  0.0221
17078W        W21378  11.237   3.246   4.781 -0.1716  0.0471 -0.0163
17079W        W21379  14.046   2.768   7.907  0.2915  0.1695  0.1768
17080W        W21380  24.856   2.409   0.905  0.1923 -0.4272 -0.1118
17081W        W21381  23.029   0.421  25.263 -0.1525 -0.0569 -0.0664
17082W        W21382  19.149   1.523  31.166 -0.0826 -0.1143 -0.1305
17083W        W21383  21.449   2.671  26.870 -0.2270  0.0934  0.1372
17084W        W21384   0.068   5.949   0.166 -0.1817  0.0771  0.2398
17085W        W21385  13.184   4.062  18.684  0.0762 -0.1526  0.2256
17086W        W21386   7.181   4.127  28.318 -0.0200  0.0175 -0.2455
17087W        W21387   5.500   3.890  31.020 -0.0571 -0.1156 -0.2098
17088W        W21388   2.479   0.251  11.067 -0.0818 -0.1348 -0.0237
17089W        W21389   0.670   2.820  13.530  0.2273  0.2566  0.0139
17090W        W21390  17.701   7.407   8.948 -0.2513  0.3188 -0.0059
17091W        W21391  16.076   7.342  21.079  0.0970  0.1298 -0.1974
17092W        W21392  22.160   4.238   2.670 -0.1813 -0.2205 -0.0216
17093W        W21393  13.059   3.579   3.427  0.0222  0.1430 -0.0427
17094W        W21394  23.270   1.316  20.827  0.3799 -0.0154 -0.1662
17095W        W21395   3.420   1.268  29.540 -0.0894  0.2618  0.0960
17096W        W21396  10.052   4.928  26.742 -0.1819  0.0438  0.3464
17097W        W21397  19.372   1.141  23.457  0.0678 -0.0881  0.2129
17098W        W21398   3.842   4.145  28.475 -0.0076 -0.0994 -0.0706
17099W        W21399   3.049   3.118   2.151 -0.0145  0.0962  0.0291
17100W        W21400  20.095   7.558  11.456 -0.0332  0.1159 -0.0047
17101W        W21401   4.534   1.646  30.040  0.1549  0.0716  0.2285
17102W        W21402  10.190   6.278   7.804  0.1450 -0.2635 -0.0982
17103W        W21403   7.173   0.394  29.328 -0.1835  0.1147 -0.1948
17104W        W21404  24.326   4.959  26.808  0.0847  0.3414  0.0973
17105W        W21405   9.115   1.106  28.398  0.1839 -0.1261 -0.3482
17106W        W21406  19.754   5.577   9.992  0.1469 -0.0744  0.2149
17107W        W21407  15.794   6.589  25.650  0.0248  0.0830  0.1109
17108W        W21408   4.386   0.180  24.892  0.2439  0.0900  0.1022
17109W        W21409  18.490   2.241  22.076  0.2217  0.0778  0.2811
17110W        W21410   0.617   2.792  31.389  0.1443 -0.2231  0.2948
17111W        W21411  17.015   5.770  25.987 -0.1080  0.0030 -0.1867
17112W        W21412   1.509   5.834  16.309  0.2242 -0.0213  0.0038
17113W        W21413  14.100   7.204  15.985  0.2691  0.2141 -0.0768
17114W        W21414  11.465   2.749   4.887  0.0763 -0.3792 -0.3692
17115W        W21415   2.307   1.757  32.767 -0.0487 -0.2780 -0.1740
17116W        W21416   3.512   5.148  14.075 -0.0720  0.0666 -0.2396
17117W        W21417   1.422   2.093  13.061  0.1517  0.3585  0.2750
17118W        W21418  20.197   2.330  18.879  0.0856 -0.0005  0.1391
17119W        W21419  20.775   6.054   3.982 -0.0977 -0.1200  0.1881
17120W        W21420  10.156   7.312   7.956 -0.0054 -0.0589 -0.0378
17121W        W21421  14.898   5.238  22.702  0.1151 -0.2163 -0.0001
17122W        W21422  14.828   3.527  15.124  0.1026 -0.0763  0.3725
17123W        W21423   8.180   1.012  13.024  0.1328  0.2412  0.0908
17124W        W21424   3.884   7.472  26.930  0.2342 -0.0222 -0.4228
17125W        W21425   1.562   7.615  15.334 -0.3860 -0.0405  0.0926
17126W        W21426   9.951   5.372  20.258 -0.0797  0.0042  0.0162
17127W        W21427  19.894   2.357   6.592  0.2000 -0.1452 -0.1141
17128W        W21428  21.699   1.205   7.760 -0.1190 -0.0440 -0.1076
17129W        W21429   6.616   2.667  14.942  0.3366 -0.2449  0.2070
17130W        W21430   5.527   1.920  29.828 -0.3154  0.0983 -0.1286
17131W        W21431   1.793   1.342  31.575 -0.2557  0.2269  0.0299
17132W        W21432  16.399   5.834  21.047  0.2356 -0.0809 -0.0896
17133W        W21433   4.698   0.750  14.821 -0.1337  0.1581  0.1040
17134W        W21434  17.902   0.794  20.147  0.0198 -0.0191 -0.1698
17135W        W21435  12.226   1.315   8.208 -0.2337 -0.0632  0.0911
17136W        W21436   7.302   6.777  15.458 -0.0366  0.1213  0.1512
17137W        W21437  14.555   2.140  31.623  0.1513  0.1257 -0.1913
17138W        W21438  18.455   0.094  32.273  0.1632  0.2039 -0.1313
17139W        W21439   6.372   3.109  14.825  0.1485  0.0467 -0.0855
17140W        W21440  22.172   5.317   8.453 -0.2352 -0.2985 -0.0131
17141W        W21441  18.551   1.419   2.940 -0.0866  0.3749  0.0392
17142W        W21442   0.338   1.031  28.395  0.0870  0.1683 -0.0407
17143W        W21443  15.867   2.781  31.498  0.0797 -0.2633  0.0585
17144W        W21444   7.658   6.567   9.631 -0.1981  0.1049  0.1174
17145W        W21445  23.430   0.787  30.041 -0.2107  0.0570  0.0274
17146W        W21446  15.529   2.014   8.128  0.0069 -0.2738  0.0183
17147W        W21447   5.116   2.349  10.389  0.0472 -0.0805  0.1471
17148W        W21448  18.727   2.163  25.066 -0.0184 -0.1318 -0.1667
17149W        W21449  18.654   5.714  28.778  0.1682 -0.0055  0.0585
17150W        W21450   5.458   4.410   0.345 -0.0969  0.0328  0.0351
17151W        W21451   3.702   0.244  31.418 -0.0441 -0.1040 -0.0829
17152W        W21452   6.661   0.218  13.431 -0.1446  0.0835  0.2816
17153W        W21453  21.636   1.206  24.869 -0.1507 -0.0858  0.2414
17154W        W21454  12.184   4.863   3.181  0.2753 -0.0122 -0.0107
17155W        W21455  10.397   0.522  24.051  0.1981  0.0430  0.0749
17156W        W21456  19.746   2.133   2.674 -0.1813 -0.2075 -0.0664
17157W        W21457  24.695   0.527   9.497 -0.0700 -0.2020  0.0188
17158W        W21458   4.555   3.172  23.724 -0.2405 -0.1569  0.1828
17159W        W21459  16.710   1.345  16.413  0.1994 -0.0263  0.0402
17160W        W21460  19.391   1.784  24.758  0.1532 -0.3105 -0.0036
17161W        W21461  14.678   5.152  29.105  0.2795  0.2429  0.1262
17162W        W21462   6.991   6.669   8.328 -0.1478 -0.1198  0.1275
17163W        W21463  22.141   2.195  31.268  0.2009 -0.3342 -0.2527
17164W        W21464  18.121   3.300  18.633  0.1057  0.0341  0.0215
17165W        W21465  20.843   1.358  17.177 -0.2006 -0.0562 -0.0622
17166W        W21466   6.233   7.227  17.512  0.0766  0.3031 -0.3615
17167W        W21467  10.283   7.430  12.374 -0.0919 -0.1006 -0.0378
17168W        W21468  20.680   3.509   1.048  0.1437 -0.1289  0.0282
17169W        W21469  20.564   5.730  28.783  0.2803  0.1312  0.1650
17170W        W21470   6.524   3.038  14.202 -0.2630 -0.4218 -0.1859
17171W        W21471  19.068   5.001  22.610 -0.0830  0.1948  0.0764
17172W        W21472  20.286   3.839   7.495  0.1446  0.0138 -0.2123
17173W        W21473   4.331   3.737  18.107  0.0025  0.1875 -0.3020
17174W        W21474  24.938   4.259   4.585  0.3157  0.0256 -0.5872
17175W        W21475  10.207   4.595   9.283 -0.1490 -0.0623 -0.1233
17176W        W21476  13.187   2.851  23.201 -0.1460  0.0980 -0.0051
17177W        W21477   2.375   3.165   3.818 -0.4521  0.1144 -0.1479
17178W        W21478  18.590   0.065  28.136 -0.2339 -0.0430  0.0166
17179W        W21479   5.592   0.401   9.485 -0.3873  0.0940 -0.2551
17180W        W21480  24.609   5.755   3.081 -0.0015 -0.2433 -0.0519
17181W        W21481  23.133   2.731  11.990  0.0913  0.0381 -0.0902
17182W        W21482  24.081   5.896   9.391 -0.0324  0.1878 -0.2531
17183W        W21483   9.375   5.729  28.874 -0.4816 -0.2232 -0.2102
17184W        W21484   1.973   3.078  12.616  0.0118  0.0783 -0.1893
17185W        W21485  14.437   5.110   1.131  0.2851 -0.1491 -0.0855
17186W        W21486   8.043   4.647  30.066  0.0312  0.2060 -0.3208
17187W        W21487  15.900   4.357   6.355 -0.0898  0.1070  0.0150
17188W        W21488  24.191   6.345   9.110  0.1783  0.1126 -0.0891
17189W        W21489  21.111   6.114  21.723 -0.2647 -0.1033  0.1596
17190W        W21490   0.744   2.173   2.109 -0.1807  0.0394  0.1757
17191W        W21491  20.586   1.820  24.291  0.1006  0.0439  0.1536
17192W        W21492  17.461   1.923   2.360 -0.0788  0.0824 -0.0808
17193W        W21493  12.458   0.011  21.321  0.1594  0.1309  0.1418
17194W        W21494  12.132   6.544  32.365 -0.0167  0.1163  0.0722
17195W        W21495   4.431   1.818  14.804 -0.1115 -0.1095  0.1554
17196W        W21496  19.476   2.586   0.452  0.2115  0.0035 -0.0109
17197W        W21497   8.577   7.114  21.825  0.3241  0.3833  0.1555
17198W        W21498  10.859   3.448   2.472  0.1797  0.2778  0.2067
17199W        W21499  10.402   5.595  11.922 -0.0936 -0.0565  0.2622
17200W        W21500  12.537   3.522  17.007 -0.1318  0.1728 -0.0898
17201W        W21501   9.592   0.332  22.364 -0.2705  0.0349 -0.1486
17202W        W21502   0.595   1.383   5.331 -0.3308 -0.0431 -0.2292
17203W        W21503  19.439   6.570   8.487  0.0320  0.3662 -0.2354
17204W        W21504  21.976   5.423  27.881 -0.0669  0.0273  0.0195
17205W        W21505   2.755   6.366  17.703 -0.1376  0.0200  0.2544
17206W        W21506   3.111   2.588  31.552 -0.0881  0.1176  0.0952
17207W        W21507  15.044   7.105  14.846 -0.4609  0.2058 -0.0842
17208W        W21508  11.230   2.159  24.557  0.0738 -0.5775 -0.3378
17209W        W21509   9.202   3.728   6.896 -0.0833  0.0994 -0.0808
17210W        W21510   4.913   1.378   3.862  0.1357 -0.0535 -0.3185
17211W        W21511  10.364   7.790  11.437  0.0323 -0.0364 -0.3925
17212W        W21512  15.371   7.677   2.674  0.0559 -0.1358 -0.1942
17213W        W21513  13.598   0.084   9.084 -0.0260  0.1064  0.1435
17214W        W21514   5.127   6.497  15.590  0.1184 -0.0676 -0.1221
17215W        W21515  20.740   5.549   8.394  0.0581  0.3120  0.0428
17216W        W21516   2.348   3.574   5.579  0.0530 -0.3169 -0.1110
17217W        W21517   2.161   4.186  12.755  0.0427 -0.3004  0.0043
17218W        W21518  13.758   0.717  28.599 -0.0647 -0.1233  0.0858
17219W        W21519   2.190   1.607  11.692  0.1533  0.0879  0.0205
17220W        W21520  14.295   3.310  26.028 -0.0553 -0.0497 -0.0900
17221W        W21521  17.427   1.169  23.403 -0.1831  0.2640 -0.1154
17222W        W21522   2.220   0.549  22.098 -0.1041 -0.0926 -0.1398
17223W        W21523  21.038   5.498   3.456  0.1821  0.1377  0.3996
17224W        W21524   2.989   3.138  11.267 -0.1138 -0.2089  0.0545
17225W        W21525  24.431   5.174  14.121  0.0097  0.1413  0.0663
17226W        W21526  18.265   6.001  16.145  0.2063  0.0434 -0.1216
17227W        W21527   9.397   6.310  32.157  0.0868 -0.2315 -0.2261
17228W        W21528  17.828   2.884   7.817 -0.3000 -0.1416 -0.3144
17229W        W21529  14.697   2.391  24.720 -0.2304  0.0009 -0.0016
17230W        W21530  13.271   4.660  26.690 -0.0825 -0.2669  0.0984
17231W        W21531   6.374   5.083   6.663 -0.0117  0.0115 -0.0274
17232W        W21532   9.769   3.385  29.128 -0.2158 -0.0037  0.1450
17233W        W21533   7.798   2.367  30.146  0.1744 -0.1424 -0.1455
17234W        W21534  13.470   4.253   7.292  0.1834  0.1383 -0.1079
17235W        W21535  21.140   5.286  21.428  0.3682 -0.0127 -0.2703
17236W        W21536   5.362   6.846   2.245  0.1843 -0.1642 -0.0508
17237W        W21537  12.749   0.415  24.911  0.0834  0.0816 -0.0428
17238W        W21538   0.489   4.137   2.707 -0.2405  0.1192  0.1090
17239W        W21539   8.567   5.074   9.000  0.2591  0.2203  0.0047
17240W        W21540  21.730   3.567  19.785  0.1237  0.1323  0.1544
17241W        W21541  14.170   6.321   4.481 -0.0290 -0.1858 -0.3340
17242W        W21542   7.408   4.115  11.656  0.1372  0.0676  0.0092
17243W        W21543   9.423   2.722  22.816  0.2295 -0.0889 -0.0954
17244W        W21544   0.235   2.547   8.745 -0.0008 -0.0612  0.2881
17245W        W21545  19.354   7.683   7.658 -0.0434  0.0621 -0.0831
17246W        W21546  14.904   4.920   3.036  0.2638 -0.3094 -0.0225
17247W        W21547  22.597   5.273  26.440 -0.1520  0.2223  0.2114
17248W        W21548  11.280   1.139  28.554 -0.1998 -0.0255  0.2264
17249W        W21549  20.081   0.852  10.098 -0.0171 -0.1568  0.1792
17250W        W21550  14.591   6.863   3.729  0.2844  0.1718 -0.1529
17251W        W21551   5.046   4.644  11.592 -0.2915  0.1422  0.2827
17252W        W21552  18.431   3.899  20.712  0.1897  0.0137 -0.0635
17253W        W21553   4.621   2.088  32.489  0.0959 -0.1172 -0.0972
17254W        W21554   1.497   6.965   0.783 -0.0490 -0.1331  0.0943
17255W        W21555   7.384   5.455   5.377  0.2057  0.0767  0.1145
17256W        W21556  23.798   4.618  21.848  0.3396 -0.0167  0.0387
17257W        W21557   8.270   0.903  14.597 -0.0262 -0.3772 -0.2625
17258W        W21558  22.657   0.518  10.925 -0.0351 -0.0317 -0.0570
17259W        W21559  19.269   0.384   9.865 -0.3283 -0.2882 -0.1620
17260W        W21560  20.305   1.391   5.016  0.0620 -0.0983  0.2667
17261W        W21561  24.167   5.959   3.304 -0.1357  0.2613 -0.1461
17262W        W21562  15.319   4.973   9.047 -0.0080  0.0997  0.1172
17263W        W21563  10.056   7.751  10.629  0.0803 -0.1162  0.1501
17264W        W21564   9.961   2.174   8.614 -0.2118 -0.2629 -0.3848
17265W        W21565  21.458   2.293  23.265 -0.1309 -0.1470  0.0720
17266W        W21566  19.055   6.814   2.173 -0.0837  0.0575 -0.1164
17267W        W21567  11.827   4.137  32.701  0.2794  0.2307 -0.1562
17268W        W21568  15.790   1.884  20.942  0.0419 -0.0762  0.0382
17269W        W21569   7.719   5.198  11.773  0.0398 -0.1803 -0.0429
17270W        W21570   0.408   1.201  14.299 -0.1681  0.1155 -0.0375
17271W        W21571  11.805   6.556   0.768  0.1679 -0.3107 -0.0189
17272W        W21572  22.248   5.782   6.088  0.0816  0.2276  0.0677
17273W        W21573  10.549   0.749   8.330 -0.2214 -0.0530 -0.1239
17274W        W21574  22.399   3.323  22.719  0.0229  0.2041 -0.4107
17275W        W21575   5.427   7.658   8.899 -0.1530 -0.4057  0.1804
17276W        W21576  23.529   1.671   0.588 -0.0514 -0.0473 -0.0760
17277W        W21577  20.616   0.573  30.141 -0.2065  0.1585  0.1808
17278W        W21578  11.174   1.454   3.413  0.0750  0.1054  0.3406
17279W        W21579   7.353   1.828  29.508  0.0152  0.0180 -0.1154
17280W        W21580   8.403   2.569  26.089 -0.2016 -0.1620 -0.1612
17281W        W21581   4.752   1.647   9.092  0.2671 -0.0987  0.1338
17282W        W21582  11.415   4.737  11.483  0.1434  0.3013  0.0176
17283W        W21583  20.894   1.801  10.543  0.2029  0.0924  0.1797
17284W        W21584   0.992   4.570   6.194 -0.2612 -0.2208 -0.0855
17285W        W21585  14.019   4.716   7.669  0.2840  0.1527  0.1054
17286W        W21586  22.537   5.478   0.044  0.0718 -0.0237  0.4418
17287W        W21587  11.978   4.038   4.811 -0.0828  0.1890  0.1323
17288W        W21588   4.535   1.750  26.986  0.0317 -0.0546 -0.4702
17289W        W21589  15.656   4.781   1.683 -0.1039 -0.2226 -0.2023
17290W        W21590   6.461   7.095  13.837  0.2082  0.0656  0.1566
17291W        W21591  19.703   4.168   8.586 -0.0460 -0.0259  0.0063
17292W        W21592   9.641   4.536   7.055 -0.2361 -0.0680 -0.2778
17293W        W21593   6.354   7.374  11.317 -0.1581 -0.1799  0.0766
17294W        W21594  13.906   3.552  31.088  0.0131  0.2547  0.0051
17295W        W21595  21.900   2.345  12.554  0.0099 -0.0132  0.1115
17296W        W21596  11.418   4.462  25.025 -0.2315  0.0207 -0.3762
17297W        W21597  13.756   5.457  30.695  0.0352  0.1566  0.1449
17298W        W21598  10.987   2.973   7.623 -0.2264  0.1455 -0.0141
17299W        W21599  17.970   1.399  23.928 -0.2283  0.2622 -0.1231
17300W        W21600   1.254   5.930  16.695 -0.0552 -0.1844 -0.0888
17301W        W21601   3.492   1.619  13.335 -0.1519 -0.0044 -0.3493
17302W        W21602  17.012   3.114  21.792 -0.1340  0.0133 -0.1160
17303W        W21603   8.502   6.282  14.764  0.0240  0.3128  0.2821
17304W        W21604  20.163   1.597  32.165  0.2660  0.1823  0.2234
17305W        W21605   2.930   5.968  15.724 -0.1634  0.2251  0.2204
17306W        W21606   6.978   7.201   9.574  0.1224  0.1512  0.1184
17307W        W21607   1.694   3.776   8.982 -0.0463  0.0581  0.0873
17308W        W21608  18.028   6.273  26.165  0.2215  0.0248 -0.1326
17309W        W21609   0.582   1.753   1.357 -0.0574  0.0658  0.2936
17310W        W21610  11.510   5.621  23.416 -0.1998 -0.0291 -0.2637
17311W        W21611   8.026   6.266   9.304 -0.1855 -0.0262  0.0960
17312W        W21612   6.318   6.250   0.388 -0.0552  0.0731 -0.1399
17313W        W21613  24.133   1.266   2.467  0.2638  0.0320  0.2948
17314W        W21614  12.127   3.349   9.040 -0.0027  0.1977  0.1441
17315W        W21615  24.415   2.375  23.847 -0.1336  0.1053 -0.0766
17316W        W21616   2.772   4.900  32.514 -0.1294  0.0428 -0.2274
17317W        W21617  18.142   4.036   2.235  0.3302 -0.0378  0.0487
17318W        W21618  17.666   0.741  21.097 -0.0928 -0.2661 -0.0395
17319W        W21619  18.473   7.709  24.803  0.3195 -0.2083 -0.2833
17320W        W21620  21.755   6.226   2.198 -0.1964  0.0255 -0.0113
17321W        W21621   8.433   5.442  26.902  0.0773 -0.0013  0.2274
17322W        W21622  23.849   5.566  29.781  0.5259 -0.4543 -0.0381
17323W        W21623  18.150   7.603   6.340  0.1666  0.0037  0.0040
17324W        W21624  21.436   0.248   7.829 -0.1646  0.0134  0.1072
17325W        W21625   6.180   1.637  30.648  0.1661 -0.0984  0.0996
17326W        W21626  15.716   2.433   1.487  0.2448  0.2294 -0.1759
17327W        W21627  10.767   2.128   8.069 -0.3444 -0.2006 -0.0991
17328W        W21628  12.472   3.433  31.500  0.0690 -0.0230 -0.3777
17329W        W21629  22.077   5.970   2.976  0.1920  0.2321  0.0179
17330W        W21630  22.026   6.223  32.917 -0.2167  0.0326  0.1240
17331W        W21631  12.589   5.251  22.073 -0.0890 -0.0526  0.1693
17332W        W21632  14.397   2.146  22.447 -0.1313 -0.1720  0.0027
17333W        W21633   2.100   7.751   2.545  0.1012  0.0267  0.3224
17334W        W21634  23.787   5.670   5.183  0.1722  0.1757  0.0283
17335W        W21635   7.191   4.788  31.696 -0.1077 -0.0346  0.0309
17336W        W21636  20.489   2.751   9.673 -0.1849  0.2240  0.0574
17337W        W21637  18.856   5.863  24.452 -0.1847  0.1767 -0.0402
17338W        W21638  10.414   3.707  23.794 -0.1887  0.2262 -0.1089
17339W        W21639  22.503   2.076   7.837  0.2094  0.2584 -0.0846
17340W        W21640   3.284   6.339  25.867 -0.1906 -0.0144 -0.1609
17341W        W21641   2.455   0.093  14.077  0.2777  0.1157  0.0833
17342W        W21642   2.292   6.887  22.809  0.1260  0.2092  0.1182
17343W        W21643  10.840   1.055  28.534  0.2035  0.1017 -0.0494
17344W        W21644   7.282   0.391  29.822  0.1468  0.2886  0.1034
17345W        W21645   3.859   2.912   1.092  0.1142  0.0949  0.0574
17346W        W21646   2.832   4.090  30.020 -0.2594  0.1484  0.1417
17347W        W21647  11.212   2.749  29.438  0.0427  0.1743 -0.1977
17348W        W21648  14.230   1.634  22.541 -0.2534  0.1516 -0.2160
17349W        W21649  20.244   5.382  29.883 -0.2816 -0.3659 -0.0008
17350W        W21650  20.763   2.180  21.266  0.0743 -0.0281  0.0214
17351W        W21651   6.910   0.172  15.707  0.1096  0.0360  0.1488
17352W        W21652   4.453   4.026  29.664  0.0923  0.0641  0.4349
17353W        W21653  23.197   2.833   8.702  0.0643  0.1242 -0.0069
17354W        W21654  24.184   3.861  26.095  0.1360 -0.1500  0.1567
17355W        W21655   7.381   5.898  29.557  0.0660 -0.1575  0.3861
17356W        W21656  23.185   4.450   0.843 -0.2441  0.0590 -0.0552
17357W        W21657   0.073   1.278   1.575  0.1136  0.0822  0.1587
17358W        W21658   3.541   3.662   1.135  0.3503 -0.0462  0.0299
17359W        W21659   5.140   2.187   4.304  0.3281  0.0542  0.0827
17360W        W21660   2.344   4.402   8.934  0.0066  0.0651 -0.6837
17361W        W21661   2.836   2.146   7.078 -0.0948  0.0229  0.4131
17362W        W21662  14.099   0.280   6.645 -0.1624 -0.1059 -0.0124
17363W        W21663  17.223   7.229   5.057  0.0946 -0.1310 -0.1317
17364W        W21664   6.363   2.928   4.616 -0.1212  0.1843  0.0050
17365W        W21665  15.547   6.637  23.182 -0.2793 -0.3164 -0.0367
17366W        W21666   6.163   2.583   7.123 -0.0809 -0.3653  0.0992
17367W        W21667   6.844   2.179   9.294 -0.1835  0.0048  0.2878
17368W        W21668  15.756   4.900   3.504  0.1748 -0.0113 -0.1672
17369W        W21669  22.859   2.742  31.259 -0.0531 -0.1386 -0.0268
17370W        W21670  21.668   2.392   1.889 -0.0818  0.2145  0.1412
17371W        W21671   7.440   7.487  29.295  0.1763  0.2360  0.1529
17372W        W21672   9.143   0.162  22.431 -0.1080 -0.3653  0.3424
17373W        W21673  18.104   4.743  17.532 -0.0240  0.5291 -0.2163
17374W        W21674  13.230   1.873   1.298  0.1339 -0.0854 -0.0087
17375W        W21675   1.414   0.325  30.486  0.1649  0.0165 -0.0645
17376W        W21676   4.529   1.405  12.530  0.0582  0.3316  0.2066
17377W        W21677  14.095   1.353  26.467 -0.2455  0.1706  0.3053
17378W        W21678  16.021   4.744   0.419 -0.0352  0.0123  0.1280
17379W        W21679  12.260   5.009  19.756  0.1159 -0.1507 -0.0197
17380W        W21680  18.243   4.889  22.297 -0.2664  0.3512 -0.1200
17381W        W21681  12.962   0.444  19.830  0.1025  0.0812  0.0404
17382W        W21682  11.031   1.295  10.855  0.0482  0.0246 -0.1606
17383W        W21683  13.779   6.399  29.164 -0.2026  0.0516 -0.3180
17384W        W21684  15.466   1.665   5.113  0.0160 -0.1661 -0.1085
17385W        W21685   4.797   6.742  27.678 -0.2928  0.0429 -0.1474
17386W        W21686   7.385   2.248   3.546  0.4513  0.1418 -0.1769
17387W        W21687  20.769   4.796  11.390  0.0246  0.0027 -0.0318
17388W        W21688   4.266   2.450  27.042 -0.0317  0.0372 -0.3243
17389W        W21689  16.042   6.301  18.384 -0.0749 -0.1959 -0.0084
17390W        W21690   2.265   4.996  17.185  0.3228 -0.1402 -0.1524
17391W        W21691  14.802   4.380   0.680 -0.0795  0.1080 -0.1258
17392W        W21692  12.276   1.477  22.577 -0.2586 -0.3462  0.0297
17393W        W21693   8.794   7.040  27.975  0.2503  0.3623 -0.4559
17394W        W21694   8.657   4.154   5.854 -0.0887 -0.2132 -0.1160
17395W        W21695   5.981   5.963  12.901 -0.3235 -0.0129  0.1133
17396W        W21696  15.547   4.022  26.611  0.1117 -0.2108 -0.4774
17397W        W21697  19.981   2.613  18.369  0.2640  0.0205  0.1049
17398W        W21698  17.413   3.026  26.931 -0.2685 -0.0060  0.1013
17399W        W21699  12.189   5.126  25.752  0.1522  0.0591 -0.3795
17400W        W21700  20.426   4.440   9.910  0.0770  0.3072  0.0728
17401W        W21701  19.859   0.963  33.024  0.0606  0.3694 -0.1152
17402W        W21702  11.611   1.217   3.085  0.0428  0.0142 -0.3788
17403W        W21703  16.585   3.896  26.748 -0.0960 -0.1135 -0.2405
17404W        W21704   6.540   2.348   3.010  0.1421 -0.1761 -0.0259
17405W        W21705   4.203   2.091   1.950 -0.0031 -0.0370 -0.1112
17406W        W21706   1.421   3.277   8.919 -0.1801  0.0742  0.1102
17407W        W21707   1.922   3.663  28.264  0.0362 -0.2949 -0.0498
17408W        W21708   2.861   4.608  31.284 -0.0278  0.1030 -0.0036
17409W        W21709  12.206   7.479  25.177  0.1125 -0.0857  0.3651
17410W        W21710  15.727   1.490  24.065 -0.1563 -0.0754  0.1382
17411W        W21711   7.960   5.108   4.530 -0.2958 -0.2335  0.2944
17412W        W21712  20.577   6.762  25.086  0.0112  0.1863  0.1965
17413W        W21713  10.279   0.385   8.041  0.3045  0.4359 -0.0238
17414W        W21714   0.004   6.670  13.576 -0.0181 -0.2920  0.0036
17415W        W21715   5.979   3.262   4.805  0.0400 -0.2522  0.1209
17416W        W21716   6.417   2.866   8.187  0.1253  0.2103  0.4235
17417W        W21717  17.624   6.537  19.286  0.0721  0.1360 -0.0383
17418W        W21718  22.053   1.529  24.868  0.0076 -0.1046 -0.0544
17419W        W21719  20.512   3.983  22.739  0.0687  0.2621  0.0820
17420W        W21720   5.239   3.772   8.981  0.0188 -0.0651 -0.2723
17421W        W21721  24.689   5.746   6.977 -0.4076  0.1084 -0.0353
17422W        W21722  21.366   1.152  27.646 -0.2840  0.1205  0.1008
17423W        W21723  19.729   0.680   5.505 -0.1105 -0.2976 -0.0156
17424W        W21724   3.068   2.435  29.643  0.0871 -0.0498  0.0092
17425W        W21725   3.618   3.275  11.737 -0.2029  0.0338 -0.0803
17426W        W21726  18.856   5.066  29.903 -0.1363 -0.0464  0.1333
17427W        W21727  15.710   7.693   1.896 -0.0145 -0.0286 -0.2673
17428W        W21728   0.066   7.325  26.068  0.2154  0.1706 -0.0189
17429W        W21729  18.744   6.421   1.232 -0.0725  0.2348 -0.0589
17430W        W21730   3.494   2.826  12.089  0.2500  0.2085  0.1834
17431W        W21731  17.686   4.618   4.039 -0.1398 -0.0541  0.0002
17432W        W21732   0.929   3.056   3.547  0.0231 -0.1788 -0.2036
17433W        W21733  18.474   4.595  27.714 -0.1798  0.1758  0.1700
17434W        W21734   5.116   0.522  10.540 -0.0587  0.0382 -0.0170
17435W        W21735   3.857   1.081  32.993  0.0806 -0.0218  0.4346
17436W        W21736   2.798   0.460  30.657 -0.0807 -0.0447 -0.1792
17437W        W21737  15.990   5.666  32.039  0.0114  0.2175 -0.1633
17438W        W21738   9.115   5.249  11.757  0.2590 -0.0657 -0.1755
17439W        W21739  13.653   7.549   1.258 -0.0480 -0.0309 -0.0735
17440W        W21740   5.724   6.853  25.266  0.0425 -0.1750 -0.0823
17441W        W21741  17.099   1.563  25.581  0.2537 -0.3037  0.0596
17442W        W21742   9.953   0.360   6.979 -0.2590 -0.1916 -0.3042
17443W        W21743  24.601   4.419  24.111  0.1673  0.0528 -0.0203
17444W        W21744   0.453   7.535  31.519  0.0160 -0.0876 -0.1279
17445W        W21745  23.780   1.730   6.792  0.2079  0.1120  0.2408
17446W        W21746   2.687   7.780   6.988 -0.1629 -0.0923 -0.0277
17447W        W21747  10.446   7.010   9.252 -0.2446 -0.0179 -0.0454
17448W        W21748  17.492   0.472  18.062 -0.1912 -0.0097 -0.1403
17449W        W21749  13.895   7.594  30.247  0.1697  0.0652 -0.2650
17450W        W21750  18.939   0.442   0.584  0.0314 -0.2570  0.0498
17451W        W21751  11.371   3.697  30.700 -0.0490  0.0058  0.1345
17452W        W21752  12.019   1.391  27.439  0.1925 -0.3006  0.0285
17453W        W21753  19.938   2.619   8.518 -0.2406  0.0433  0.1165
17454W        W21754  18.686   7.547  17.932  0.0710  0.0028  0.3007
17455W        W21755  23.626   1.471   5.069  0.2035 -0.1636 -0.0004
17456W        W21756  18.614   6.957  20.110  0.1293 -0.1350  0.3292
17457W        W21757   3.831   7.149  30.710  0.2753 -0.0538  0.1171
17458W        W21758   6.787   6.578  16.812  0.1605 -0.1019  0.0324
17459W        W21759   5.181   4.161   2.877 -0.2451  0.2325 -0.0975
17460W        W21760  13.263   3.001  17.099 -0.1429  0.1315 -0.2027
17461W        W21761   5.535   5.520  12.230 -0.1323  0.3219 -0.1026
17462W        W21762  16.259   4.317  26.830 -0.0135 -0.2443 -0.1241
17463W        W21763  16.286   4.511  17.285  0.1323 -0.1216 -0.1471
17464W        W21764  18.709   2.510  26.796 -0.0163 -0.0479 -0.1358
17465W        W21765  24.961   1.373  13.054 -0.1712 -0.0111  0.2470
17466W        W21766   8.101   4.132  13.451  0.2413  0.2924 -0.1712
17467W        W21767  10.813   1.426  23.969 -0.1414 -0.0301 -0.0553
17468W        W21768  15.453   0.428  28.248 -0.2448 -0.1229 -0.2260
17469W        W21769  10.655   5.475  22.039 -0.1208  0.2186 -0.0453
17470W        W21770   6.886   2.642  11.760  0.1020 -0.0278 -0.1791
17471W        W21771   2.394   1.186   6.912 -0.4978 -0.0954 -0.1828
17472W        W21772  22.033   3.830  13.645  0.1220 -0.4861 -0.0691
17473W        W21773  21.175   4.361  12.799 -0.0045 -0.0563 -0.0192
17474W        W21774   1.303   3.110   6.498 -0.0063 -0.3956 -0.0121
17475W        W21775   4.973   1.169  14.538  0.1169  0.0525 -0.1694
17476W        W21776   8.071   3.025  14.230 -0.1625  0.0915 -0.0648
17477W        W21777  18.983   0.170  22.120 -0.2552  0.0256  0.0995
17478W        W21778  20.057   2.266   4.864  0.4948  0.4120  0.0819
17479W        W21779  19.404   0.090  20.755  0.2213 -0.3801 -0.5686
17480W        W21780   0.177   3.738  28.225 -0.1814  0.1671 -0.1807
17481W        W21781   6.283   6.862  29.810 -0.0201 -0.1526  0.0031
17482W        W21782   6.727   5.948  12.966  0.0985  0.1718 -0.0567
17483W        W21783  13.298   3.289  10.005 -0.4314 -0.2727 -0.3239
17484W        W21784  12.307   2.733  10.144  0.2359 -0.0425 -0.3185
17485W        W21785  20.810   5.755  25.253 -0.1358  0.0851 -0.0985
17486W        W21786  22.362   5.300  23.365 -0.1734  0.0001 -0.0020
17487W        W21787   3.147   4.706   3.874  0.2975 -0.0542  0.1200
17488W        W21788   3.116   5.688   7.820 -0.0844  0.2082 -0.1208
17489W        W21789   5.813   3.351  21.933  0.1530  0.3406 -0.1410
17490W        W21790  20.211   2.823  26.796  0.0492  0.1924 -0.2154
17491W        W21791   6.339   7.696  11.731 -0.2751  0.1220  0.0696
17492W        W21792  11.059   4.324   2.253  0.0254 -0.0747 -0.2875
17493W        W21793   3.479   0.650   0.479 -0.1834 -0.1605 -0.1249
17494W        W21794  22.905   1.512  23.309  0.2037 -0.1718 -0.1482
17495W        W21795  22.275   1.871   6.525  0.0879  0.1586 -0.1122
17496W        W21796   0.373   1.382   9.371 -0.0870  0.0101 -0.0853
17497W        W21797  22.257   3.283  24.025  0.0918  0.0690  0.0468
17498W        W21798  11.211   6.191  27.448  0.2450  0.0819  0.0993
17499W        W21799  14.561   7.391  32.787  0.0932 -0.0106  0.2036
17500W        W21800   9.235   7.698   2.754 -0.0418  0.0711  0.2350
17501W        W21801  18.230   1.290  29.462 -0.1707  0.2038  0.0625
17502W        W21802  16.731   4.029  23.772 -0.3871 -0.0846 -0.2471
17503W        W21803  24.577   4.913  12.719  0.0816  0.0631  0.0007
17504W        W21804   3.993   1.448  15.151  0.2001  0.0158 -0.0428
17505W        W21805   7.070   3.950  15.787 -0.0538 -0.1383  0.0957
17506W        W21806   5.007   6.596   8.111  0.2233  0.3246 -0.2695
17507W        W21807   6.527   4.304  27.609  0.0597  0.3362 -0.0441
17508W        W21808   1.510   7.544  10.949  0.1571 -0.1776 -0.0468
17509W        W21809  19.341   7.097  22.420 -0.0224 -0.1581 -0.1872
17510W        W21810  23.661   6.272  25.965  0.0195 -0.1898 -0.2883
17511W        W21811   0.006   7.688  16.046  0.0090  0.1625  0.1144
17512W        W21812   8.998   2.845   6.087 -0.0586  0.0464 -0.3343
17513W        W21813  20.402   3.449  27.435  0.0514  0.2246  0.0563
17514W        W21814   7.871   1.763  10.971  0.1710 -0.0707  0.1280
17515W        W21815   7.279   6.537  16.178 -0.2562  0.1079  0.1932
17516W        W21816  24.159   3.566   3.668  0.2580 -0.1099  0.2345
17517W        W21817  19.832   0.355  29.092 -0.2449 -0.0156 -0.0442
17518W        W21818   8.543   6.086   1.298 -0.0671 -0.2137  0.1183
17519W        W21819   5.804   6.729  27.734  0.2356 -0.2103  0.0349
17520W        W21820  13.171   2.932  24.566  0.1550 -0.1859 -0.2547
17521W        W21821  18.556   3.066   4.606 -0.1027  0.1178 -0.4290
17522W        W21822  21.934   7.610  21.839  0.1688  0.1203  0.0424
17523W        W21823  11.223   5.473  26.902 -0.3448 -0.2926  0.3006
17524W        W21824  13.528   3.856   1.258  0.2282 -0.2917  0.1176
17525W        W21825  13.132   2.856  26.969 -0.1300  0.0230  0.0459
17526W        W21826   0.468   2.025  26.882 -0.3534  0.1802  0.1448
17527W        W21827  17.952   3.248  31.997  0.0361  0.0917  0.1594
17528W        W21828  24.159   1.917  32.742  0.2803  0.1056  0.1886
17529W        W21829   6.647   3.703  12.641  0.0667 -0.0656 -0.1655
17530W        W21830  11.241   0.354   8.736  0.1671 -0.2448 -0.1234
17531W        W21831   7.437   3.469  32.023 -0.4283 -0.0932 -0.0946
17532W        W21832  24.457   4.550  27.846 -0.0874 -0.1812 -0.1025
17533W        W21833  15.389   0.296  27.092  0.1913  0.0184  0.3234
17534W        W21834  20.884   7.744  11.625 -0.0431  0.1071  0.0938
17535W        W21835   1.960   5.883  13.069 -0.0405 -0.0810 -0.2344
17536W        W21836   2.908   4.357   8.040  0.0508 -0.1881  0.2273
17537W        W21837  22.299   3.200  20.558 -0.3592  0.0320  0.0006
17538W        W21838   8.390   3.354  29.532  0.0660 -0.0805  0.0268
17539W        W21839   3.783   6.717  10.640 -0.3758 -0.0704  0.0504
17540W        W21840  15.560   0.624   8.155  0.0240 -0.1782  0.0795
17541W        W21841  15.928   3.708  21.990 -0.0067  0.0770  0.2998
17542W        W21842  17.970   4.418  27.763 -0.3632  0.0247  0.0442
17543W        W21843  17.992   3.610  31.056 -0.0337  0.1565 -0.1672
17544W        W21844   8.226   3.176   3.104  0.0472 -0.1331  0.2780
17545W        W21845  10.977   2.209  31.239 -0.1694  0.1170 -0.2098
17546W        W21846  19.802   6.293   4.319  0.0102  0.0863  0.1403
17547W        W21847   2.261   2.857  22.788  0.2058  0.3263 -0.1137
17548W        W21848  21.526   1.102   6.813  0.1040  0.1053  0.3174
17549W        W21849  19.958   7.671   5.259  0.0183  0.1328 -0.4090
17550W        W21850  12.995   2.069   7.773  0.0897  0.0464 -0.1168
17551W        W21851   2.177   0.527  22.627  0.0887  0.0169 -0.0531
17552W        W21852  18.110   6.515  16.087 -0.0625 -0.0030  0.0354
17553W        W21853  13.483   5.724  18.359 -0.1200  0.1265 -0.0796
17554W        W21854  19.831   6.806  21.556 -0.2615  0.0915  0.1227
17555W        W21855  15.612   7.441   1.405 -0.0414  0.1167 -0.0838
17556W        W21856   2.992   2.865  25.400 -0.0784  0.3407  0.3170
17557W        W21857  11.253   1.892  30.969  0.3336 -0.3594  0.0361
17558W        W21858  18.836   3.719  32.886  0.0968 -0.1472 -0.0228
17559W        W21859  16.910   0.148  23.184  0.0694 -0.0685 -0.2833
17560W        W21860  11.784   3.326  28.319 -0.0165  0.1682 -0.1669
17561W        W21861   8.015   7.174  26.799  0.0413  0.2059  0.0348
17562W        W21862  10.159   0.370  30.570 -0.0488 -0.3357 -0.4180
17563W        W21863   6.763   7.393  30.201 -0.2899  0.2796  0.0114
17564W        W21864   4.083   1.950  32.824  0.1044 -0.3424  0.0216
17565W        W21865  16.757   0.673   8.806  0.2174 -0.0258  0.0210
17566W        W21866  19.276   3.828  24.845 -0.1711 -0.2765 -0.1472
17567W        W21867   1.101   3.140  10.736  0.0652 -0.2076  0.0659
17568W        W21868  17.328   4.342  30.184 -0.1362  0.0274  0.0277
17569W        W21869  13.059   0.725   5.110  0.3214  0.0514  0.1020
17570W        W21870  14.274   3.773   2.726 -0.3112  0.0041  0.2361
17571W        W21871   4.758   5.359  16.479  0.3046 -0.2142  0.1514
17572W        W21872  21.597   5.799  28.228  0.0097 -0.1177  0.1369
17573W        W21873   1.316   5.114   5.403  0.1461  0.2167 -0.0751
17574W        W21874  12.851   0.058  16.040 -0.0682  0.1874  0.0256
17575W        W21875  18.497   0.162  21.171  0.1170 -0.1338 -0.1684
17576W        W21876  19.964   6.370   0.091  0.1626 -0.1159  0.0962
17577W        W21877   4.599   3.055   4.191 -0.1123 -0.1340  0.0360
17578W        W21878   1.202   1.148   0.344  0.1103 -0.1614 -0.0710
17579W        W21879   4.645   1.420   1.697 -0.0912  0.3114 -0.0786
17580W        W21880  22.169   7.214   4.306 -0.0889  0.1745 -0.2749
17581W        W21881  22.393   7.780  21.627 -0.0105  0.0691  0.0544
17582W        W21882  19.235   2.018   7.038  0.2111  0.1036 -0.2862
17583W        W21883  16.193   3.683  25.046  0.2186  0.0155 -0.2437
17584W        W21884   8.608   6.001  31.252 -0.5088 -0.1968 -0.1212
17585W        W21885   9.148   0.956  31.964 -0.0365 -0.0469 -0.1192
17586W        W21886  13.319   4.754  17.312  0.0451  0.0562  0.1068
17587W        W21887  14.041   6.500   2.016  0.1141  0.0148 -0.2347
17588W        W21888  22.671   6.719  13.447 -0.2023  0.1206  0.1293
17589W        W21889  23.364   3.654  28.297 -0.0561  0.0852 -0.1468
17590W        W21890   4.691   3.432  22.215 -0.1523  0.1766 -0.2039
17591W        W21891   4.900   5.284  33.039 -0.0764 -0.0262 -0.2445
17592W        W21892   3.690   0.467   7.766  0.3583 -0.0924  0.0985
17593W        W21893   5.953   4.172   6.276 -0.0887  0.1749 -0.1153
17594W        W21894   9.056   6.935  12.972  0.1393 -0.0963  0.1999
17595W        W21895  18.456   0.979  22.334  0.1283 -0.2303  0.1859
17596W        W21896  14.831   6.739   8.335 -0.0039  0.0342 -0.0464
17597W        W21897   8.036   3.035   6.362  0.2049 -0.1318 -0.0621
17598W        W21898  10.506   0.276   5.321  0.2361 -0.5039  0.3403
17599W        W21899  20.973   1.733  25.964  0.2454 -0.1157  0.0045
17600W        W21900  17.367   7.635  26.781 -0.1096  0.0211 -0.1180
17601W        W21901   4.879   3.228   5.665  0.1012  0.0144  0.4679
17602W        W21902   8.704   2.062  13.943 -0.0019  0.0008  0.2212
17603W        W21903  20.087   7.460   8.369  0.1212 -0.0435 -0.1496
17604W        W21904   4.795   5.663  17.045 -0.1887 -0.0490 -0.1316
17605W        W21905  16.445   2.757  23.876 -0.1146  0.0790  0.0982
17606W        W21906  22.873   5.299   5.669  0.0130  0.2221  0.0005
17607W        W21907  19.988   5.753  25.097 -0.1253 -0.1681 -0.0636
17608W        W21908   6.656   3.311   4.962 -0.0583  0.2136 -0.0798
17609W        W21909   5.972   6.995  13.860  0.1197 -0.2522  0.0380
17610W        W21910   4.751   0.942  11.241  0.1067  0.0169 -0.0367
17611W        W21911   9.575   4.395   8.577  0.0019 -0.0506  0.0316
17612W        W21912  14.887   2.067  19.591  0.0053  0.0218  0.3217
17613W        W21913  13.472   2.284  22.449 -0.2011 -0.0830 -0.1739
17614W        W21914   6.011   6.842   2.357 -0.0516  0.0959  0.1264
17615W        W21915  22.750   0.604  23.932  0.1173  0.0068  0.1130
17616W        W21916  16.037   3.307  21.692  0.3446 -0.1472  0.2097
17617W        W21917  11.799   1.811  23.709 -0.0991  0.0206 -0.2004
17618W        W21918   1.692   3.384   9.386  0.3722 -0.0758  0.0937
17619W        W21919  24.229   1.762   2.880  0.0889  0.0470 -0.1514
17620W        W21920  13.907   0.887  28.128  0.3816  0.1970 -0.0281
17621W        W21921  15.225   3.114   4.821 -0.0566  0.1776  0.1914
17622W        W21922  18.145   5.511  28.779 -0.0026 -0.2259  0.0007
17623W        W21923   4.595   3.546   3.918 -0.0391  0.1921  0.4293
17624W        W21924   6.367   7.576  15.121 -0.5400  0.2437  0.0532
17625W        W21925   2.587   3.819  31.266 -0.3360  0.0760 -0.1782
17626W        W21926  10.674   2.108   6.120 -0.2962 -0.0355  0.1568
17627W        W21927   5.612   1.911   2.693 -0.0601  0.0530 -0.1574
17628W        W21928  17.654   0.023   8.492 -0.0834 -0.0462 -0.1221
17629W        W21929   9.986   6.743  24.814  0.0175  0.0090 -0.0557
17630W        W21930   5.215   1.437  28.587 -0.0092  0.0576  0.1621
17631W        W21931  17.825   2.231   0.244  0.1339 -0.1688  0.0058
17632W        W21932  24.056   7.627  24.496  0.3731  0.0683  0.0203
17633W        W21933  21.177   3.930  21.903 -0.3969 -0.2544 -0.1232
17634W        W21934   6.218   7.776   6.864 -0.0829  0.2272  0.2738
17635W        W21935  14.861   4.587   5.415  0.0028  0.3426 -0.2634
17636W        W21936   0.954   0.971  23.795  0.1189  0.0410  0.0580
17637W        W21937   5.963   7.052  11.310  0.1583  0.1293 -0.1426
17638W        W21938  19.450   6.719  27.168  0.2844  0.2700 -0.2399
17639W        W21939  19.477   1.811   2.349  0.0734 -0.1464  0.1040
17640W        W21940  10.710   3.064  10.791  0.1688 -0.2475 -0.1923
17641W        W21941   0.446   7.654  26.771 -0.0955  0.1552  0.3596
17642W        W21942  10.487   3.230  19.019  0.2248  0.4477  0.2604
17643W        W21943  19.251   7.710  17.229 -0.0028 -0.0452 -0.0261
17644W        W21944   6.070   0.572  30.779  0.2487 -0.1753  0.0221
17645W        W21945  22.310   3.539  25.016 -0.0533 -0.3487  0.0625
17646W        W21946  20.840   3.460  24.155 -0.0718  0.0135  0.1510
17647W        W21947   6.224   4.551  15.545  0.1490 -0.1806 -0.1885
17648W        W21948   0.172   3.621   3.367  0.1757 -0.3681  0.0737
17649W        W21949  19.236   6.279  20.329  0.0943 -0.0699 -0.0510
17650W        W21950   1.370   3.014  25.088 -0.1190 -0.0435 -0.0682
17651W        W21951   6.403   1.722   1.130 -0.0468 -0.1823  0.3369
17652W        W21952   9.049   0.302   2.912  0.1999  0.1564 -0.1611
17653W        W21953  22.602   0.761  30.200  0.0527 -0.0160  0.0450
17654W        W21954   0.788   7.481  11.471 -0.0581 -0.3022  0.0496
17655W        W21955  18.283   2.989  10.988 -0.1910 -0.0043 -0.1446
17656W        W21956  18.196   5.351  24.621  0.1146 -0.2329  0.0020
17657W        W21957  22.239   0.632   5.548 -0.0383 -0.1569  0.2279
17658W        W21958  14.510   6.621   8.930  0.0816 -0.2817  0.1125
17659W        W21959  15.176   7.322  30.899 -0.1319  0.0530  0.1126
17660W        W21960   6.944   4.764   9.321  0.2474 -0.0902 -0.2321
17661W        W21961  13.929   3.641  15.572 -0.1190  0.0630  0.0902
17662W        W21962  24.903   6.319  22.551 -0.2328 -0.0668 -0.0619
17663W        W21963   2.608   3.392  31.496 -0.1371  0.2956  0.2212
17664W        W21964  19.979   3.844  11.070 -0.0820  0.0433 -0.0926
17665W        W21965  17.780   4.550  25.785 -0.1320 -0.1584  0.0937
17666W        W21966  18.965   4.278  17.672  0.2181  0.2436  0.0674
17667W        W21967   5.336   4.922   7.583  0.0968 -0.2111  0.2321
17668W        W21968   3.207   3.178  32.269 -0.0454 -0.0490  0.0039
17669W        W21969  21.048   0.886  20.194  0.2121 -0.2097 -0.0308
17670W        W21970  16.853   3.514  21.266 -0.0063  0.3204  0.1720
17671W        W21971  24.293   4.704   1.556 -0.0442  0.0939  0.1367
17672W        W21972   6.317   3.459  10.571 -0.0530  0.0586  0.1388
17673W        W21973   7.899   4.243   9.755 -0.1629 -0.0370 -0.1472
17674W        W21974  17.927   7.529   4.108  0.0590 -0.1623  0.3165
17675W        W21975   1.657   0.163  25.375 -0.0553 -0.0432 -0.0940
17676W        W21976   6.190   3.343   5.874 -0.0205  0.0580 -0.0375
17677W        W21977   4.430   7.613   1.841  0.2017 -0.1716 -0.0345
17678W        W21978  18.580   3.005  31.501 -0.2926 -0.0241  0.0379
17679W        W21979   3.539   2.665  29.719 -0.2068  0.2701  0.0028
17680W        W21980  15.186   4.228   5.242  0.1429 -0.0345 -0.0345
17681W        W21981  15.346   0.736   9.986 -0.1638  0.1937  0.6247
17682W        W21982  13.221   4.050   7.651 -0.0017 -0.0008 -0.1021
17683W        W21983   2.310   3.665   8.439  0.0695 -0.0806 -0.1559
17684W        W21984   7.981   7.431   2.163  0.1502 -0.0775 -0.0100
17685W        W21985   5.459   4.678   0.777 -0.3458  0.0043 -0.2533
17686W        W21986   6.968   1.531  16.670  0.0866 -0.0884 -0.1933
17687W        W21987  24.678   7.511  13.411  0.0697  0.2483 -0.0419
17688W        W21988  21.326   1.543   5.102  0.0858  0.2831  0.3233
17689W        W21989  20.301   2.567  28.027 -0.2410  0.2464 -0.0068
17690W        W21990  13.508   3.618  19.609  0.1026  0.1240  0.1370
17691W        W21991   7.032   3.797   5.432 -0.0412 -0.0821 -0.0926
17692W        W21992  17.204   4.981  21.830 -0.3845 -0.0890  0.0848
17693W        W21993  23.842   5.326   6.587 -0.1648 -0.2093 -0.1147
17694W        W21994  20.014   6.979  20.491 -0.0246  0.2040  0.1655
17695W        W21995   1.292   1.032  14.140  0.2132  0.1733  0.0958
17696W        W21996   3.352   4.360   2.562 -0.1460  0.0934  0.0482
17697W        W21997   0.404   6.737  22.769  0.0225 -0.1010 -0.1129
17698W        W21998  17.143   0.596  28.858  0.0330 -0.3599 -0.1160
17699W        W21999  17.876   5.170   6.552  0.1070  0.0287 -0.0219
17700W        W22000   3.836   5.623  11.564 -0.0255  0.1046 -0.1960
17701W        W22001  16.995   3.633   3.197 -0.2257 -0.0411 -0.2285
17702W        W22002  17.409   7.211   6.018 -0.4646 -0.4246 -0.1213
17703W        W22003  16.620   7.140  14.226  0.1132  0.2504 -0.1182
17704W        W22004   7.252   2.283  11.351 -0.1035  0.0250  0.0641
17705W        W22005   4.489   4.501  15.055  0.1483  0.1193 -0.1126
17706W        W22006   6.906   3.711  13.100  0.2112 -0.0433 -0.2722
17707W        W22007  13.536   5.100   4.208 -0.1738 -0.0101 -0.1138
17708W        W22008   6.645   7.473   6.791 -0.2109  0.2521 -0.0056
17709W        W22009  10.960   0.474   3.431  0.0258 -0.0986 -0.0685
17710W        W22010   9.819   3.494   7.413  0.4326 -0.2867  0.2781
17711W        W22011  23.414   6.581   5.905 -0.3567  0.1559  0.5585
17712W        W22012  22.047   4.598   8.569 -0.2435 -0.0209  0.1345
17713W        W22013  16.067   7.069  32.252  0.0352 -0.0087  0.2462
17714W        W22014  17.411   4.195  22.538 -0.1447  0.1050 -0.2990
17715W        W22015  19.400   3.148   3.938  0.2881 -0.1427 -0.1637
17716W        W22016  19.546   6.706  28.031 -0.2537  0.0515  0.0049
17717W        W22017  23.902   7.604  13.899  0.3212  0.1647  0.0268
17718W        W22018  14.174   1.023  30.793  0.2894 -0.2688 -0.0526
17719W        W22019  23.042   6.456  21.114  0.3342  0.0990  0.0324
17720W        W22020  24.478   1.009  11.788  0.1165 -0.3128 -0.1684
17721W        W22021   5.667   1.675  17.409 -0.0520 -0.0022  0.0897
17722W        W22022   3.045   1.544  15.888  0.0643  0.1680 -0.0352
17723W        W22023  23.847   4.000   1.978 -0.1748  0.1551 -0.0649
17724W        W22024   2.192   4.914   9.576  0.0843  0.1160 -0.0529
17725W        W22025   1.262   7.198  31.549 -0.0517 -0.2364  0.0920
17726W        W22026   6.574   0.546  27.338 -0.1420 -0.1173  0.1749
17727W        W22027  23.175   7.689  21.861  0.1329 -0.0537 -0.2665
17728W        W22028   4.859   1.604  22.916 -0.0937  0.0648 -0.0734
17729W        W22029   9.131   7.717   3.242 -0.1092  0.0420  0.1041
17730W        W22030  12.475   1.801  31.011 -0.1213 -0.0134 -0.1089
17731W        W22031  15.179   7.620  18.190  0.1501  0.1423 -0.1006
17732W        W22032   3.863   1.136  32.460  0.1370  0.0620 -0.2191
17733W        W22033   6.631   5.414  29.071 -0.1160  0.3181 -0.2812
17734W        W22034  17.176   1.135  32.858 -0.2644  0.0811  0.1102
17735W        W22035  21.267   5.648   9.684  0.4297  0.1137  0.0331
17736W        W22036  18.031   5.513   3.652 -0.2471  0.3083  0.1420
17737W        W22037   3.187   6.998  15.273 -0.0506 -0.0445  0.0139
17738W        W22038   5.267   5.043  13.304  0.0703 -0.0702  0.1365
17739W        W22039   4.468   1.393  16.929 -0.1207  0.0204  0.2554
17740W        W22040  16.827   6.373  30.566 -0.1881 -0.0955 -0.0831
17741W        W22041   9.342   5.363  27.490 -0.2220  0.0335 -0.0573
17742W        W22042   0.316   0.199  25.476 -0.2456 -0.1431  0.0390
17743W        W22043   6.943   2.210  10.989 -0.0018  0.2098 -0.1235
17744W        W22044  13.152   4.326  19.611  0.1606  0.0391  0.0614
17745W        W22045  24.653   6.508  10.936 -0.0023 -0.0454 -0.0603
17746W        W22046   1.431   7.301   9.155  0.1225  0.1276  0.0848
17747W        W22047  11.436   2.959  26.347  0.2704  0.1794 -0.2927
17748W        W22048  19.491   1.195  29.371  0.2181  0.1778 -0.0266
17749W        W22049  23.456   7.709  23.830 -0.1166 -0.0987  0.0825
17750W        W22050  22.982   3.998   1.530 -0.2373  0.2994  0.1727
17751W        W22051   3.031   7.246  17.228 -0.2241 -0.1104 -0.1617
17752W        W22052   0.567   7.498  32.368  0.2080  0.1916 -0.1973
17753W        W22053   9.846   6.645   4.667 -0.4251  0.1099  0.0654
17754W        W22054  15.690   6.486  15.158 -0.0082 -0.1351 -0.1279
17755W        W22055   3.874   4.861  16.741 -0.0406 -0.3197  0.1348
17756W        W22056  14.616   0.035  21.387 -0.0472 -0.2891  0.1562
17757W        W22057   2.679   0.378   1.334 -0.0184  0.1269 -0.2224
17758W        W22058  20.755   4.679  24.013 -0.1325  0.0044  0.1451
17759W        W22059   0.881   2.864  24.049  0.1333 -0.0153 -0.0494
17760W        W22060   9.270   2.434   6.029  0.0709  0.2439 -0.2658
17761W        W22061  14.862   1.872  26.202  0.1309 -0.1629  0.1261
17762W        W22062  18.513   6.386  18.098 -0.0718 -0.0655  0.2605
17763W        W22063  13.647   0.769   3.796 -0.0330 -0.2326 -0.1399
17764W        W22064  13.143   0.105   4.294  0.1202 -0.1377 -0.0428
17765W        W22065  13.076   3.777   6.656 -0.1342  0.3381 -0.3170
17766W        W22066   2.365   2.816  30.202  0.0007 -0.1206  0.2329
17767W        W22067   7.007   5.438   6.141  0.1163 -0.1389 -0.1375
17768W        W22068   4.522   1.177  25.892  0.1460 -0.2049 -0.0397
17769W        W22069   3.633   1.215   8.031 -0.3124  0.0785 -0.0236
17770W        W22070  16.906   3.041  27.914 -0.1577 -0.1181 -0.0095
17771W        W22071  11.917   6.066  32.544  0.1806  0.1835  0.0031
17772W        W22072  19.392   1.618  28.016 -0.1901  0.2064  0.0741
17773W        W22073  14.378   2.615  32.876 -0.1516  0.1234  0.1812
17774W        W22074  19.044   0.787  26.965  0.2184 -0.0307  0.0076
17775W        W22075  19.188   1.768  19.071  0.1783  0.0181 -0.0772
17776W        W22076   0.138   6.804   3.004  0.3926  0.0004 -0.1272
17777W        W22077  22.935   2.509  11.147 -0.1471 -0.1537 -0.0412
17778W        W22078  18.565   6.884  29.751  0.1709 -0.0666 -0.0464
17779W        W22079  20.711   2.879   3.324 -0.2389  0.0783 -0.6734
17780W        W22080   5.496   0.799  16.473  0.1999 -0.1584 -0.1557
17781W        W22081   9.878   7.306   7.314 -0.0023  0.1364 -0.0103
17782W        W22082  20.957   6.847  32.331  0.1913 -0.0410  0.0240
17783W        W22083  18.168   6.390  22.249  0.4412 -0.1589 -0.2342
17784W        W22084  15.152   4.989  16.195 -0.0678  0.1897  0.1321
17785W        W22085   5.343   3.400  25.051 -0.2439  0.0056  0.4913
17786W        W22086   9.093   7.288  10.540 -0.1097 -0.0562 -0.3093
17787W        W22087  24.595   0.927   6.285 -0.3473  0.0322  0.0694
17788W        W22088   1.150   4.638  32.388 -0.0823 -0.1741 -0.0200
17789W        W22089  16.340   4.330  26.342  0.0374  0.1129 -0.0015
17790W        W22090  10.633   4.989  28.752  0.1975  0.0031 -0.3195
17791W        W22091  24.301   6.818   8.235  0.0845 -0.0602 -0.1567
17792W        W22092   7.287   4.019  31.344  0.1251  0.0275  0.0774
17793W        W22093   8.313   7.198  29.336  0.3845 -0.0309  0.2192
17794W        W22094   3.095   0.067  29.722  0.1363  0.0262  0.0955
17795W        W22095  11.257   0.218  25.677  0.0437 -0.1645  0.1802
17796W        W22096   9.610   4.546   0.127 -0.0936  0.2433 -0.1474
17797W        W22097   5.383   1.390   8.278  0.0776  0.1392 -0.1055
17798W        W22098  22.359   5.474   2.152 -0.1434 -0.1646  0.0146
17799W        W22099  22.272   3.351   8.013 -0.1305 -0.0685 -0.2313
17800W        W22100   5.819   5.848  23.000 -0.0430  0.1033  0.0501
17801W        W22101  24.874   3.305   3.927 -0.3566  0.1332 -0.0269
17802W        W22102  12.962   3.483  19.573 -0.1325  0.1945  0.0332
17803W        W22103   5.262   4.924  25.373  0.0667 -0.3166 -0.0651
17804W        W22104   8.562   2.610   4.966 -0.0344 -0.1694 -0.0625
17805W        W22105  14.702   1.101   9.539  0.0467  0.0112  0.1067
17806W        W22106  17.869   4.245  24.688 -0.2500  0.1659  0.0720
17807W        W22107  11.418   5.223   4.964  0.2006  0.1646 -0.1939
17808W        W22108  17.385   7.314   7.339  0.1430 -0.2999 -0.1150
17809W        W22109  15.668   2.253  19.109 -0.1787  0.2236 -0.0859
17810W        W22110   4.170   4.920   9.739  0.1708 -0.2603  0.0499
17811W        W22111   6.474   0.300  26.895 -0.4124 -0.2501 -0.0810
17812W        W22112  20.611   5.811   3.563  0.0199 -0.1136 -0.0260
17813W        W22113  24.345   2.351  26.284  0.0540  0.1465  0.0285
17814W        W22114  17.675   5.977  32.093  0.0972 -0.0054 -0.5644
17815W        W22115  18.717   3.533  15.755 -0.0808 -0.0009  0.1690
17816W        W22116   6.573   6.488  25.289 -0.1562 -0.0213 -0.0207
17817W        W22117   3.074   3.526  17.309  0.1072 -0.0441  0.1054
17818W        W22118  15.285   3.266  23.309 -0.1093 -0.1004 -0.2057
17819W        W22119  11.515   3.919  24.475  0.1167  0.3275 -0.1009
17820W        W22120  22.977   7.229  28.438 -0.0230  0.1445 -0.1141
17821W        W22121   3.464   4.814   4.815  0.0022 -0.2523  0.0110
17822W        W22122  20.596   1.945   7.014 -0.2612 -0.2094 -0.0765
17823W        W22123  15.135   2.983  19.396  0.1547 -0.0342 -0.2916
17824W        W22124  20.037   0.348  18.457  0.0593  0.0698  0.2595
17825W        W22125   4.919   6.722   5.176 -0.2112  0.1997 -0.0529
17826W        W22126   1.811   1.631   7.604 -0.1681 -0.3362 -0.0179
17827W        W22127  20.616   5.652  31.076 -0.0653 -0.1861  0.0937
17828W        W22128   1.219   2.571   4.092 -0.0161  0.0822 -0.2114
17829W        W22129   6.146   5.561  26.263  0.1656  0.1689  0.0081
17830W        W22130   1.986   5.154  28.925 -0.0587 -0.0602  0.0810
17831W        W22131   9.725   2.581   9.546  0.1192 -0.0851  0.1689
17832W        W22132  24.905   3.243  30.950  0.0533 -0.1983 -0.2703
17833W        W22133  22.615   7.601  28.959  0.2751 -0.2430 -0.1824
17834W        W22134  23.771   5.809  10.275 -0.0740 -0.4557  0.0026
17835W        W22135  14.569   7.430   6.400 -0.2779  0.0248 -0.0447
17836W        W22136   8.607   0.626   7.559 -0.0873 -0.2599 -0.2490
17837W        W22137  16.122   4.659  20.360 -0.1162 -0.1406 -0.1006
17838W        W22138  13.051   5.355  26.011  0.2529  0.1292  0.0278
17839W        W22139  19.898   3.559  20.961  0.1363  0.0723 -0.2048
17840W        W22140  11.670   7.234  25.138  0.0034 -0.4245 -0.0606
17841W        W22141  11.426   5.087  26.610 -0.0735  0.3490  0.0301
17842W        W22142  13.317   3.810  20.868  0.0807 -0.3783  0.2237
17843W        W22143   2.464   2.905  31.161 -0.1320 -0.0184  0.1604
17844W        W22144  14.004   1.725  31.127 -0.1383 -0.1395 -0.0845
17845W        W22145   9.299   4.893  12.674 -0.0322  0.0124  0.3347
17846W        W22146  17.634   7.387  15.803  0.0187 -0.1139  0.0395
17847W        W22147  17.126   0.188  24.493  0.1401 -0.0907 -0.1903
17848W        W22148   4.707   7.201  31.473 -0.1668  0.0119  0.2442
17849W        W22149  20.867   3.247  25.456  0.0126  0.1350 -0.3117
17850W        W22150   4.458   5.335  24.174  0.1179  0.0470 -0.2162
17851W        W22151   9.036   2.945  25.432 -0.3463  0.0361  0.1303
17852W        W22152   2.727   0.354  32.428 -0.0581  0.0417  0.3449
17853W        W22153   4.562   7.548  25.689  0.4822  0.1286 -0.2704
17854W        W22154  12.957   3.792  32.842 -0.0218  0.1440 -0.1068
17855W        W22155  24.826   0.145  32.300 -0.0456  0.0703  0.2171
17856W        W22156   6.871   6.175  25.935  0.0778  0.1895 -0.1414
17857W        W22157  19.731   7.689  29.279  0.0931  0.1377  0.0054
17858W        W22158  10.474   4.217  29.375 -0.2441  0.0812  0.0151
17859W        W22159  24.010   7.742   9.400  0.0662  0.1425  0.1899
17860W        W22160   5.719   3.972  12.582 -0.0807  0.0760 -0.2194
17861W        W22161  15.040   7.771  21.110  0.1164  0.2402  0.4191
17862W        W22162  24.138   7.288  11.357 -0.1234  0.1494 -0.2997
17863W        W22163  11.684   0.097   4.670 -0.3809 -0.0091 -0.0242
17864W        W22164  15.574   7.209   9.778 -0.0131 -0.1187  0.5958
17865W        W22165  16.579   1.693   0.854  0.5349 -0.0110 -0.1587
17866W        W22166  24.797   5.909  32.719  0.1405 -0.1597 -0.0024
17867W        W22167  21.379   3.321  25.328 -0.0018 -0.0214  0.0668
17868W        W22168  14.329   5.655   5.578 -0.0665  0.0682  0.1056
17869W        W22169  18.045   7.519  16.460  0.0433  0.1003  0.0103
17870W        W22170  10.493   6.630  25.052  0.0356  0.3268  0.1768
17871W        W22171   2.146   4.917   5.393 -0.4918  0.0317 -0.2827
17872W        W22172  17.919   4.576  17.061  0.0575  0.2242 -0.1502
17873W        W22173  21.930   7.009   5.716  0.2681  0.2403 -0.1715
17874W        W22174  11.036   5.389  19.474  0.1654  0.0258 -0.0296
17875W        W22175   5.836   7.204   7.257  0.0639  0.0011 -0.1497
17876W        W22176   8.893   7.259  29.466 -0.1653 -0.0044 -0.1068
17877W        W22177  24.346   6.680   8.757 -0.4666  0.0078  0.3132
17878W        W22178  20.446   0.144  11.484 -0.1070  0.0962  0.0434
17879W        W22179   9.481   7.441  29.045 -0.1534 -0.2131  0.0495
17880W        W22180   2.850   3.896   8.371  0.0552  0.2054 -0.1247
17881W        W22181   4.787   3.285  32.897  0.0614 -0.1612  0.0023
17882W        W22182  19.609   2.221   5.145 -0.1231 -0.0720  0.2233
17883W        W22183  21.987   6.355   1.746  0.1482 -0.1492  0.2794
17884W        W22184  14.452   0.545  32.123 -0.1729  0.2015 -0.2099
17885W        W22185  21.628   5.927  24.336 -0.0911  0.0972  0.2332
17886W        W22186  22.483   0.959   9.780 -0.0610  0.0330 -0.0480
17887W        W22187  21.972   1.834  11.905 -0.1751  0.0631 -0.1266
17888W        W22188  12.233   5.311   3.459 -0.0873  0.1869  0.0370
17889W        W22189  10.524   6.696  24.124 -0.0247 -0.2197  0.1808
17890W        W22190  14.988   7.382  20.293 -0.1104 -0.1596 -0.1750
17891W        W22191  15.605   6.089   9.319  0.5204  0.2290  0.1346
17892W        W22192  22.661   5.935  21.820 -0.1905 -0.1276  0.0189
17893W        W22193   0.586   0.559   1.739  0.1298 -0.0197  0.1378
17894W        W22194   1.999   4.015  14.810 -0.1040  0.3730  0.0432
17895W        W22195  18.892   4.759  15.963 -0.2140 -0.1732 -0.0657
17896W        W22196  16.957   5.905   3.109 -0.1402  0.1563  0.2384
17897W        W22197  17.098   4.049   5.671  0.1185 -0.0616 -0.1087
17898W        W22198   2.759   6.613  10.683 -0.1363 -0.0859 -0.1953
17899W        W22199   4.322   3.616   1.759  0.0424  0.1726 -0.2336
17900W        W22200  21.314   2.736  23.993 -0.1173  0.1812  0.1761
17901W        W22201   0.045   5.542  11.318  0.0653  0.1620 -0.4829
17902W        W22202  24.670   4.161  30.577  0.3407 -0.1150 -0.0053
17903W        W22203  12.738   6.019  18.662 -0.2097  0.2874  0.1398
17904W        W22204  16.333   5.648  26.864  0.2185 -0.2171 -0.0351
17905W        W22205  10.335   2.199   5.776 -0.0853  0.0019 -0.0128
17906W        W22206  14.904   4.765   8.765  0.0519 -0.0936 -0.0515
17907W        W22207  15.151   3.700  23.587 -0.1057  0.0560  0.1067
17908W        W22208  12.225   6.699   1.656 -0.0467 -0.2939  0.0637
17909W        W22209  22.768   7.384  26.294  0.0191  0.3140 -0.0776
17910W        W22210   2.353   3.250   7.382  0.0256  0.1108  0.4691
17911W        W22211   0.707   7.452   1.766  0.0013  0.0614 -0.0875
17912W        W22212  12.025   4.772   8.870 -0.1074  0.3658 -0.0192
17913W        W22213   8.855   1.443  10.971 -0.0287 -0.0423  0.3541
17914W        W22214   2.287   5.546   1.500 -0.0174 -0.2511  0.0889
17915W        W22215  19.753   5.743   1.752  0.0765  0.0853 -0.2090
17916W        W22216  19.297   6.128  29.161 -0.1606 -0.0051  0.2472
17917W        W22217  16.187   6.102  27.947  0.2632 -0.2994 -0.0060
17918W        W22218   9.387   6.199   6.618 -0.0479  0.2994 -0.0487
17919W        W22219   3.961   3.848  28.045 -0.1809 -0.0106 -0.0351
17920W        W22220   2.719   5.683  22.152 -0.1572 -0.1717  0.2858
17921W        W22221  16.278   4.934   3.646 -0.0119 -0.0426 -0.2452
17922W        W22222   5.300   1.447   0.526 -0.2099  0.2534  0.2641
17923W        W22223  17.799   6.459  23.267 -0.3594 -0.1435 -0.1673
17924W        W22224   3.313   1.642   7.980 -0.0911  0.1410 -0.1086
17925W        W22225   0.474   1.292  15.919 -0.1490 -0.0116  0.1111
17926W        W22226   4.796   1.397  29.388  0.0465  0.0223  0.0558
17927W        W22227  15.526   0.672  25.581 -0.1256  0.0852  0.0039
17928W        W22228  11.054   6.051   3.283 -0.5857  0.1950  0.1377
17929W        W22229  22.193   2.521   3.578 -0.2203  0.1050  0.2077
17930W        W22230   2.843   4.858  24.991 -0.1325 -0.1647  0.0635
17931W        W22231   3.269   3.129   8.597  0.0369 -0.0945 -0.0037
17932W        W22232  15.569   0.681  25.112 -0.2522 -0.0990  0.2308
17933W        W22233   7.284   6.649  27.792  0.1364  0.0447 -0.3379
17934W        W22234  16.545   1.835  28.476 -0.1613  0.0840 -0.2245
17935W        W22235  16.805   3.022  31.382 -0.0236 -0.0170  0.0402
17936W        W22236  16.733   0.273   9.699 -0.0498  0.2030 -0.2757
17937W        W22237  12.203   1.944  31.417  0.1128 -0.0106 -0.0275
17938W        W22238  12.884   7.142   6.191  0.2636 -0.1402  0.3326
17939W        W22239  23.460   1.983  24.769  0.1597  0.0646  0.1704
17940W        W22240   2.375   0.270  26.304 -0.1403  0.1023  0.0466
17941W        W22241   3.398   6.699  24.111  0.3020 -0.0084 -0.0213
17942W        W22242  17.215   0.921  21.821 -0.0657 -0.0110 -0.0511
17943W        W22243  22.598   2.104  21.563  0.0868 -0.0118  0.2629
17944W        W22244  21.709   6.318   0.855 -0.1877  0.1092  0.2816
17945W        W22245   3.094   3.941   3.687  0.1738 -0.0272  0.3137
17946W        W22246  10.791   0.659  27.738 -0.0432  0.0778  0.4681
17947W        W22247  20.851   4.588  19.155  0.2295  0.2229 -0.0509
17948W        W22248   6.519   0.581  12.359 -0.0147 -0.1667  0.0044
17949W        W22249  16.097   7.415   1.567 -0.0284  0.1610 -0.3149
17950W        W22250   9.961   4.233   6.762  0.1243  0.0299 -0.2964
17951W        W22251  19.303   2.478  31.662 -0.3008  0.0661 -0.0283
17952W        W22252  18.950   3.353   6.653 -0.1300  0.0112  0.4197
17953W        W22253   5.598   7.408  13.399  0.2012 -0.2581  0.1241
17954W        W22254  12.404   4.747  22.318 -0.0829 -0.0006 -0.1860
17955W        W22255   6.837   1.452   7.350  0.1396  0.0800  0.0757
17956W        W22256   4.977   0.280  14.677 -0.2045 -0.1101  0.0920
17957W        W22257  21.019   0.319   0.445 -0.1026 -0.1196  0.0066
17958W        W22258  17.942   5.607  16.027  0.1351 -0.2639  0.2476
17959W        W22259   3.187   0.644   8.040 -0.3247  0.0908 -0.0791
17960W        W22260   4.206   1.005  24.133  0.0547  0.0154  0.0111
17961W        W22261   9.100   0.523  24.709 -0.1282  0.1273 -0.0907
17962W        W22262   1.816   3.611  16.998 -0.1152  0.0469 -0.1052
17963W        W22263   4.108   3.520  23.017  0.1176  0.0076  0.2115
17964W        W22264  21.693   2.094  20.826  0.1578 -0.3044  0.0858
17965W        W22265  12.176   7.348  19.443 -0.1961  0.0863  0.3415
17966W        W22266   9.831   2.673   8.790  0.1084  0.0914  0.0536
17967W        W22267  19.063   2.406  29.390  0.1133  0.0976 -0.2320
17968W        W22268  19.009   6.129  23.654 -0.0125 -0.0085 -0.0766
17969W        W22269  13.004   0.731   2.605 -0.1182 -0.3141  0.2413
17970W        W22270  23.544   4.851  24.825 -0.0326  0.1456 -0.2920
17971W        W22271  19.181   6.946   8.227 -0.2306  0.0871  0.2933
17972W        W22272   8.025   2.807   3.858 -0.0207 -0.2653 -0.2048
17973W        W22273   3.508   6.829  12.218 -0.0895 -0.2589  0.0731
17974W        W22274  20.348   3.971   7.991  0.0193 -0.2679 -0.2155
17975W        W22275  19.457   2.774   3.550  0.1240 -0.3946 -0.2301
17976W        W22276   9.295   5.469  22.698 -0.0152 -0.1598 -0.0065
17977W        W22277  20.677   5.919  25.725 -0.0032 -0.0304  0.3392
17978W        W22278   4.046   2.609   4.722 -0.2159  0.1360  0.1432
17979W        W22279   4.384   3.320   9.779 -0.1125  0.1684  0.1546
17980W        W22280   8.454   0.588   6.227  0.1608  0.3518 -0.1898
17981W        W22281  11.346   3.254   7.418 -0.0886  0.0831 -0.0022
17982W        W22282  20.215   5.523   4.965 -0.0798  0.4204 -0.0544
17983W        W22283  15.503   1.399  16.489 -0.2122 -0.0601 -0.3255
17984W        W22284   7.938   2.958   9.154  0.0582  0.0730  0.1524
17985W        W22285  22.991   0.890  20.827  0.0104 -0.1790 -0.2001
17986W        W22286  10.943   5.279  28.380  0.0167 -0.0850  0.0989
17987W        W22287  15.204   0.020   0.756  0.0422 -0.0881 -0.1946
17988W        W22288  18.290   0.540  32.485  0.1194  0.0246 -0.0271
17989W        W22289  17.631   5.461  20.456  0.1871  0.0881 -0.1350
17990W        W22290  15.694   7.500  17.615 -0.1535  0.1829  0.0438
17991W        W22291   7.848   0.110  28.381  0.2137  0.1522  0.1523
17992W        W22292  21.427   3.568  26.853 -0.1291  0.2713  0.0846
17993W        W22293  12.803   1.001  17.767 -0.2960  0.0501 -0.1453
17994W        W22294   6.253   4.485   3.761 -0.3552  0.1543  0.0528
17995W        W22295  17.918   4.537   2.406  0.0744  0.2682  0.1018
17996W        W22296  23.702   0.108  26.509  0.1769  0.0299  0.0942
17997W        W22297   5.864   0.680  11.130  0.0161 -0.1660 -0.1467
17998W        W22298  17.743   2.960  18.842 -0.0257 -0.0351  0.0240
17999W        W22299  18.049   6.046   1.233 -0.0041  0.2581  0.0448
18000W        W22300  12.063   7.027  24.083  0.0399  0.0016 -0.4523
18001W        W22301  23.781   5.483  23.634  0.1932 -0.1745 -0.2544
18002W        W22302  14.016   3.240   5.434 -0.0821  0.0982  0.1265
18003W        W22303   6.225   6.690   7.643  0.1803  0.1646  0.2089
18004W        W22304  16.852   7.022  16.777 -0.3948 -0.2323 -0.2235
18005W        W22305  20.954   4.064  21.477  0.2059 -0.0642 -0.1813
18006W        W22306   8.739   3.078   4.913 -0.3021 -0.0842  0.2852
18007W        W22307  14.052   1.101  17.522 -0.0000 -0.1358 -0.1164
18008W        W22308   7.787   7.442   4.960  0.0734  0.0635 -0.3701
18009W        W22309  17.564   3.829   5.726  0.0058  0.0807  0.0980
18010W        W22310  11.257   0.953  11.705 -0.0531 -0.4365 -0.1514
18011W        W22311   3.528   6.770  15.917  0.0998  0.1159  0.0817
18012W        W22312   8.605   6.482  30.310 -0.3069 -0.0014 -0.0264
18013W        W22313   3.123   2.529  32.960  0.1247 -0.1774 -0.0303
18014W        W22314  23.687   2.102  12.730 -0.1582  0.1303  0.0061
18015W        W22315  16.659   3.499   4.000  0.0443  0.0641 -0.1097
18016W        W22316   9.182   5.668  12.641 -0.0689 -0.2405  0.2273
18017W        W22317  12.571   2.964   9.172  0.3745 -0.2955 -0.1781
18018W        W22318  11.419   6.415  20.634  0.0396 -0.1463  0.2504
18019W        W22319   1.939   5.739  26.232 -0.0215  0.0334  0.0476
18020W        W22320   5.352   6.537  17.072  0.0697  0.0077 -0.1155
18021W        W22321  20.538   7.107  26.424  0.1694  0.1741  0.1791
18022W        W22322   8.049   1.723   9.731  0.1428  0.0256  0.2172
18023W        W22323  15.554   2.093  22.649  0.3195  0.0235 -0.0408
18024W        W22324   2.068   6.694  29.988 -0.2217 -0.2591  0.0828
18025W        W22325  11.764   1.385  19.898  0.0345 -0.1270 -0.0222
18026W        W22326   3.809   6.537  11.921 -0.0959  0.1421  0.1987
18027W        W22327   9.808   3.527  26.798 -0.1506  0.1097  0.0902
18028W        W22328  23.261   0.606  28.833  0.0265 -0.1453  0.1972
18029W        W22329   5.920   6.150   1.633  0.0482  0.2191  0.0483
18030W        W22330  19.040   4.171  30.322  0.0846  0.4320  0.0092
18031W        W22331  24.746   0.971  14.703 -0.1983 -0.2283 -0.0835
18032W        W22332  15.595   5.316  21.442 -0.1206 -0.0874  0.2559
18033W        W22333  14.293   1.187  22.125  0.2370 -0.0193  0.1045
18034W        W22334   4.710   5.939   1.006 -0.1122 -0.2078 -0.2924
18035W        W22335  13.496   0.059   6.079 -0.2059  0.2633  0.0113
18036W        W22336  11.979   0.637  29.777 -0.0485  0.2236  0.3397
18037W        W22337   0.298   7.691  14.755  0.0815  0.1714 -0.1124
18038W        W22338  13.399   2.856  28.976 -0.0816 -0.2225 -0.4119
18039W        W22339  10.217   0.648   1.625  0.2166  0.0817  0.2590
18040W        W22340  14.679   4.967  31.463  0.1209 -0.2058  0.2540
18041W        W22341   2.660   6.189  14.853  0.1323  0.0244  0.0259
18042W        W22342  20.560   7.793   4.339 -0.0450  0.2520 -0.0483
18043W        W22343   7.862   4.606  24.947 -0.0785 -0.1273  0.1324
18044W        W22344   6.898   1.603  23.180  0.0347  0.0224  0.2724
18045W        W22345   2.516   7.262   7.405 -0.1514  0.2201  0.4648
18046W        W22346  11.415   3.575  20.186  0.3650 -0.1335 -0.1087
18047W        W22347  12.877   5.144   0.814  0.0068 -0.0596  0.1268
18048W        W22348  22.352   6.193  32.523  0.2437 -0.0469  0.2185
18049W        W22349   7.033   2.142  22.960  0.2520 -0.0030  0.1887
18050W        W22350  23.659   0.022  13.301  0.3589 -0.1845  0.0819
18051W        W22351  14.239   2.255  27.674 -0.1198 -0.2342  0.0345
18052W        W22352   7.624   0.736  10.005  0.4273  0.0864  0.0331
18053W        W22353  17.718   2.624  17.453 -0.1225 -0.1292 -0.2170
18054W        W22354   4.698   3.731   9.954  0.2547 -0.0921  0.0256
18055W        W22355   5.532   0.207  15.396 -0.1733 -0.0295  0.0946
18056W        W22356  21.286   3.985  26.570 -0.0101 -0.0352 -0.0189
18057W        W22357  21.652   7.268  28.547  0.1643  0.0182  0.1371
18058W        W22358   7.044   5.425   7.792  0.1246  0.2158 -0.2923
18059W        W22359  17.259   0.976  19.363 -0.1033  0.0356  0.0331
18060W        W22360   4.396   4.899  14.309  0.3706 -0.3421 -0.0468
18061W        W22361  20.865   3.441  30.797 -0.2857  0.1475 -0.4287
18062W        W22362  23.016   3.376   3.423 -0.2131 -0.1231  0.2416
18063W        W22363  12.704   4.570  19.738  0.0283 -0.0973  0.2083
18064W        W22364   0.430   2.949   9.718 -0.1044 -0.1453  0.1120
18065W        W22365  18.772   5.413  19.345 -0.0896  0.2587 -0.0507
18066W        W22366   4.510   4.227  27.311  0.2670 -0.1932 -0.0004
18067W        W22367  12.439   1.174   1.110  0.0730 -0.0184  0.3027
18068W        W22368  10.204   1.347   7.983 -0.1371  0.2041 -0.3766
18069W        W22369   4.988   2.838  28.415 -0.0271 -0.2391 -0.1358
18070W        W22370  19.437   4.650   5.978  0.0265  0.1492 -0.2257
18071W        W22371   0.107   7.568   4.953 -0.2090 -0.0796 -0.3029
18072W        W22372  10.365   1.476  27.888  0.3600 -0.1376  0.0853
18073W        W22373  17.004   1.139  24.556  0.0582 -0.0622 -0.0364
18074W        W22374   1.687   2.364   1.258 -0.2600  0.1597 -0.0312
18075W        W22375   7.560   2.776   6.185 -0.1492  0.1516 -0.2042
18076W        W22376  19.583   7.352  18.030  0.0239 -0.0441  0.2858
18077W        W22377  22.339   2.949   8.857  0.1618 -0.0258 -0.1072
18078W        W22378  20.868   6.440  32.721 -0.0539  0.1986  0.0182
18079W        W22379   3.065   5.513   9.389 -0.0809  0.2971 -0.3322
18080W        W22380   2.049   5.820   3.527 -0.1869 -0.3425  0.0158
18081W        W22381   6.686   2.749   5.911  0.1457  0.0584 -0.1342
18082W        W22382  24.151   6.735  27.218 -0.1765 -0.1720 -0.2528
18083W        W22383   7.098   1.392  30.915  0.1828  0.3133  0.3133
18084W        W22384  11.040   1.590   1.709 -0.0537  0.0028 -0.0017
18085W        W22385  14.134   5.256   6.414 -0.1498 -0.1291 -0.2355
18086W        W22386  10.780   7.339  12.551 -0.3568  0.1761  0.2952
18087W        W22387  13.589   7.088  23.196  0.0412 -0.0070 -0.1742
18088W        W22388  24.105   5.100  14.778  0.4389 -0.0141  0.1716
18089W        W22389  14.741   0.723  19.986  0.0814  0.1069  0.2137
18090W        W22390   8.556   7.353  29.830  0.2656 -0.3838  0.3956
18091W        W22391   3.105   7.571   6.728  0.0812 -0.1732 -0.1031
18092W        W22392  13.438   3.033  22.698 -0.0892  0.0535 -0.3883
18093W        W22393  19.671   4.785   6.902 -0.0604  0.0976  0.2010
18094W        W22394  12.871   7.671   7.511 -0.2113 -0.0105  0.2276
18095W        W22395  24.278   5.690  20.890  0.0610 -0.2167  0.0538
18096W        W22396   4.307   6.950  32.215  0.2628  0.0295 -0.3267
18097W        W22397  16.722   2.435   2.970 -0.0303 -0.0158 -0.0194
18098W        W22398   2.313   1.181   4.874  0.2268  0.1356  0.1494
18099W        W22399   0.997   0.591  12.850  0.0966  0.0370 -0.3755
18100W        W22400  23.394   1.075  31.737 -0.4513  0.1070  0.1766
18101W        W22401   9.139   6.176  23.491 -0.3825  0.0020 -0.1494
18102W        W22402  11.237   1.084  12.245  0.1790  0.2163  0.1572
18103W        W22403   5.111   2.076  13.810 -0.0703 -0.2159 -0.0261
18104W        W22404   8.995   0.097  13.081  0.1203  0.0678 -0.0673
18105W        W22405  15.252   4.425   4.620 -0.0265  0.1641  0.0221
18106W        W22406  22.986   3.137  30.915  0.0144 -0.0594  0.2062
18107W        W22407  18.570   3.564  27.246 -0.1749 -0.0481  0.2512
18108W        W22408  18.216   3.808  15.703 -0.0152  0.0390 -0.2034
18109W        W22409   1.275   6.011  29.986 -0.2568  0.2070  0.0925
18110W        W22410  18.633   4.856   9.197  0.0828 -0.2356 -0.0063
18111W        W22411  24.492   3.436  22.859  0.1088  0.3537 -0.1321
18112W        W22412  24.629   0.318   3.268  0.1179  0.2818  0.0109
18113W        W22413  14.044   4.440  21.166  0.1333  0.0992 -0.0042
18114W        W22414   1.156   4.992  27.911 -0.2185 -0.1656 -0.0183
18115W        W22415  21.937   2.831  32.388 -0.0081 -0.0913  0.1734
18116W        W22416   6.147   0.979   7.615  0.0972 -0.2161 -0.1118
18117W        W22417   1.142   7.508   3.066  0.1080  0.0415 -0.2685
18118W        W22418  20.826   6.078  28.143  0.0457 -0.1241  0.0082
18119W        W22419  13.151   5.735   1.399 -0.3659  0.2361  0.0376
18120W        W22420   9.889   2.224  29.127 -0.2828 -0.0848  0.3060
18121W        W22421  23.240   5.900  21.346  0.0050  0.1213  0.1940
18122W        W22422   6.478   3.074  15.395  0.0004 -0.0299 -0.1043
18123W        W22423   9.236   5.583  28.399 -0.0031 -0.0692  0.1535
18124W        W22424  23.776   6.852  26.794 -0.0217  0.0127 -0.2519
18125W        W22425   3.883   1.748   5.345 -0.4625  0.0351 -0.0314
18126W        W22426  22.989   7.134   7.050  0.3749 -0.1035  0.4261
18127W        W22427   6.803   5.815  24.019 -0.0596 -0.3560 -0.2520
18128W        W22428  16.423   3.839   8.344  0.0557 -0.0212  0.0746
18129W        W22429   8.818   0.715  13.141  0.2012 -0.0444  0.3300
18130W        W22430  11.471   6.067   3.570 -0.0648 -0.0480  0.0693
18131W        W22431  23.793   3.386  10.509  0.3662  0.1268  0.3357
18132W        W22432  11.367   1.699  10.002  0.1179 -0.1427 -0.0435
18133W        W22433  11.150   0.777  26.273 -0.0529 -0.3532 -0.1670
18134W        W22434   3.363   1.859  31.872 -0.0646  0.0431  0.1449
18135W        W22435  18.660   3.023   1.480 -0.1300 -0.0516 -0.0525
18136W        W22436  13.165   5.430  21.584  0.1160  0.0801 -0.1625
18137W        W22437   0.318   1.166  14.903 -0.0289  0.0243  0.1923
18138W        W22438  19.596   4.220  23.250  0.0193 -0.1576  0.0034
18139W        W22439  17.662   2.793  20.650 -0.4678  0.1157  0.1168
18140W        W22440   9.279   3.751   1.220 -0.0223 -0.1909 -0.2224
18141W        W22441   3.148   0.620  14.367  0.0482 -0.1909  0.1784
18142W        W22442  17.387   1.285  29.150 -0.3078  0.0627  0.0716
18143W        W22443   4.691   4.897  13.369  0.3434 -0.1324  0.0183
18144W        W22444  21.720   4.723  21.922 -0.0633  0.2275  0.0218
18145W        W22445   5.963   6.564  29.449  0.1673 -0.3201  0.0242
18146W        W22446   4.869   7.154   6.281  0.0962 -0.1999 -0.3760
18147W        W22447  21.777   1.095  18.771 -0.3424 -0.3628  0.1761
18148W        W22448  10.413   7.020  12.621  0.4758 -0.1938 -0.2162
18149W        W22449   1.142   3.605  23.507  0.2670 -0.0671  0.0079
18150W        W22450  23.754   1.855  22.133 -0.3226  0.1760  0.0411
18151W        W22451  13.813   5.574  16.383 -0.1484 -0.4355 -0.0269
18152W        W22452   7.267   2.258  22.170  0.1285 -0.0111 -0.0367
18153W        W22453  21.180   3.785  22.787 -0.0374 -0.0486  0.0578
18154W        W22454  11.442   5.604  31.309  0.1182  0.1955 -0.1087
18155W        W22455  24.741   6.576   6.380  0.1291  0.2362 -0.0942
18156W        W22456   5.262   0.792   7.063 -0.2834  0.2260 -0.2716
18157W        W22457  14.280   7.624  16.156 -0.3391 -0.0219 -0.0331
18158W        W22458   9.813   3.298   2.634 -0.0923 -0.0797 -0.0882
18159W        W22459  17.247   3.164  10.387 -0.2332  0.0527 -0.4098
18160W        W22460  13.869   5.480  29.048  0.1861 -0.1081 -0.1047
18161W        W22461  22.727   4.993  28.747  0.0711 -0.4051  0.2012
18162W        W22462  12.318   0.259  31.919 -0.1612 -0.0878 -0.0548
18163W        W22463   7.392   3.733  30.074 -0.0017  0.1476  0.1231
18164W        W22464  18.412   7.196  18.220  0.1612 -0.0454  0.3322
18165W        W22465  12.837   6.179  10.554  0.0330 -0.0804  0.2385
18166W        W22466  17.935   4.936   0.073 -0.0591 -0.0960  0.1930
18167W        W22467  14.964   1.844  20.870  0.0980  0.0810  0.1012
18168W        W22468   8.107   6.783  14.752 -0.1378  0.0617 -0.0706
18169W        W22469   9.416   7.179  31.985  0.4561  0.0167  0.2440
18170W        W22470  11.235   5.580  28.663  0.1161  0.0642 -0.1068
18171W        W22471   0.454   1.805   7.162  0.0948  0.2198 -0.1698
18172W        W22472  11.260   2.656  20.244 -0.3278 -0.0646 -0.3294
18173W        W22473  19.481   0.751  25.335 -0.2200  0.0475  0.0161
18174W        W22474  21.568   1.889  12.415  0.2346  0.0110  0.1556
18175W        W22475  14.305   3.824   4.395  0.3131 -0.0354  0.0231
18176W        W22476  24.155   5.204  24.247  0.1088 -0.3068 -0.3741
18177W        W22477  19.904   4.010  31.725  0.0498  0.3446 -0.3303
18178W        W22478   3.319   5.700  24.579 -0.0832 -0.2303  0.2131
18179W        W22479  21.746   1.256   1.450 -0.0251  0.0383 -0.0020
18180W        W22480  17.742   2.637   0.988 -0.1608  0.0640 -0.0045
18181W        W22481  22.947   2.330  32.574 -0.5399 -0.2304  0.1388
18182W        W22482  13.529   2.532   9.538 -0.0448 -0.0276  0.1731
18183W        W22483  22.993   6.156   3.114  0.0411  0.1314 -0.0611
18184W        W22484   5.700   6.110   3.296 -0.1805 -0.0145  0.2625
18185W        W22485  14.178   5.857   2.432 -0.0710  0.0952  0.3111
18186W        W22486   6.726   2.088  10.583  0.0079  0.2578  0.1604
18187W        W22487   8.205   0.947  25.830  0.2449 -0.2094 -0.1983
18188W        W22488   2.584   3.209   3.022  0.1140 -0.1285  0.0387
18189W        W22489  22.785   3.121   8.622  0.0238  0.0272  0.3526
18190W        W22490  24.556   6.548  25.963  0.0041 -0.1368 -0.1936
18191W        W22491  11.372   2.475  18.992  0.1362  0.1895 -0.4900
18192W        W22492  24.305   4.664   0.472 -0.0586  0.1459  0.2222
18193W        W22493  10.375   7.529  21.566 -0.1769  0.0542  0.2963
18194W        W22494  21.671   7.393  29.099  0.2501  0.1925 -0.1695
18195W        W22495   6.441   5.398  14.781  0.2330  0.1526 -0.1768
18196W        W22496  24.964   3.562  22.945  0.2750 -0.1703  0.1618
18197W        W22497  14.931   0.556   2.732  0.0338 -0.1766 -0.2095
18198W        W22498   1.976   6.984  28.188 -0.1326  0.0071  0.2359
18199W        W22499  15.039   0.953  25.423  0.2191 -0.0063  0.0765
18200W        W22500  14.707   7.642  28.853 -0.0383  0.1394  0.1026
18201W        W22501  20.083   1.859  19.621  0.0865 -0.0243  0.2595
18202W        W22502   5.220   7.253   6.875 -0.2762  0.1687  0.1544
18203W        W22503  11.373   0.512   5.320 -0.0050  0.0730 -0.1346
18204W        W22504   0.486   0.520   2.242 -0.1363 -0.0974  0.2112
18205W        W22505  19.768   1.995  17.614  0.1985 -0.0649 -0.0316
18206W        W22506   8.250   3.496   7.091 -0.1968  0.2966 -0.0710
18207W        W22507  14.813   5.651  29.938  0.0926  0.0354 -0.0027
18208W        W22508   9.901   4.976   0.122  0.2383 -0.0171 -0.0307
18209W        W22509   8.510   6.181   9.918  0.0529  0.1302 -0.0264
18210W        W22510   2.414   6.991  32.123  0.2553  0.0072 -0.0385
18211W        W22511   5.267   0.993   6.517 -0.1309 -0.0542  0.1508
18212W        W22512   3.905   5.055  17.659 -0.1089 -0.1001 -0.0868
18213W        W22513   2.891   0.334  12.436 -0.1057  0.0131 -0.0022
18214W        W22514   2.475   0.026  24.827  0.1103 -0.2264 -0.2354
18215W        W22515  10.848   0.946  27.237  0.1581 -0.2433  0.2391
18216W        W22516  15.961   0.792  17.148  0.0309  0.0627  0.0059
18217W        W22517   7.586   0.972  27.677 -0.1875  0.0015  0.0688
18218W        W22518  11.455   1.494  28.839  0.4319  0.2877  0.0840
18219W        W22519  23.220   0.534   4.163  0.1410  0.1501  0.1914
18220W        W22520   0.088   7.080  23.648  0.0330  0.3030  0.0158
18221W        W22521   1.383   0.228  26.237  0.0852 -0.0726 -0.0350
18222W        W22522  14.883   6.318   3.112  0.1618  0.0745  0.0139
18223W        W22523  19.307   3.752   9.792 -0.0874 -0.1889  0.0727
18224W        W22524  18.695   2.336  19.117  0.0625  0.1149 -0.2962
18225W        W22525  19.179   7.473  20.667 -0.1027 -0.0048  0.2363
18226W        W22526   1.212   5.449  22.459 -0.1638  0.3680 -0.1432
18227W        W22527   8.708   0.921   0.263 -0.1756  0.1204  0.1870
18228W        W22528   6.839   2.874  30.083  0.1665  0.0828 -0.2369
18229W        W22529   1.230   0.158  13.113 -0.0924 -0.1081 -0.1845
18230W        W22530  19.622   3.334  15.820  0.0318  0.1588 -0.2957
18231W        W22531  13.035   4.285   0.523 -0.2088  0.0484 -0.0562
18232W        W22532  17.980   0.064  24.959  0.3590 -0.2088 -0.0651
18233W        W22533  19.614   2.187  24.380  0.0260 -0.0356 -0.2263
18234W        W22534  22.734   5.985   9.224 -0.1866 -0.0918 -0.1264
18235W        W22535  22.477   1.887  31.646  0.0217 -0.0896 -0.0777
18236W        W22536   2.721   2.773  13.073  0.1892 -0.4183 -0.3582
18237W        W22537  15.684   6.294   5.508  0.0592  0.1972  0.0774
18238W        W22538  24.190   6.194  31.938 -0.1589 -0.4908  0.1838
18239W        W22539   9.196   1.185   3.614 -0.2509  0.1820  0.1087
18240W        W22540  21.066   0.284  32.085  0.1581 -0.1012  0.3213
18241W        W22541   1.221   4.294  12.322  0.2432 -0.2874 -0.0832
18242W        W22542  22.509   2.329  13.221 -0.1390 -0.0396  0.1079
18243W        W22543  15.109   6.576   3.997 -0.4231 -0.0440  0.1863
18244W        W22544  10.373   2.660  27.688  0.2615  0.1619 -0.0688
18245W        W22545  14.803   4.529  25.774  0.0228 -0.1233  0.1181
18246W        W22546   5.435   7.046   9.928 -0.0423 -0.0677 -0.0719
18247W        W22547  23.628   6.416  12.734  0.1494  0.0455 -0.0718
18248W        W22548  19.939   5.841   2.735 -0.0871  0.1240  0.2527
18249W        W22549  19.472   6.219  27.813  0.0277 -0.0983  0.0759
18250W        W22550  13.174   4.140   9.141  0.3400 -0.0978 -0.0268
18251W        W22551  11.643   4.188   7.135  0.0207  0.0812 -0.2181
18252W        W22552   1.477   6.173   1.124  0.1188  0.0356  0.0773
18253W        W22553  13.680   0.130   2.578  0.0974  0.1013  0.0453
18254W        W22554  21.751   5.184  20.588 -0.1370 -0.1618  0.0707
18255W        W22555  11.747   5.278   8.796 -0.0622  0.0715 -0.1434
18256W        W22556  17.768   6.082  18.516 -0.0012  0.0079 -0.0002
18257W        W22557   0.874   0.112   1.113  0.1560  0.0505  0.0105
18258W        W22558   6.796   1.322  10.494 -0.0753 -0.0994 -0.0269
18259W        W22559   5.479   4.103  26.126 -0.4008 -0.2431 -0.0160
18260W        W22560  15.307   2.630  28.829  0.0206  0.0574  0.2817
18261W        W22561  18.342   4.053  21.556 -0.1415 -0.2760  0.0136
18262W        W22562  16.108   3.431   8.275  0.0235  0.2160 -0.0674
18263W        W22563   0.985   6.407  29.167 -0.0223 -0.1831 -0.3452
18264W        W22564   4.709   7.191   5.104 -0.3142  0.1663 -0.0113
18265W        W22565  19.264   2.932  19.847 -0.0510 -0.0268  0.0215
18266W        W22566   2.328   0.148  30.152  0.0873 -0.0417 -0.1908
18267W        W22567  16.156   6.819  19.469 -0.0237 -0.1120  0.2523
18268W        W22568   6.864   3.607  14.555 -0.0313  0.1699 -0.0280
18269W        W22569  11.025   2.418  12.420  0.2221 -0.2112  0.5688
18270W        W22570  21.890   4.733   3.450 -0.0227 -0.2583 -0.3451
18271W        W22571   8.214   0.431  30.284 -0.0514 -0.1788  0.0168
18272W        W22572  16.453   1.247  21.328  0.0720  0.2909  0.2102
18273W        W22573   6.450   6.625  27.041  0.0009 -0.0260  0.2493
18274W        W22574  16.447   2.777  18.385 -0.1941  0.1830 -0.0817
18275W        W22575  12.810   7.011   5.170 -0.0274 -0.0069 -0.1921
18276W        W22576  10.879   1.981   6.941 -0.1028  0.1864  0.0342
18277W        W22577   0.541   0.786   6.066 -0.1825 -0.1302  0.0697
18278W        W22578  17.167   0.317  23.915 -0.0368  0.1509 -0.0282
18279W        W22579  21.627   2.008  29.495 -0.0934 -0.0411 -0.1410
18280W        W22580  10.435   2.910  30.555  0.0466 -0.2737 -0.0903
18281W        W22581  24.543   4.047  11.708  0.0725 -0.0136 -0.1648
18282W        W22582  23.962   1.657  28.493  0.1188 -0.2303  0.3912
18283W        W22583  17.946   7.033   5.215 -0.0828  0.0951 -0.3719
18284W        W22584  20.009   7.628  23.752  0.0164  0.1199  0.0459
18285W        W22585   6.100   0.265  26.031  0.0867  0.0823  0.3120
18286W        W22586  17.749   7.618   6.014  0.0228  0.1071  0.2013
18287W        W22587  23.540   5.852  25.779  0.1642  0.0533 -0.1669
18288W        W22588  10.723   3.457   3.466  0.0408 -0.2571 -0.3059
18289W        W22589   9.581   7.048  12.059 -0.0343  0.0281 -0.0994
18290W        W22590  20.027   4.067  20.116 -0.0021 -0.0549 -0.0040
18291W        W22591  18.235   1.223  26.071  0.0370 -0.0497  0.2409
18292W        W22592   0.054   3.932  27.111 -0.1456  0.0502  0.2530
18293W        W22593  24.949   0.443  30.758  0.1998  0.2199 -0.2497
18294W        W22594  23.928   1.778   5.240 -0.1421  0.0295 -0.0117
18295W        W22595  15.626   1.734   0.045 -0.2749  0.0383  0.1684
18296W        W22596  17.450   5.914  31.645  0.1156  0.1514 -0.0757
18297W        W22597  22.486   6.356  21.563  0.0654  0.1584 -0.1402
18298W        W22598   3.362   4.276   7.897  0.0994  0.1209 -0.1576
18299W        W22599  15.353   6.329  24.539  0.0700 -0.1153  0.0999
18300W        W22600  10.764   2.589   0.979 -0.0450 -0.2898  0.3967
18301W        W22601   2.940   0.212  23.162  0.0390  0.0685 -0.2926
18302W        W22602  15.850   0.734   6.901  0.2605  0.1124 -0.0486
18303W        W22603  10.584   0.930   4.510  0.0043 -0.3070  0.1681
18304W        W22604   9.184   1.581  30.079 -0.3525  0.0820  0.1396
18305W        W22605   7.229   0.145  23.569  0.0410 -0.1192  0.1195
18306W        W22606  18.383   4.232   3.765  0.0820  0.0095 -0.0377
18307W        W22607  24.593   3.964  32.832  0.0958  0.1051 -0.0374
18308W        W22608  17.881   5.293   1.305 -0.1307 -0.0411 -0.0116
18309W        W22609  18.832   0.386   1.852 -0.1724 -0.1949  0.1356
18310W        W22610  13.345   3.791  17.389  0.0181  0.3543  0.1309
18311W        W22611   1.702   1.372  30.749 -0.2422 -0.3365  0.2132
18312W        W22612   3.818   5.293   8.450  0.1430  0.3614 -0.0989
18313W        W22613   2.552   3.595  14.861 -0.1356  0.0260  0.0172
18314W        W22614   3.112   7.191  11.696  0.1808 -0.0049  0.1285
18315W        W22615  20.175   1.434  25.151 -0.0663  0.5744  0.1009
18316W        W22616   2.831   3.395  25.301 -0.2321 -0.1684 -0.0696
18317W        W22617   9.899   2.786   5.317 -0.3355  0.0968  0.1032
18318W        W22618  18.586   7.356   9.990  0.1978 -0.1920  0.5176
18319W        W22619  19.891   3.243  25.163  0.0182 -0.3261  0.0303
18320W        W22620  20.132   4.953  25.782  0.0492  0.0754 -0.0692
18321W        W22621   8.161   1.510  11.336  0.0598  0.1830 -0.0088
18322W        W22622   7.045   7.770  13.626 -0.0193  0.1688 -0.0231
18323W        W22623  24.292   2.694   3.326 -0.1466 -0.0544  0.0755
18324W        W22624   9.180   0.786  33.039 -0.2571 -0.4990 -0.0369
18325W        W22625   6.907   0.427   5.637 -0.1060  0.0187 -0.0968
18326W        W22626  13.099   6.572   7.865 -0.0073  0.0142  0.1786
18327W        W22627   8.515   6.970   5.117 -0.1915 -0.2019 -0.0654
18328W        W22628  10.140   2.843   7.563  0.3219 -0.1818 -0.1710
18329W        W22629  17.714   0.258  19.047 -0.2589  0.0336 -0.0935
18330W        W22630  22.296   3.611  14.270 -0.0819  0.1694 -0.0174
18331W        W22631   8.308   1.605   4.138 -0.1866 -0.0788 -0.2021
18332W        W22632  16.789   1.971  15.645  0.1635 -0.0594  0.3139
18333W        W22633   1.523   0.462   6.127  0.0581  0.1220  0.3165
18334W        W22634   4.391   5.156  10.231  0.0422  0.1521 -0.1183
18335W        W22635  24.190   0.996  25.665 -0.2885  0.2932  0.2035
18336W        W22636   8.386   5.949   9.513  0.0756  0.0572  0.0286
18337W        W22637  14.591   0.039  25.274 -0.0006 -0.0265 -0.0003
18338W        W22638   2.428   2.887  31.666 -0.3648 -0.2002 -0.0416
18339W        W22639  17.715   0.711  19.229 -0.1289  0.0981 -0.0522
18340W        W22640   4.774   1.817  12.760 -0.2241  0.2242 -0.1509
18341W        W22641   0.166   0.037  31.026  0.1887  0.4303  0.0555
18342W        W22642   0.604   2.540  11.714  0.0127 -0.3190 -0.0090
18343W        W22643  19.707   0.463  23.381  0.2529 -0.0950 -0.0978
18344W        W22644  13.919   4.555   0.742  0.1220 -0.1363 -0.5041
18345W        W22645  20.216   1.342   7.668  0.2687  0.0137 -0.4065
18346W        W22646   7.115   2.779  13.307 -0.1296  0.0780  0.1068
18347W        W22647  23.729   6.608   9.163 -0.1912  0.1631  0.2452
18348W        W22648   9.520   3.456   0.285  0.0561  0.1629  0.1985
18349W        W22649   1.081   4.546  26.832 -0.0602 -0.0677 -0.1508
18350W        W22650  17.234   6.930  16.454 -0.1318  0.1605  0.0991
18351W        W22651   7.010   3.038  28.487  0.0673  0.3555  0.0501
18352W        W22652  21.463   5.469  27.785 -0.1996  0.2433  0.0681
18353W        W22653  22.218   6.671  13.171  0.4373  0.1480 -0.2060
18354W        W22654   4.125   3.155  16.510  0.0752  0.0348 -0.1687
18355W        W22655  18.029   0.329   8.443 -0.1926  0.2907  0.0893
18356W        W22656   7.508   3.776  12.186 -0.0479 -0.0582  0.0110
18357W        W22657   7.810   6.908   8.891  0.0757  0.0299  0.0581
18358W        W22658  24.529   1.787  14.511 -0.1725 -0.1548  0.1724
18359W        W22659  24.308   6.039  11.388  0.2390  0.0707 -0.1159
18360W        W22660  23.749   5.002  23.920 -0.0249  0.0777  0.0519
18361W        W22661  15.066   5.553  20.366  0.1253  0.0035 -0.0928
18362W        W22662  19.924   3.554  19.917 -0.1129 -0.0953  0.0703
18363W        W22663  11.001   2.808   3.283 -0.0744 -0.1777  0.0706
18364W        W22664  17.300   5.132   4.843  0.0122  0.0176 -0.3025
18365W        W22665  24.356   6.683   6.815  0.0859  0.2266 -0.0916
18366W        W22666  11.235   2.639   0.441 -0.0530  0.1711 -0.0264
18367W        W22667  21.379   5.612   0.502  0.2538  0.0004 -0.2695
18368W        W22668  11.479   1.572   7.158  0.1394  0.1100 -0.6344
18369W        W22669   2.951   0.780   3.852 -0.0517  0.0855 -0.1817
18370W        W22670  18.406   7.412  32.326 -0.0178 -0.4102  0.1154
18371W        W22671  16.934   4.456   7.508 -0.0176  0.0941 -0.0601
18372W        W22672   8.830   3.039   0.850  0.2615 -0.2300 -0.1304
18373W        W22673   8.819   2.481  13.179  0.0380  0.1821  0.0358
18374W        W22674  17.280   3.025  28.376 -0.3594  0.2457  0.1715
18375W        W22675  17.444   7.011  19.343 -0.1573  0.0244  0.1288
18376W        W22676  19.634   3.812  28.921 -0.2029 -0.2620 -0.0022
18377W        W22677  13.181   6.584  32.768  0.0045  0.2507 -0.1025
18378W        W22678  10.056   1.324   0.578  0.2248  0.1700 -0.2525
18379W        W22679  12.834   0.515   3.978 -0.1041 -0.1760  0.3644
18380W        W22680   3.046   6.018  27.192 -0.1347  0.2614 -0.2835
18381W        W22681   3.391   1.979   3.077  0.0669  0.1492  0.2701
18382W        W22682  11.742   6.267  20.211 -0.0480  0.1656 -0.4184
18383W        W22683   6.486   1.379   5.453  0.0524  0.1770  0.0347
18384W        W22684   8.845   0.177  32.146  0.4148 -0.0559 -0.2634
18385W        W22685   3.028   2.239  30.422 -0.1043 -0.1756 -0.0972
18386W        W22686  24.853   6.596  10.128  0.1941  0.0343  0.3369
18387W        W22687  10.210   7.732   7.073  0.0331 -0.0630 -0.0118
18388W        W22688  20.880   1.778  27.675  0.0609 -0.0996  0.0564
18389W        W22689  22.907   6.732  20.114  0.1445  0.0003 -0.0703
18390W        W22690  12.977   3.559   4.658  0.0000  0.2434 -0.1318
18391W        W22691   7.400   7.525  23.214  0.2138 -0.0459 -0.1379
18392W        W22692  17.662   2.635  29.449 -0.2199 -0.0163  0.0255
18393W        W22693  18.103   3.922   4.418  0.4034  0.0116  0.0504
18394W        W22694   4.486   5.891   1.995  0.0991  0.0501 -0.0482
18395W        W22695  16.855   3.314  22.742  0.3710 -0.0373  0.0875
18396W        W22696  12.322   7.083  27.445  0.1339  0.1122  0.0415
18397W        W22697  24.945   2.256  21.056  0.1137  0.1448  0.2674
18398W        W22698  20.209   6.596   9.360 -0.2479 -0.3561  0.0405
18399W        W22699  16.557   1.076  30.048 -0.2499  0.0662 -0.0606
18400W        W22700   8.736   3.009   5.613  0.1799  0.1360  0.2708
18401W        W22701   2.884   7.054  29.988  0.2293  0.2426  0.0783
18402W        W22702  16.005   7.569  10.109  0.2202  0.1232  0.1470
18403W        W22703  11.027   1.498   9.682  0.0267 -0.3362 -0.0846
18404W        W22704  16.480   7.756   4.019  0.0441  0.3814  0.2146
18405W        W22705  13.014   7.257  27.872 -0.2318 -0.1506  0.0534
18406W        W22706  17.349   4.637  22.279 -0.1912  0.0176  0.3206
18407W        W22707   0.959   4.507  31.306  0.0426  0.1009 -0.2514
18408W        W22708  12.404   3.290  21.407 -0.0083 -0.1099 -0.0244
18409W        W22709   2.578   0.184   6.574  0.1457 -0.2911  0.1178
18410W        W22710  14.751   6.918  17.252 -0.0410 -0.0999  0.0306
18411W        W22711  16.036   6.413   9.405  0.0823  0.0584 -0.1825
18412W        W22712   9.973   5.049  26.267 -0.2942  0.2016 -0.0675
18413W        W22713  19.462   3.159  25.662  0.1552  0.1904  0.1459
18414W        W22714   2.504   5.798   6.080 -0.3376 -0.1120 -0.0009
18415W        W22715   6.411   3.427  29.132 -0.0313  0.1393 -0.1067
18416W        W22716  13.011   0.348   2.237  0.2021 -0.3988 -0.1502
18417W        W22717  13.421   2.175  10.545 -0.2684 -0.0210 -0.3122
18418W        W22718  10.533   5.717  23.200  0.1152 -0.2701  0.0316
18419W        W22719  17.709   7.070   4.257 -0.1226  0.1087  0.0730
18420W        W22720   9.714   3.737   7.926  0.2487  0.0454  0.2403
18421W        W22721  15.156   4.482  18.786 -0.2771 -0.2996  0.1965
18422W        W22722  10.147   6.884   7.077  0.1049  0.5351  0.1208
18423W        W22723  19.409   0.620   8.643  0.1594  0.1265 -0.2281
18424W        W22724  15.339   3.474   3.144 -0.1278 -0.0109 -0.1208
18425W        W22725  15.615   5.785  15.643 -0.0691  0.1705  0.0983
18426W        W22726   1.971   0.982  15.437  0.1056 -0.2212 -0.0300
18427W        W22727  20.512   6.756  26.076 -0.0188  0.1544  0.0493
18428W        W22728   4.749   6.083  23.721 -0.0730 -0.0193 -0.0507
18429W        W22729   6.703   6.295  22.280 -0.0356  0.0765  0.1726
18430W        W22730   8.081   7.104  24.302  0.1583 -0.1121 -0.0593
18431W        W22731   3.987   3.851   2.553 -0.2521  0.1186 -0.4174
18432W        W22732   3.444   1.103  23.470 -0.1908  0.2617  0.0591
18433W        W22733   2.381   5.993  13.356 -0.1429 -0.0891  0.0226
18434W        W22734  18.201   4.581  25.370 -0.1096 -0.2965  0.0381
18435W        W22735   8.236   5.708   2.672  0.0876 -0.0540 -0.1479
18436W        W22736  24.283   3.432  12.889  0.1039  0.2753 -0.1437
18437W        W22737  15.739   5.734  28.432  0.1521 -0.2645 -0.0346
18438W        W22738  18.002   6.199   8.898 -0.3038 -0.2355 -0.1393
18439W        W22739   9.155   3.857  24.271 -0.1073 -0.1510  0.4166
18440W        W22740  20.513   1.455  10.380 -0.0884  0.0379  0.0032
18441W        W22741  21.799   2.396   7.159  0.0492 -0.0455 -0.2741
18442W        W22742  16.299   6.904   1.713 -0.2205 -0.0245  0.0930
18443W        W22743   9.801   5.709   9.212  0.0217  0.0399 -0.0189
18444W        W22744  22.288   4.056  25.094  0.3403  0.0220  0.2932
18445W        W22745  19.256   1.401  23.966 -0.2199 -0.3072  0.2777
18446W        W22746  15.240   4.163  32.232 -0.1358  0.0697  0.1073
18447W        W22747  14.714   4.379   1.809 -0.1775  0.0263  0.2773
18448W        W22748  16.280   7.143   4.865  0.0303 -0.1580  0.0217
18449W        W22749   1.514   7.209  32.494 -0.1722  0.1153  0.2506
18450W        W22750   4.636   7.573  11.192 -0.0141 -0.0926  0.2648
18451W        W22751  17.755   7.100   7.109  0.2447 -0.0409  0.0581
18452W        W22752  16.062   2.194  32.264  0.2528  0.0378  0.1146
18453W        W22753  16.974   5.787  21.232  0.0030  0.0561  0.2616
18454W        W22754   8.109   7.104  27.341 -0.2992  0.0907  0.0004
18455W        W22755  10.541   5.970  22.165 -0.1977 -0.3451 -0.0973
18456W        W22756   2.454   5.678  15.203  0.0379  0.0769  0.0735
18457W        W22757  18.373   6.453   0.500  0.2267 -0.1121 -0.1377
18458W        W22758  10.576   7.782  29.779 -0.0311 -0.0589 -0.0082
18459W        W22759  21.986   7.079  22.058 -0.0984 -0.0569  0.0391
18460W        W22760  24.132   3.946  20.900  0.0063 -0.0483 -0.2230
18461W        W22761  13.297   4.101  32.560 -0.1752  0.0946  0.1256
18462W        W22762  10.265   0.707  20.170  0.0448 -0.2615  0.0709
18463W        W22763   1.776   6.840   1.580 -0.0370  0.0741  0.0573
18464W        W22764   0.654   3.959  28.414  0.0504 -0.3441  0.1581
18465W        W22765   9.047   2.621  23.212  0.1825 -0.1854 -0.2162
18466W        W22766   8.886   0.704  27.552 -0.0557  0.1818  0.0250
18467W        W22767   8.302   2.303  13.896 -0.0397  0.0759  0.1530
18468W        W22768  14.955   0.632  18.949 -0.0445  0.2880  0.0187
18469W        W22769   5.786   6.381  17.353 -0.0853  0.0879 -0.2673
18470W        W22770   6.331   4.600  13.169 -0.2427  0.2470  0.2689
18471W        W22771  13.812   0.109   7.414  0.0741 -0.3089 -0.2453
18472W        W22772  15.277   5.735  30.211 -0.0120 -0.2119 -0.0772
18473W        W22773  10.638   2.059  12.530  0.1087 -0.1063  0.1395
18474W        W22774   3.101   3.051   8.138  0.0210  0.2440 -0.1798
18475W        W22775  16.261   0.922   0.340  0.0520  0.1262  0.0792
18476W        W22776  18.417   7.035   3.004 -0.1304  0.0409  0.2581
18477W        W22777  16.017   4.432  15.473 -0.3541  0.0271 -0.1161
18478W        W22778  17.088   7.395   3.656  0.0204  0.1473 -0.2240
18479W        W22779  24.021   0.563  14.498 -0.0518 -0.3667 -0.0155
18480W        W22780   0.301   5.739   1.075 -0.1427  0.2481 -0.3782
18481W        W22781  23.756   3.360  29.289 -0.0289 -0.1839  0.4527
18482W        W22782  22.377   4.697   6.887 -0.0070  0.1241 -0.1074
18483W        W22783  10.375   2.049  22.356  0.0657 -0.1890  0.1095
18484W        W22784  11.861   4.515  19.586  0.2142  0.1748  0.1276
18485W        W22785   5.854   6.992   1.416 -0.0150 -0.4000  0.0776
18486W        W22786   4.756   6.863  12.958 -0.1295  0.0897 -0.0611
18487W        W22787  10.786   2.339   6.593 -0.3204  0.2829  0.1407
18488W        W22788   4.743   0.541  28.449  0.1914 -0.2941 -0.1369
18489W        W22789  12.009   6.717   8.579 -0.0747 -0.2155  0.0714
18490W        W22790   4.534   6.869  10.082  0.0313 -0.0436  0.1862
18491W        W22791  11.151   6.987   4.487  0.2974 -0.0077 -0.0785
18492W        W22792  23.783   5.487  13.624 -0.1391  0.1896  0.0591
18493W        W22793  14.134   5.215   2.597 -0.0632  0.2759 -0.2311
18494W        W22794   2.958   6.245  12.688 -0.0160 -0.2045  0.0102
18495W        W22795  15.899   7.740  25.638  0.0937 -0.0756  0.0409
18496W        W22796  20.293   4.482  24.371  0.1325 -0.2178  0.0128
18497W        W22797  24.224   0.527  21.225 -0.0355 -0.0647 -0.2347
18498W        W22798  14.566   1.627  25.832 -0.1351 -0.1001 -0.2658
18499W        W22799  24.061   7.012   5.818 -0.2567  0.0145  0.0746
18500W        W22800  17.625   1.815  28.290 -0.2912 -0.0475  0.0902
18501W        W22801   3.841   6.934  17.373 -0.0586 -0.3740 -0.1451
18502W        W22802   6.935   4.184  32.081  0.0454  0.0137  0.1267
18503W        W22803  15.143   5.038  31.766  0.0428  0.2543  0.0563
18504W        W22804  16.584   4.664  31.292  0.2351  0.0209  0.0678
18505W        W22805  23.596   1.404  22.496  0.1299  0.1056 -0.2518
18506W        W22806  11.686   0.181   9.205 -0.0104 -0.1631  0.1067
18507W        W22807  18.771   5.900   4.800 -0.0476 -0.0300  0.2939
18508W        W22808   5.995   5.640   3.134 -0.1680  0.1608  0.0421
18509W        W22809  19.133   6.822   0.840  0.0752  0.3602  0.0619
18510W        W22810  16.495   5.214  31.056 -0.2919 -0.1996  0.0916
18511W        W22811  14.577   4.126   8.089  0.1345  0.0608 -0.1783
18512W        W22812  24.143   1.154  25.035  0.3414 -0.1590 -0.0122
18513W        W22813   2.943   0.550   5.804 -0.1429 -0.2762  0.0241
18514W        W22814   8.524   2.112  22.074  0.4020  0.0631 -0.0009
18515W        W22815   9.899   3.250  20.975  0.1195  0.0392 -0.1652
18516W        W22816  18.859   5.233  31.929 -0.0945 -0.1271 -0.2695
18517W        W22817  22.417   3.038   2.266  0.0719  0.4885 -0.2089
18518W        W22818   2.951   7.558   2.051  0.0557  0.4243  0.0119
18519W        W22819   1.244   6.036  28.945 -0.1374  0.0528 -0.0333
18520W        W22820  13.651   2.917   6.490  0.1088 -0.4260 -0.2819
18521W        W22821   7.913   1.849  23.270  0.0317 -0.1346  0.0051
18522W        W22822  17.156   3.007  23.037 -0.0324 -0.3198  0.0754
18523W        W22823  11.367   1.897   9.468 -0.2974  0.2625  0.4420
18524W        W22824   8.090   0.381   8.615 -0.3741 -0.1169  0.2112
18525W        W22825   0.168   2.185   7.093  0.1457  0.0392 -0.1924
18526W        W22826   3.126   3.722  23.979 -0.1122  0.0905  0.0737
18527W        W22827   6.193   4.705  31.924 -0.0939  0.1936  0.1812
18528W        W22828   2.959   3.542  32.592  0.2112 -0.2325  0.0133
18529W        W22829  16.640   1.396   5.437  0.0637  0.3148  0.2447
18530W        W22830  16.527   6.678  16.939  0.1306 -0.2910 -0.0220
18531W        W22831  12.223   3.893  23.700 -0.1632 -0.0015  0.0277
18532W        W22832  23.226   4.461  11.481  0.3122  0.1012  0.2372
18533W        W22833  16.829   7.165   7.153 -0.1080 -0.0078 -0.1781
18534W        W22834  13.691   4.588   9.918 -0.1292  0.3947 -0.3144
18535W        W22835  24.908   1.716  28.980 -0.0293  0.3011  0.0594
18536W        W22836   9.710   3.870  26.414 -0.0186 -0.1666 -0.0593
18537W        W22837   1.633   5.470  28.506 -0.2724  0.1398 -0.2356
18538W        W22838   0.007   2.093   5.904  0.2460  0.0966  0.0177
18539W        W22839   0.247   4.542  23.107  0.3786 -0.2964  0.0924
18540W        W22840  15.439   5.618   6.870 -0.1051 -0.2593 -0.2098
18541W        W22841   9.995   4.296  29.416  0.2242 -0.0053 -0.0580
18542W        W22842   9.360   7.278   7.163  0.1613  0.1519 -0.0392
18543W        W22843  16.500   1.350  22.503  0.1690  0.1430 -0.0982
18544W        W22844   0.031   4.478  29.029  0.3702  0.2805  0.0894
18545W        W22845  18.175   4.593  31.181  0.1178 -0.1799 -0.1910
18546W        W22846  18.935   0.069  25.859 -0.1639  0.0351 -0.0982
18547W        W22847  10.482   0.971   0.049  0.0408  0.3214  0.0831
18548W        W22848  23.702   0.301   5.513  0.0015  0.1407 -0.2603
18549W        W22849  14.686   2.318  18.792  0.2167 -0.1027  0.1619
18550W        W22850  18.155   5.330  24.119  0.2360 -0.1036 -0.2087
18551W        W22851  14.627   2.568  31.800 -0.3272  0.2366  0.1315
18552W        W22852  22.486   0.426  29.796  0.0105 -0.0436 -0.0214
18553W        W22853  16.498   1.193  18.366 -0.2070  0.2025  0.1962
18554W        W22854  15.263   6.843   9.491  0.0283 -0.0729  0.1410
18555W        W22855  24.238   2.321   6.135  0.1329 -0.2796  0.2250
18556W        W22856  18.921   0.866  21.486  0.1876  0.2039  0.1754
18557W        W22857   6.439   5.241   9.928  0.1032 -0.1751 -0.0502
18558W        W22858  16.770   2.890   2.823 -0.1590  0.0390 -0.1189
18559W        W22859  10.432   1.245  11.575 -0.1454 -0.1077 -0.0660
18560W        W22860  23.218   1.547  27.839  0.2896 -0.0220  0.0675
18561W        W22861   5.778   6.534  14.961 -0.0232 -0.1202 -0.3239
18562W        W22862   1.241   7.194   2.431  0.2910 -0.0963  0.0749
18563W        W22863  13.344   4.362   0.926  0.2293  0.0931 -0.1465
18564W        W22864   6.379   0.760  30.381 -0.0170  0.0504 -0.0879
18565W        W22865  15.114   1.654  19.832 -0.2517 -0.1309  0.2609
18566W        W22866  16.718   7.397  21.611 -0.3022  0.1072 -0.1715
18567W        W22867   5.578   6.920   4.605  0.2961  0.3092 -0.1138
18568W        W22868   1.822   1.584  24.605 -0.3884  0.1878 -0.0047
18569W        W22869  20.169   7.567   1.731 -0.0110 -0.3066 -0.3035
18570W        W22870   9.138   7.684  29.440  0.0637 -0.3505  0.0031
18571W        W22871  13.441   4.857   0.124 -0.0715  0.0514 -0.0434
18572W        W22872  17.338   2.965   3.671 -0.1727 -0.1018  0.1449
18573W        W22873   6.909   0.226  10.973  0.2696 -0.1635  0.0174
18574W        W22874  20.623   5.645   6.455 -0.0557  0.2347 -0.1368
18575W        W22875  21.799   2.973   2.351  0.0301 -0.1446  0.0085
18576W        W22876   5.126   1.866  11.858 -0.2229  0.2258  0.1355
18577W        W22877  14.673   1.920   2.565 -0.1699 -0.0093 -0.2329
18578W        W22878   0.710   1.247  21.912  0.1405 -0.1047 -0.0451
18579W        W22879  21.942   6.038   8.332 -0.0959  0.0412 -0.2911
18580W        W22880  10.221   1.883  20.967  0.1499  0.1115 -0.0606
18581W        W22881   5.817   1.467  10.257  0.2291 -0.1049  0.0227
18582W        W22882  21.294   1.579  19.383  0.0393  0.1445  0.1257
18583W        W22883   5.285   6.514  23.404 -0.0883  0.1559 -0.0903
18584W        W22884  22.517   5.585  31.976 -0.1326  0.0464 -0.3735
18585W        W22885  13.130   5.015   3.773 -0.3263  0.0676 -0.1066
18586W        W22886   3.958   0.499  29.516 -0.0873 -0.0584 -0.0543
18587W        W22887  16.489   6.770   5.605  0.3079 -0.1219 -0.4597
18588W        W22888   7.154   4.816  15.418 -0.0814 -0.1763  0.2621
18589W        W22889  11.921   3.065   3.177 -0.1917 -0.0923 -0.0127
18590W        W22890  14.660   3.977  24.622  0.1628  0.5434  0.0243
18591W        W22891  12.747   1.625  10.941  0.0520  0.1768 -0.0928
18592W        W22892  11.093   4.867   0.986 -0.0835  0.1363  0.1491
18593W        W22893   9.742   1.443   5.170 -0.2692  0.0385  0.3530
18594W        W22894  18.449   5.510  17.505  0.2759 -0.0132  0.0060
18595W        W22895  19.233   7.471  22.861  0.0956 -0.1263  0.1698
18596W        W22896  10.263   4.592  22.250  0.2680  0.5009 -0.1862
18597W        W22897  13.417   2.257   1.002 -0.0828 -0.0918  0.3854
18598W        W22898   5.187   0.424  30.062  0.3560  0.2605 -0.1073
18599W        W22899  20.778   6.094  31.341 -0.1533  0.0729 -0.1132
18600W        W22900   4.795   4.752  28.697 -0.3705  0.0379 -0.1815
18601W        W22901  19.282   4.324  17.270  0.0085  0.1597  0.0120
18602W        W22902  16.401   4.527  15.884 -0.2206 -0.0329 -0.1159
18603W        W22903  19.274   1.668  23.460 -0.0983 -0.1671 -0.4091
18604W        W22904  18.906   6.726   9.855 -0.1343  0.1241  0.0126
18605W        W22905   8.236   4.177  30.007 -0.2215  0.2070  0.3651
18606W        W22906  17.569   3.430  29.791 -0.0922  0.3276  0.0238
18607W        W22907   5.643   2.642   9.267 -0.0919  0.1839 -0.0165
18608W        W22908   3.165   1.578   7.344  0.1378 -0.1564 -0.0920
18609W        W22909   6.285   2.831  31.392 -0.0027 -0.2639  0.1413
18610W        W22910   6.056   5.674  30.530 -0.0910  0.2021 -0.2032
18611W        W22911  19.921   2.579  17.142  0.0836 -0.0316 -0.0368
18612W        W22912  22.699   5.788  12.186 -0.0497 -0.1815 -0.1805
18613W        W22913  11.970   4.437  28.775 -0.2908 -0.0919 -0.1552
18614W        W22914   6.325   5.125  27.108  0.0970 -0.0308  0.3852
18615W        W22915   3.124   4.095   5.867  0.0139 -0.2170 -0.0136
18616W        W22916  16.986   5.437  25.220  0.1321 -0.1309  0.0370
18617W        W22917  14.727   4.840   2.091 -0.1298 -0.0444  0.2183
18618W        W22918   2.541   5.464   1.954  0.0042  0.0633 -0.0498
18619W        W22919  23.802   1.690   7.963  0.0543  0.0267  0.1712
18620W        W22920   9.706   3.212   3.746  0.1694  0.0596 -0.0421
18621W        W22921  19.497   6.484  29.912  0.1182  0.2018 -0.0395
18622W        W22922  19.349   7.325   3.748  0.0157  0.1579  0.0932
18623W        W22923   9.575   4.997  10.560 -0.0910 -0.0337 -0.0392
18624W        W22924   2.140   4.790   2.272 -0.0832 -0.2303 -0.2005
18625W        W22925  11.411   2.298   8.687 -0.0975 -0.0079  0.1308
18626W        W22926  12.452   3.309   6.477 -0.2619  0.3110 -0.0570
18627W        W22927  22.794   0.284   3.885 -0.2582 -0.1680 -0.0940
18628W        W22928  19.049   5.813   3.442  0.3078  0.2161  0.1361
18629W        W22929  23.254   6.804  21.521 -0.0143  0.2320  0.1693
18630W        W22930  20.053   6.232  19.504  0.0490 -0.3544  0.0060
18631W        W22931   3.284   5.831  10.646 -0.3475  0.2385 -0.2910
18632W        W22932  18.717   7.502  20.775  0.1434  0.1467 -0.0751
18633W        W22933   4.486   4.807  11.420  0.1414  0.0754 -0.0538
18634W        W22934   1.705   2.781  14.765  0.4932  0.1903 -0.0068
18635W        W22935   2.834   2.885   8.599 -0.2039 -0.0089  0.2098
18636W        W22936  11.081   5.471  21.014 -0.0765 -0.0186 -0.0565
18637W        W22937  13.769   1.087  27.392  0.0314  0.2312  0.0961
18638W        W22938   1.786   3.847  30.854  0.0269 -0.0747 -0.0246
18639W        W22939  20.686   3.628   4.392 -0.0450 -0.2007  0.3165
18640W        W22940   1.375   2.750  23.977  0.0413 -0.0568  0.0431
18641W        W22941  10.904   3.658  24.604  0.0541 -0.1299 -0.1164
18642W        W22942   4.549   0.657  32.066  0.1359  0.0427  0.2190
18643W        W22943  10.903   5.527  31.819  0.0607 -0.2306 -0.1881
18644W        W22944  23.845   4.917   1.371  0.0477  0.1675 -0.3365
18645W        W22945   2.540   3.990   2.511  0.0974  0.1339  0.1944
18646W        W22946  22.684   2.963  10.856  0.2303  0.0902 -0.0660
18647W        W22947  21.052   0.393  33.007  0.0244 -0.0177 -0.0159
18648W        W22948  24.125   4.239  23.860 -0.1770  0.1990  0.2657
18649W        W22949  10.994   6.758  12.038  0.1714  0.0003 -0.2539
18650W        W22950  18.389   3.796  32.770  0.0759 -0.1591  0.0693
18651W        W22951   1.145   5.226   6.714  0.1854 -0.1754 -0.1244
18652W        W22952  13.863   6.852   2.696 -0.0087  0.0048 -0.1307
18653W        W22953   2.551   3.423  24.009 -0.1384 -0.1742 -0.0422
18654W        W22954  22.795   4.296   4.636  0.0403  0.0175  0.1242
18655W        W22955  20.458   5.178  21.926  0.0753  0.0066 -0.1622
18656W        W22956  16.213   6.308   5.336 -0.1773 -0.1588  0.0928
18657W        W22957  24.650   6.330   8.269  0.0542  0.0322 -0.0537
18658W        W22958   1.637   1.468   8.930  0.2506  0.0438 -0.1171
18659W        W22959  18.408   3.228   4.099  0.1179  0.0800  0.0115
18660W        W22960   2.199   0.351   5.915  0.1840 -0.3444  0.2929
18661W        W22961  21.651   7.394  21.488  0.3737 -0.0859 -0.2696
18662W        W22962  18.446   4.122   2.609 -0.0885  0.2754 -0.0546
18663W        W22963  17.999   0.217  30.638  0.4642 -0.0055  0.1510
18664W        W22964  20.756   1.945  20.736  0.2200 -0.1432  0.3168
18665W        W22965   8.504   4.404  24.636 -0.1936  0.0624  0.0840
18666W        W22966  24.959   3.557   6.098  0.0183  0.1952  0.1777
18667W        W22967   4.694   2.632  22.467  0.1089 -0.3182 -0.1212
18668W        W22968   0.165   1.618  11.723  0.0672 -0.2597  0.0614
18669W        W22969  18.746   6.048   6.387  0.1612  0.2607  0.3436
18670W        W22970   4.682   4.306   6.471  0.1538  0.1863  0.1937
18671W        W22971   5.120   1.713  29.670 -0.1064 -0.3332 -0.0539
18672W        W22972  19.862   0.121  27.146 -0.0350 -0.0527  0.1177
18673W        W22973  21.711   6.907   6.258  0.1799 -0.1954  0.0263
18674W        W22974  14.361   4.537  31.495 -0.1281 -0.1269  0.0851
18675W        W22975  18.873   0.017   1.116  0.2906  0.2794 -0.1054
18676W        W22976  20.866   2.113   7.381  0.0374 -0.3087 -0.1922
18677W        W22977   4.586   4.340  13.092  0.1962  0.2800 -0.0588
18678W        W22978   8.646   4.432   7.501 -0.1025  0.0668 -0.2871
18679W        W22979  17.084   0.238  21.099 -0.1285  0.0380  0.0103
18680W        W22980   4.451   0.253  28.069 -0.1318 -0.2821  0.1964
18681W        W22981  15.524   4.873   4.439 -0.1732 -0.1453  0.4458
18682W        W22982   8.647   2.970   9.827  0.3602 -0.3522 -0.0206
18683W        W22983  21.821   4.756  12.098  0.1501  0.0106  0.0416
18684W        W22984   8.137   0.488   3.057 -0.1456 -0.0706 -0.0277
18685W        W22985  10.716   1.125   7.318  0.3170 -0.0492  0.1223
18686W        W22986   8.941   7.104   4.160 -0.3189 -0.0451 -0.0856
18687W        W22987  24.746   7.694  27.232 -0.0449 -0.0982 -0.2905
18688W        W22988  19.749   0.839   8.991  0.0536 -0.1955  0.0089
18689W        W22989  24.231   2.744  27.181 -0.1005 -0.1738 -0.0341
18690W        W22990  24.912   6.085   4.410  0.0701 -0.0514 -0.1811
18691W        W22991  14.460   4.597  28.446 -0.2670 -0.0097  0.0164
18692W        W22992   3.910   4.140  10.049 -0.2188  0.0464 -0.2128
18693W        W22993   1.610   4.502  11.950  0.2527 -0.0374 -0.1236
18694W        W22994  18.249   7.066  22.750  0.0319  0.0075  0.1305
18695W        W22995  22.668   2.677  26.659  0.2850  0.2455  0.0315
18696W        W22996   8.761   4.021   1.132 -0.0805 -0.0059  0.0910
18697W        W22997  19.432   5.786  18.834  0.2455 -0.0113  0.0610
18698W        W22998   7.278   2.486  32.232 -0.1377 -0.0132 -0.0849
18699W        W22999   1.123   4.629  11.785  0.1457  0.1753  0.1489
18700W        W23000  12.537   1.883   7.610 -0.1628  0.0026 -0.0551
18701W        W23001  11.271   0.100  21.945 -0.2076 -0.0578  0.0767
18702W        W23002  10.696   3.876   1.361 -0.0273 -0.2865 -0.0565
18703W        W23003  20.299   6.802  18.185 -0.1888  0.2222 -0.0997
18704W        W23004   3.349   1.465  32.321  0.1184  0.0628 -0.0233
18705W        W23005  19.465   3.506  25.233  0.1506  0.1351 -0.2225
18706W        W23006  10.751   2.160  24.683  0.0039 -0.2120 -0.2363
18707W        W23007  21.814   2.312  13.179 -0.0470  0.0505  0.1153
18708W        W23008   2.868   0.233   4.229 -0.0236 -0.3480 -0.0462
18709W        W23009   0.419   6.565  30.252  0.0407  0.0744  0.2767
18710W        W23010   0.262   2.797   6.956 -0.2193 -0.0702 -0.0362
18711W        W23011   2.334   5.851   8.011  0.0540  0.0771 -0.0719
18712W        W23012  19.447   5.686  30.663 -0.3759 -0.1854 -0.2751
18713W        W23013  12.550   1.838  10.402  0.2238  0.1520 -0.0897
18714W        W23014  23.459   0.058   8.018 -0.0060 -0.2919 -0.1899
18715W        W23015  22.640   5.992  12.928  0.1248  0.1389  0.1648
18716W        W23016  15.912   1.288   5.323  0.0725  0.2256 -0.0332
18717W        W23017   6.870   0.959  28.653 -0.0267  0.1404 -0.2967
18718W        W23018  16.891   5.622   3.634  0.0803  0.1939 -0.0478
18719W        W23019  23.452   7.543  21.144  0.0304  0.4234  0.1856
18720W        W23020  12.653   3.363  32.004  0.2532 -0.1373 -0.1782
18721W        W23021  21.884   4.082   6.417  0.1776  0.0347  0.1924
18722W        W23022  21.714   2.199  24.225 -0.2834 -0.0224  0.1355
18723W        W23023   5.006   4.420  13.740 -0.2034  0.2538 -0.1809
18724W        W23024  19.465   1.051   5.960 -0.0532 -0.1995  0.2305
18725W        W23025   4.286   1.056   5.650  0.0943 -0.3071  0.0500
18726W        W23026  10.565   5.230   5.234 -0.2026 -0.0604  0.0144
18727W        W23027  11.358   2.124  32.707  0.1461  0.1211  0.1583
18728W        W23028   6.749   4.917  11.721 -0.2294 -0.2849  0.2669
18729W        W23029  18.318   2.294  18.159 -0.1180  0.3496  0.0569
18730W        W23030  19.435   6.536  25.993  0.5306  0.1842 -0.0615
18731W        W23031  12.033   0.916   9.679  0.0391  0.0450  0.1631
18732W        W23032  16.156   2.829   0.010 -0.0038 -0.1228 -0.1145
18733W        W23033  21.027   3.045  32.389  0.0946 -0.0186 -0.2759
18734W        W23034  23.468   3.211   7.260 -0.0483  0.0946 -0.2848
18735W        W23035  19.728   5.417  18.991  0.0348 -0.0810  0.0658
18736W        W23036  13.746   6.378   4.749  0.0619 -0.2428  0.2599
18737W        W23037  18.976   2.645   1.422 -0.0820  0.0339  0.1932
18738W        W23038  22.687   6.528  30.749 -0.1927  0.3267  0.0185
18739W        W23039   1.391   6.582   3.127 -0.1767  0.0357  0.3002
18740W        W23040  22.945   4.279   3.704 -0.0881 -0.2025 -0.2769
18741W        W23041  22.997   7.707   2.769 -0.1046 -0.0578  0.4816
18742W        W23042  24.109   0.053  23.135  0.1243 -0.2464  0.2047
18743W        W23043   3.128   7.597  32.014  0.1201  0.0206 -0.1556
18744W        W23044  22.279   3.623   7.605  0.0348  0.0301 -0.0146
18745W        W23045   6.094   0.349  27.230 -0.0864  0.3720  0.0136
18746W        W23046   6.610   4.734  25.485  0.2084 -0.0627  0.1334
18747W        W23047  10.965   0.760  24.451  0.1642  0.1557  0.0991
18748W        W23048  12.977   4.555  21.602  0.1264  0.0382  0.5657
18749W        W23049   9.475   1.919  27.706  0.0926 -0.0695  0.0762
18750W        W23050  16.555   0.793  16.024  0.1780  0.1014  0.0211
18751W        W23051   9.709   6.660  11.218 -0.2960 -0.2037  0.3965
18752W        W23052  21.336   7.590  20.606 -0.2047  0.1159  0.2525
18753W        W23053  16.908   5.057   6.115 -0.0585 -0.2322  0.0885
18754W        W23054   3.751   5.918  23.733 -0.0630  0.1576 -0.0432
18755W        W23055  15.896   4.111  25.012 -0.1289 -0.2506 -0.1453
18756W        W23056  20.469   5.095  30.269  0.3475 -0.0803  0.4283
18757W        W23057  17.321   4.131   2.905  0.0125  0.1446  0.0611
18758W        W23058  24.372   2.560  22.515 -0.0697 -0.0916 -0.1217
18759W        W23059  23.410   5.025  11.308  0.0812 -0.0878  0.2100
18760W        W23060   4.972   6.719  14.402  0.2703 -0.1319  0.3421
18761W        W23061   8.408   6.764  30.672 -0.1696  0.2393 -0.3737
18762W        W23062   7.227   5.441  10.519 -0.2947  0.0413  0.3014
18763W        W23063   8.095   5.859  25.000 -0.0271  0.0968 -0.0213
18764W        W23064  15.125   6.542  20.387 -0.1819 -0.0033  0.4066
18765W        W23065   7.610   0.714  32.050  0.3923  0.1657  0.0151
18766W        W23066   6.816   3.713  23.907  0.2340  0.2017  0.0531
18767W        W23067  18.577   1.029  28.244  0.0591 -0.0626 -0.0561
18768W        W23068  12.008   4.739  29.304 -0.3035 -0.2365  0.0764
18769W        W23069   3.490   1.120  11.835  0.2935  0.0201 -0.0952
18770W        W23070  24.014   3.015   5.562  0.1080  0.0027  0.1840
18771W        W23071   9.074   0.595  25.886  0.0932 -0.0817 -0.1823
18772W        W23072   7.586   4.637  14.756  0.0766  0.0730 -0.2316
18773W        W23073   2.447   2.925  13.538  0.1839  0.2236  0.1062
18774W        W23074  12.300   5.635   0.829  0.0868 -0.1043  0.1247
18775W        W23075  16.507   3.987  22.483  0.0269 -0.2992 -0.3251
18776W        W23076   6.609   3.627  11.557 -0.1452  0.0502 -0.1998
18777W        W23077   1.789   5.895   4.418  0.1056 -0.2384  0.1144
18778W        W23078  18.712   2.734  27.373 -0.4289  0.0133 -0.5534
18779W        W23079  19.782   5.005   0.641 -0.2495  0.3791 -0.2437
18780W        W23080  18.889   4.007   8.678  0.0518 -0.1145 -0.0161
18781W        W23081   2.287   5.741  10.551 -0.0471 -0.0562  0.0096
18782W        W23082  12.399   6.589  11.665  0.1721  0.1029 -0.1015
18783W        W23083  14.256   4.969  18.327  0.0850 -0.1325  0.1102
18784W        W23084  23.895   1.968  26.707 -0.1899  0.0505  0.0621
18785W        W23085  20.243   7.040  20.045 -0.1651  0.1443 -0.0772
18786W        W23086  12.101   1.226  31.858  0.2706 -0.0088  0.1927
18787W        W23087  23.929   0.327   1.580  0.0369  0.0061 -0.0116
18788W        W23088   9.811   5.330  22.578 -0.2003 -0.0981  0.1112
18789W        W23089  20.864   3.959   4.027  0.2375 -0.2212  0.2019
18790W        W23090  19.857   6.339   0.571  0.0763  0.0024 -0.2646
18791W        W23091  17.071   5.661   9.934  0.2287 -0.0735  0.0117
18792W        W23092  12.109   2.635   5.146 -0.2094  0.5085 -0.0743
18793W        W23093  23.542   5.421  31.839 -0.0818 -0.1948  0.0077
18794W        W23094   9.807   0.538  10.231 -0.4822 -0.4812  0.0178
18795W        W23095  16.987   1.069  24.047  0.1581 -0.0487  0.0603
18796W        W23096  21.340   2.226  21.299  0.0103 -0.2231 -0.1617
18797W        W23097  21.094   2.359   2.503  0.1328 -0.2420  0.0072
18798W        W23098   4.696   1.429  23.730  0.1022 -0.0465 -0.2737
18799W        W23099  16.632   3.304  20.475  0.3051 -0.0183 -0.0092
18800W        W23100   7.391   2.474  10.850 -0.0972 -0.1364  0.1068
18801W        W23101  22.174   5.569   9.717 -0.3469 -0.0663 -0.1480
18802W        W23102  22.816   3.464  25.809 -0.1090  0.0245  0.0439
18803W        W23103   5.157   0.119  30.448  0.0137 -0.0395  0.0465
18804W        W23104   7.403   5.737   6.921 -0.0076  0.2277 -0.0778
18805W        W23105  14.481   1.589   7.918 -0.1821  0.1495 -0.2903
18806W        W23106  18.322   6.977  19.315  0.3817 -0.0240 -0.0375
18807W        W23107  11.478   7.800   2.530  0.0843  0.1098  0.1752
18808W        W23108   2.186   2.642   4.259 -0.0488  0.0747  0.0626
18809W        W23109  15.112   7.600  27.546 -0.1187  0.1806  0.3129
18810W        W23110  24.295   5.215  21.168 -0.2339 -0.2578  0.1117
18811W        W23111   3.009   2.037  12.071 -0.1419  0.0074  0.0003
18812W        W23112  13.159   2.241  31.257 -0.0186 -0.0253  0.0977
18813W        W23113   6.811   6.490  28.017  0.1300  0.1287  0.3515
18814W        W23114  17.473   6.855   1.938 -0.2194 -0.1411 -0.2054
18815W        W23115   5.747   5.905  15.235  0.3145  0.1811  0.0115
18816W        W23116  10.455   7.595  25.857 -0.1030 -0.0980  0.0891
18817W        W23117  22.976   7.242   0.514 -0.1744 -0.1536 -0.0551
18818W        W23118   3.283   5.700   7.198 -0.1583 -0.0002  0.3489
18819W        W23119   0.171   4.486  31.938 -0.0974 -0.4018 -0.0506
18820W        W23120   0.506   6.740   0.571  0.0101  0.0735 -0.2720
18821W        W23121   6.105   6.714  24.027  0.0846  0.1387  0.0244
18822W        W23122   2.459   0.678  16.122  0.2007  0.0360  0.4958
18823W        W23123  22.521   1.513  29.629 -0.1982 -0.2427  0.1187
18824W        W23124   7.654   3.543   8.349  0.1766 -0.2050  0.1384
18825W        W23125   9.605   7.122  31.510 -0.1347 -0.0336  0.1391
18826W        W23126  14.872   0.271   1.815  0.1293  0.1692 -0.4608
18827W        W23127  10.398   0.999  31.602  0.1208  0.0435  0.0235
18828W        W23128   6.064   2.969   8.532  0.0429 -0.0961  0.0902
18829W        W23129   5.679   3.274  13.831  0.3190 -0.0444 -0.0587
18830W        W23130  23.732   2.465   7.042  0.0719  0.0659 -0.0247
18831W        W23131  17.218   4.267  21.507 -0.0424 -0.0312 -0.3024
18832W        W23132  16.373   4.130  18.456 -0.2434 -0.0201 -0.2113
18833W        W23133  11.048   6.146   9.546  0.0667  0.0318 -0.2098
18834W        W23134   1.634   6.300  16.190 -0.2237 -0.0763  0.2945
18835W        W23135  24.269   2.184  22.948  0.0257 -0.1297  0.0178
18836W        W23136   6.500   3.377   6.289 -0.3189  0.2985  0.2850
18837W        W23137   2.732   1.802   0.046 -0.0319  0.0673 -0.1393
18838W        W23138  18.215   7.535  18.611 -0.0207 -0.1965  0.0541
18839W        W23139   3.415   0.899   1.093  0.0285 -0.2001  0.1684
18840W        W23140  23.560   3.528   1.264  0.0632  0.1077  0.0410
18841W        W23141   8.823   0.734   4.234  0.1099  0.0093  0.2361
18842W        W23142  19.894   4.378  32.551  0.0698  0.1303  0.0560
18843W        W23143  22.325   5.741  12.571  0.0981  0.0573 -0.1598
18844W        W23144   1.009   3.032   9.811 -0.0831  0.1342  0.0107
18845W        W23145  23.870   5.763  20.172 -0.0266 -0.1451 -0.0832
18846W        W23146   7.206   2.263  16.039  0.1829 -0.0314 -0.0398
18847W        W23147  10.572   1.316  32.760  0.1289 -0.2368 -0.0462
18848W        W23148   9.264   4.958   0.249 -0.1027  0.0139  0.0901
18849W        W23149  19.287   7.593  11.034  0.3841  0.4119  0.0124
18850W        W23150  22.513   6.858  27.262  0.1432 -0.1407 -0.0800
18851W        W23151   4.174   5.342  32.266 -0.2237  0.1989 -0.1732
18852W        W23152  14.120   7.360   0.566 -0.1898  0.3139 -0.1880
18853W        W23153  17.794   2.594   8.833 -0.2242 -0.0026 -0.0762
18854W        W23154  23.054   2.334   8.701 -0.2166 -0.1701 -0.0002
18855W        W23155  23.933   2.514   4.657  0.1714 -0.2706  0.0173
18856W        W23156   8.164   3.135  10.832  0.1425  0.0410 -0.2330
18857W        W23157   3.019   1.910  30.811 -0.0407  0.1547 -0.1955
18858W        W23158   1.722   5.093  30.690 -0.4491 -0.0829 -0.4144
18859W        W23159   7.808   1.941  32.614  0.3964  0.1157 -0.0643
18860W        W23160  11.137   7.393   4.205 -0.1483  0.0197  0.0357
18861W        W23161   0.935   2.073   8.759  0.4355 -0.0845  0.0689
18862W        W23162  13.885   5.238   6.842  0.0342 -0.0201 -0.1481
18863W        W23163   7.308   3.220  28.861 -0.2414 -0.0321 -0.2105
18864W        W23164   2.187   5.786  15.591  0.1258 -0.1405 -0.0296
18865W        W23165   3.782   1.390  27.975 -0.0555 -0.0029 -0.1178
18866W        W23166  11.547   4.352  23.247  0.0441 -0.0722  0.0823
18867W        W23167  14.243   5.416  19.014 -0.0311  0.3889 -0.2363
18868W        W23168   9.244   6.695  23.019 -0.0988  0.0506 -0.0455
18869W        W23169  14.337   7.574  29.861 -0.0340  0.0528 -0.3600
18870W        W23170  12.458   5.378  24.013  0.0663  0.0220 -0.2110
18871W        W23171   0.620   3.149  26.200  0.3943 -0.3175  0.2517
18872W        W23172   7.119   4.107   2.986  0.1991  0.0234 -0.2080
18873W        W23173  23.699   2.509  24.876  0.2221  0.2367 -0.0826
18874W        W23174  23.104   6.084  24.066  0.2132  0.2730  0.2484
18875W        W23175  11.510   0.295   2.084 -0.0389 -0.0647 -0.0742
18876W        W23176   6.087   7.368  26.550  0.0366  0.0785  0.0464
18877W        W23177  19.081   5.063  20.668 -0.2227  0.0765 -0.1400
18878W        W23178   9.102   1.326   4.124 -0.1616 -0.0566 -0.0075
18879W        W23179  17.370   1.572   6.180 -0.0083 -0.1431 -0.2269
18880W        W23180  10.207   5.091   7.761 -0.0385 -0.1343 -0.1159
18881W        W23181   2.184   0.706  10.412  0.2966  0.1152 -0.1313
18882W        W23182  15.473   6.927  14.999 -0.2492 -0.1337  0.0882
18883W        W23183   2.776   1.609  11.095 -0.0609 -0.0410  0.1745
18884W        W23184  15.226   2.433   0.755 -0.2022 -0.0574  0.0854
18885W        W23185  10.404   6.705  27.944 -0.0242  0.1240  0.1326
18886W        W23186   5.634   5.547   6.807  0.3444  0.1630 -0.0719
18887W        W23187  13.094   7.019  24.684  0.0595  0.4017  0.1324
18888W        W23188  16.385   1.247  27.512  0.2334 -0.0412 -0.1521
18889W        W23189  24.388   1.432   6.306 -0.0029  0.0371 -0.0679
18890W        W23190  21.360   0.743  32.240 -0.0559 -0.1340 -0.0674
18891W        W23191   9.832   4.110  22.995 -0.0640  0.0729  0.0860
18892W        W23192  20.185   0.091  19.991 -0.3964  0.1139  0.0914
18893W        W23193  18.708   3.663  32.027  0.2061 -0.3104 -0.0726
18894W        W23194   0.332   0.392  25.960 -0.1362 -0.1005 -0.0681
18895W        W23195  14.150   0.370  19.353  0.0686 -0.4021 -0.2038
18896W        W23196   3.845   6.622  26.390 -0.1319  0.1246 -0.0708
18897W        W23197  11.870   5.238   9.989  0.0289 -0.2672 -0.0065
18898W        W23198  23.057   4.872   8.099 -0.0103  0.0755 -0.0753
18899W        W23199   5.897   6.338  12.520 -0.1482  0.0047  0.0205
18900W        W23200   9.250   4.803   1.167  0.1034  0.2921  0.0097
18901W        W23201  14.831   1.843  32.510  0.0011 -0.2494  0.0660
18902W        W23202  15.274   7.103  20.621  0.2626 -0.1909 -0.3660
18903W        W23203   1.603   4.247   7.910  0.0937 -0.0346  0.1756
18904W        W23204  21.112   3.346  20.565  0.2198  0.0666  0.0765
18905W        W23205  21.945   2.667  10.120 -0.0178 -0.1587  0.0255
18906W        W23206  14.888   5.105  20.207  0.0848 -0.2126 -0.0360
18907W        W23207  11.664   3.599  27.693 -0.2363 -0.4094 -0.3950
18908W        W23208  10.407   0.142  31.982  0.0011 -0.0710 -0.0385
18909W        W23209   1.684   6.849   2.474 -0.3272  0.0103  0.3379
18910W        W23210  19.819   3.273   3.539  0.0427 -0.1401  0.0667
18911W        W23211  10.241   1.985  24.986 -0.1669  0.0696 -0.1413
18912W        W23212   6.242   2.614  14.238  0.0356  0.0090  0.2034
18913W        W23213  24.903   4.567  16.030  0.0119 -0.0373 -0.1877
18914W        W23214  24.014   1.624  12.774 -0.1226 -0.2721  0.0473
18915W        W23215  18.295   4.718  22.968 -0.0238  0.2537  0.1130
18916W        W23216   1.341   4.595  14.429  0.2695 -0.1971 -0.1317
18917W        W23217  11.838   2.805  17.772 -0.0803 -0.0292  0.2744
18918W        W23218  17.710   6.336  31.741  0.1934  0.0019  0.1499
18919W        W23219   6.795   1.375  13.031 -0.1090 -0.0546 -0.1867
18920W        W23220  18.336   1.879   2.426 -0.1264  0.1591 -0.1954
18921W        W23221   8.554   1.299  15.811 -0.0911 -0.0822  0.0098
18922W        W23222  11.796   0.329   1.100  0.1239 -0.1319 -0.1504
18923W        W23223  13.861   6.499   5.962 -0.0524 -0.0893 -0.1691
18924W        W23224  14.719   7.389  17.029  0.0974 -0.1596  0.0182
18925W        W23225  22.479   1.800   0.758 -0.1081  0.0198  0.0257
18926W        W23226   9.900   7.373  21.317  0.1626 -0.0941 -0.0191
18927W        W23227  17.006   2.979  24.612  0.1645 -0.0595  0.0878
18928W        W23228   0.011   2.388  10.490 -0.0394  0.1293 -0.2531
18929W        W23229  20.343   2.742   8.299  0.1391  0.1470 -0.3515
18930W        W23230  19.641   1.337   6.752  0.0720  0.2387 -0.1264
18931W        W23231  15.761   5.610  22.866 -0.0384  0.2798  0.0963
18932W        W23232  13.427   3.548   9.389  0.0754 -0.1369 -0.1664
18933W        W23233   9.280   5.034   9.886  0.0263 -0.2715 -0.0563
18934W        W23234  16.130   6.465  16.407 -0.1429  0.2628 -0.0127
18935W        W23235   6.833   1.275   8.293  0.0814  0.0890  0.0667
18936W        W23236  13.901   0.330  30.862 -0.0235 -0.0242  0.1324
18937W        W23237  13.447   7.191  20.952 -0.2258 -0.0293 -0.4187
18938W        W23238  11.540   0.544  11.774  0.2307 -0.2681 -0.3543
18939W        W23239  17.670   7.142   0.553 -0.1170 -0.1644  0.0180
18940W        W23240  17.412   1.481   9.443 -0.3132 -0.2071  0.0290
18941W        W23241   2.996   7.552  16.810  0.1011  0.2972  0.1292
18942W        W23242   3.484   3.929   7.551 -0.0346 -0.1619  0.1420
18943W        W23243  14.851   4.367  30.588  0.1443  0.2936 -0.0384
18944W        W23244   0.051   7.372  26.974 -0.1376 -0.2447  0.0459
18945W        W23245  11.032   0.127  19.535 -0.2616 -0.0201 -0.0656
18946W        W23246  24.621   1.004  13.787 -0.1117 -0.0340  0.0945
18947W        W23247  20.442   0.032  24.384 -0.0430 -0.3781 -0.1189
18948W        W23248  12.032   4.758  22.703  0.0879  0.1117  0.1693
18949W        W23249   4.396   2.949  26.708  0.0870 -0.0105  0.2348
18950W        W23250  11.728   1.785  24.177  0.0958  0.2006  0.4769
18951W        W23251   5.330   1.155   4.966  0.1706  0.0840  0.0361
18952W        W23252  11.989   0.434  26.775  0.2310 -0.2653  0.1105
18953W        W23253   5.145   2.895  28.919  0.0264 -0.1259  0.1161
18954W        W23254  15.221   7.494  21.473  0.0752 -0.5976  0.2270
18955W        W23255   8.742   3.572   6.584 -0.0960 -0.0851  0.5647
18956W        W23256   8.918   6.863  25.470 -0.0440  0.2812  0.2726
18957W        W23257  18.421   2.895   6.540  0.2035 -0.1072 -0.1281
18958W        W23258   5.122   4.696   9.412 -0.1676  0.3250  0.0209
18959W        W23259   5.853   2.775  13.978  0.0697 -0.0040  0.3561
18960W        W23260  23.165   4.991   0.666 -0.1003 -0.0171 -0.1418
18961W        W23261  18.174   4.450  26.113 -0.0386 -0.2312  0.0284
18962W        W23262  23.787   1.631   9.176 -0.0349 -0.1678  0.1737
18963W        W23263   5.159   7.350   3.121  0.2884  0.1391  0.0349
18964W        W23264  16.436   5.348  19.858 -0.3993  0.2155 -0.1914
18965W        W23265  10.116   0.403  22.325 -0.1768  0.1176 -0.0931
18966W        W23266  24.491   0.281   1.474 -0.1894  0.0785 -0.0961
18967W        W23267   2.456   1.650  12.677 -0.2782  0.0997  0.2961
18968W        W23268  10.551   4.028  31.180 -0.1835 -0.0090  0.1569
18969W        W23269  23.849   4.491   1.672  0.0022 -0.3071 -0.2880
18970W        W23270   1.105   4.783  25.603 -0.0271  0.2752 -0.0370
18971W        W23271   2.426   4.295  31.379  0.1593  0.0291 -0.1106
18972W        W23272  16.942   6.360  23.736 -0.1209 -0.0532 -0.0102
18973W        W23273  15.823   2.053  21.481  0.0089 -0.0090  0.0764
18974W        W23274   3.268   6.036  12.382  0.0731 -0.1181 -0.1048
18975W        W23275  19.514   2.252  26.258  0.2046 -0.2469 -0.0381
18976W        W23276  11.661   2.778  21.471 -0.0712  0.0070 -0.1888
18977W        W23277   7.868   2.164  25.035 -0.1606  0.2257 -0.0151
18978W        W23278  19.738   7.204   6.619 -0.0162 -0.2584 -0.0936
18979W        W23279   4.615   4.620  18.263 -0.2201  0.0918  0.2491
18980W        W23280   5.612   3.184  15.603  0.0956 -0.3533  0.1451
18981W        W23281  19.229   5.462   1.595  0.1775  0.2836  0.0279
18982W        W23282  16.057   0.800  32.901 -0.0881  0.0019 -0.1117
18983W        W23283  12.264   6.399  24.116 -0.0449 -0.1895  0.1837
18984W        W23284  19.506   5.412  18.497 -0.0612  0.1365 -0.0271
18985W        W23285  20.133   1.761   7.910  0.1176 -0.2259 -0.2449
18986W        W23286  12.224   5.576   5.624 -0.3455  0.1166  0.0343
18987W        W23287  23.985   6.271  11.682  0.1343 -0.0524  0.0251
18988W        W23288  10.506   7.005  30.709 -0.0357 -0.1349 -0.0660
18989W        W23289  21.977   1.484  24.187 -0.0984 -0.2172  0.4274
18990W        W23290  21.161   2.960   8.780  0.1598  0.2219 -0.0677
18991W        W23291   4.131   7.448   4.877  0.0642  0.0618 -0.2721
18992W        W23292  22.082   6.155   3.789 -0.0780  0.0935  0.1582
18993W        W23293  19.346   6.753  29.441 -0.0538 -0.1170  0.0885
18994W        W23294   1.176   5.570  11.378  0.2522  0.1498  0.3795
18995W        W23295   3.155   7.130  22.965 -0.0067  0.2535 -0.2748
18996W        W23296  10.245   5.458  25.624 -0.0748  0.0390  0.0563
18997W        W23297  21.919   1.818   6.162 -0.0115 -0.0268  0.1274
18998W        W23298  23.132   0.034  25.607  0.1030  0.0984 -0.2296
18999W        W23299   5.114   7.709  12.518  0.4220  0.0794  0.1097
19000W        W23300   5.279   4.699  10.999  0.0475  0.1507  0.2143
19001W        W23301  19.235   5.633  27.271 -0.1409 -0.0664 -0.0041
19002W        W23302   1.077   7.524   4.103 -0.1198 -0.0437 -0.2739
19003W        W23303  20.299   6.581  20.794 -0.1289  0.3451 -0.0886
19004W        W23304   7.830   5.760  16.818 -0.3614 -0.0771 -0.0330
19005W        W23305   6.311   7.680   6.385 -0.0335  0.0826  0.0476
19006W        W23306  10.747   3.814  30.754  0.1431  0.1450 -0.3046
19007W        W23307  24.525   0.355  10.133 -0.2979 -0.1673  0.1076
19008W        W23308   0.412   7.669  22.478  0.2149  0.0649 -0.0128
19009W        W23309   5.236   3.513  17.981  0.0388 -0.1813  0.0857
19010W        W23310  16.480   5.617  30.788 -0.2806 -0.1184 -0.0681
19011W        W23311  23.409   0.816  21.752  0.0840  0.0219 -0.0811
19012W        W23312   5.938   0.337   4.056  0.0484 -0.1620 -0.0641
19013W        W23313  13.664   3.329  23.154  0.0935  0.0456  0.0657
19014W        W23314   6.166   7.358  13.522 -0.3719  0.3369  0.1200
19015W        W23315   0.618   4.780   4.239  0.2896  0.1893 -0.0401
19016W        W23316  12.968   2.448  25.903  0.0704 -0.1594  0.2895
19017W        W23317  10.091   3.532   9.417 -0.0491 -0.1851  0.1595
19018W        W23318  13.081   0.716  16.854  0.1154  0.2323  0.3968
19019W        W23319  14.946   4.069  29.182 -0.1290 -0.1820 -0.1129
19020W        W23320  19.165   3.992  18.047 -0.0239  0.2581  0.1034
19021W        W23321   4.098   1.970   3.586  0.0162 -0.2519 -0.1240
19022W        W23322  15.169   5.247  32.242  0.1835  0.2002 -0.1239
19023W        W23323  21.859   3.277  11.955 -0.1190 -0.2099  0.2766
19024W        W23324  19.231   4.024  28.699  0.0164 -0.4037 -0.3154
19025W        W23325  18.270   5.145  16.273 -0.1551  0.0750 -0.3614
19026W        W23326   4.494   0.908   5.122  0.0652 -0.3995  0.0301
19027W        W23327  21.559   5.429  18.363  0.0921 -0.0929 -0.2021
19028W        W23328   6.173   1.039  25.423 -0.0545 -0.0511 -0.0888
19029W        W23329  16.859   2.639  22.139  0.3683  0.2489 -0.0587
19030W        W23330  16.321   6.638  29.137  0.1053 -0.1632 -0.0975
19031W        W23331  15.545   1.477   5.638 -0.0736  0.2578  0.1190
19032W        W23332   1.676   4.005  15.157 -0.0264 -0.0386 -0.0954
19033W        W23333  18.487   6.176  20.625 -0.0614 -0.2819  0.2402
19034W        W23334   2.848   7.353  15.361  0.1100  0.0893 -0.0105
19035W        W23335  10.853   4.760  25.774  0.0831  0.0994  0.1249
19036W        W23336  15.211   5.273  25.048  0.3422 -0.0123  0.1022
19037W        W23337  20.525   4.752   6.763 -0.3667  0.0771  0.1722
19038W        W23338   2.935   0.350  10.837  0.0725  0.0800  0.0728
19039W        W23339   1.264   4.410  26.319 -0.2554  0.0311  0.2383
19040W        W23340  19.539   2.359   2.203 -0.0092 -0.2357 -0.1395
19041W        W23341  15.766   6.575  17.943 -0.0608  0.0766 -0.3650
19042W        W23342   8.655   6.685   0.546  0.1694  0.1160  0.0526
19043W        W23343   8.740   6.185  21.804 -0.0211  0.0110  0.0774
19044W        W23344  18.524   5.433  27.016  0.0864  0.0550  0.1956
19045W        W23345  14.072   2.980  22.200  0.2534 -0.3999 -0.0513
19046W        W23346   5.163   7.208   9.011  0.3825 -0.0061  0.1415
19047W        W23347  22.633   0.339  10.458 -0.1257 -0.1232  0.1086
19048W        W23348  19.557   7.038  25.758  0.2110 -0.2090  0.0409
19049W        W23349  15.068   6.330  15.692  0.1729 -0.0690 -0.0784
19050W        W23350   0.569   2.453  27.212 -0.2580 -0.0524 -0.2108
19051W        W23351  12.295   5.227  24.524  0.1934 -0.1906 -0.2606
19052W        W23352  22.119   2.173   0.642 -0.6168 -0.0122 -0.0603
19053W        W23353  20.870   7.685  18.214 -0.2506  0.0672 -0.2414
19054W        W23354  10.625   6.251   1.975 -0.1976 -0.1419 -0.0903
19055W        W23355  16.431   6.703   8.208  0.2606  0.0794  0.1465
19056W        W23356  10.012   4.296   8.888 -0.0385 -0.4621 -0.0201
19057W        W23357  15.283   7.061  25.995  0.0864 -0.0635  0.0783
19058W        W23358   9.248   6.355   0.490  0.0028  0.3101  0.0439
19059W        W23359  19.914   4.811  24.426 -0.0221  0.1519  0.1821
19060W        W23360  19.154   7.304   9.134 -0.1345 -0.1248 -0.1888
19061W        W23361   7.275   5.593  17.769 -0.0620 -0.4162 -0.1693
19062W        W23362  20.987   5.312   6.668 -0.0550  0.0531  0.1036
19063W        W23363  12.437   5.302  17.514  0.0139  0.0540  0.0007
19064W        W23364  14.566   4.273   1.346 -0.0899 -0.0605 -0.1547
19065W        W23365   5.033   1.828   0.789  0.3365  0.3752  0.1331
19066W        W23366  18.955   1.284   0.645 -0.1251 -0.0010  0.1952
19067W        W23367  23.821   6.697   1.605  0.1661 -0.0259  0.0070
19068W        W23368  15.305   7.633  16.086  0.1009 -0.4905  0.2063
19069W        W23369   6.190   5.348  22.818 -0.0266 -0.1290  0.3320
19070W        W23370  21.825   5.845  23.144  0.0066 -0.0489 -0.0047
19071W        W23371   4.009   2.176  12.547 -0.3608 -0.1195  0.1278
19072W        W23372  20.353   4.477  20.301 -0.4675  0.1163  0.0168
19073W        W23373  13.523   6.960   8.487 -0.0154  0.2417 -0.1201
19074W        W23374  11.164   4.573   8.945 -0.0990 -0.2357  0.2172
19075W        W23375   5.852   5.485   7.264  0.0736 -0.0427  0.0640
19076W        W23376  12.291   2.045  21.925 -0.0253 -0.0802 -0.2019
19077W        W23377   1.219   7.318   0.931  0.1152  0.0635  0.0275
19078W        W23378   3.436   0.001  25.932 -0.0110  0.0310  0.1258
19079W        W23379  17.609   5.941  20.471  0.2312  0.1353 -0.3443
19080W        W23380   0.212   0.372  25.071 -0.1405 -0.0673  0.0976
19081W        W23381  15.760   6.970   3.307 -0.1570 -0.2779  0.0791
19082W        W23382   1.470   3.276  23.681 -0.1875 -0.0957 -0.0359
19083W        W23383  11.113   6.582  31.109  0.2101 -0.1002 -0.1779
19084W        W23384   8.589   7.572  11.709  0.0347 -0.0176 -0.0695
19085W        W23385  11.803   2.136   2.902 -0.0478  0.1448  0.0441
19086W        W23386   7.379   5.831  27.452  0.1640  0.0684 -0.4727
19087W        W23387  24.509   3.482  26.659  0.1208  0.1716  0.1801
19088W        W23388  23.891   6.104  27.920  0.1040 -0.2392 -0.1687
19089W        W23389   0.862   0.163   7.016  0.0540 -0.1341 -0.1563
19090W        W23390  14.036   0.400  10.427  0.0397 -0.3396 -0.0707
19091W        W23391   1.981   5.299   9.783 -0.2412  0.0330 -0.0453
19092W        W23392  14.161   2.344  15.683  0.0375  0.2560 -0.0330
19093W        W23393   1.192   6.833  26.749 -0.2219 -0.0641 -0.2182
19094W        W23394   4.648   6.833   2.909 -0.1092 -0.0312  0.3666
19095W        W23395   4.765   4.882   5.083  0.2738  0.1958  0.2233
19096W        W23396  19.635   6.736   1.675 -0.0135  0.3208 -0.0882
19097W        W23397  14.435   6.015   6.976 -0.0197 -0.1566 -0.1996
19098W        W23398  23.458   5.993  12.944  0.0721  0.0183 -0.0953
19099W        W23399   6.623   1.074  15.366  0.1424 -0.4711 -0.0422
19100W        W23400   4.896   6.142   2.371  0.3212  0.1623  0.1919
19101W        W23401  18.990   3.826  27.019  0.0287 -0.0833  0.0922
19102W        W23402   9.563   3.750  11.283 -0.1859 -0.2566 -0.3333
19103W        W23403   0.223   7.076  13.761 -0.1057  0.1092  0.1567
19104W        W23404  24.359   2.853   6.786  0.0320  0.0093 -0.2607
19105W        W23405  22.176   4.885  10.680  0.2422  0.0917  0.0955
19106W        W23406   6.340   6.269  25.787 -0.3236  0.2429  0.1304
19107W        W23407  16.096   5.579  32.878  0.3388  0.0104 -0.1288
19108W        W23408  13.434   6.988   1.122 -0.0966  0.2394  0.0266
19109W        W23409  17.125   7.491   9.058 -0.0333  0.1629 -0.0351
19110W        W23410  15.814   0.712  18.114 -0.3484  0.1577 -0.2551
19111W        W23411   6.062   1.431  23.359  0.0511  0.1517 -0.0876
19112W        W23412   7.629   1.832  11.397 -0.1456 -0.0823 -0.1103
19113W        W23413  23.319   3.527  10.502 -0.1829 -0.0105  0.0088
19114W        W23414  16.410   6.458   0.412 -0.0372  0.0834 -0.0552
19115W        W23415   9.300   0.895   1.834 -0.0131  0.0523  0.1013
19116W        W23416   7.621   4.805  15.311  0.0482  0.2764 -0.0022
19117W        W23417   5.270   5.527  32.777  0.3855  0.1378  0.3525
19118W        W23418   6.010   7.200   0.945  0.0892  0.0096 -0.1284
19119W        W23419   3.669   5.964   8.273  0.0356 -0.0160 -0.0621
19120W        W23420   3.150   4.574  32.654  0.1570 -0.5003  0.1224
19121W        W23421  17.630   0.662  25.888  0.0900  0.0466  0.0275
19122W        W23422   1.349   7.207  29.358 -0.0611 -0.2981 -0.1522
19123W        W23423   6.581   5.872  30.412 -0.2062 -0.2129 -0.0517
19124W        W23424   1.422   5.931   9.174  0.0686 -0.0612 -0.2962
19125W        W23425  16.456   6.928  24.665  0.1450  0.4472  0.1691
19126W        W23426   5.819   0.538   2.285  0.3358 -0.3141 -0.3332
19127W        W23427   8.704   1.911   1.814  0.2004 -0.1639 -0.0648
19128W        W23428  23.102   7.078  21.091  0.1762 -0.1067  0.0347
19129W        W23429  17.376   4.619   1.257 -0.0752 -0.1949  0.2539
19130W        W23430  15.145   4.006  24.474 -0.0825 -0.0600 -0.0589
19131W        W23431  20.410   7.290   9.842  0.0064  0.1330 -0.0004
19132W        W23432   2.378   4.589   4.610 -0.0871  0.3307  0.0846
19133W        W23433   9.163   6.949   3.623 -0.4066 -0.1484  0.1831
19134W        W23434  13.836   7.177  23.663 -0.0022 -0.0121 -0.1850
19135W        W23435   4.744   5.943  31.447  0.1175  0.0945  0.2935
19136W        W23436   6.534   2.570  10.946  0.0338  0.2417  0.0779
19137W        W23437   9.804   5.867   7.829  0.4241  0.2068  0.1964
19138W        W23438   4.438   0.979  26.913 -0.2984  0.0324  0.2020
19139W        W23439   4.190   1.187   6.096  0.0328 -0.1502 -0.0006
19140W        W23440  16.982   3.866  19.350  0.0656  0.3029  0.0396
19141W        W23441  17.373   6.550  22.879  0.1374 -0.1436  0.2842
19142W        W23442   3.207   1.567  11.988  0.2189  0.2103  0.2411
19143W        W23443  18.195   0.068   0.531  0.0211 -0.4761 -0.2248
19144W        W23444  11.455   3.375   6.076 -0.1522  0.1604 -0.0998
19145W        W23445  13.956   1.829  22.968  0.2317  0.0592  0.3504
19146W        W23446  15.330   6.962  14.493  0.3033  0.2618  0.1135
19147W        W23447  12.226   3.196   9.909  0.2015  0.0848  0.0967
19148W        W23448  17.585   1.965   4.988 -0.2430 -0.0854  0.1970
19149W        W23449   9.878   4.218  32.451  0.0720 -0.2636 -0.0223
19150W        W23450  12.487   7.330  30.339  0.2661  0.1815  0.2965
19151W        W23451  19.069   3.016   2.332  0.0439 -0.1475 -0.0481
19152W        W23452   2.725   3.483  13.916 -0.1169  0.0988  0.1320
19153W        W23453   6.047   2.189  30.601  0.1379 -0.1121 -0.1650
19154W        W23454  18.273   4.144  27.583  0.0415  0.1481 -0.0306
19155W        W23455  13.979   2.211  21.521  0.1831 -0.0014  0.1501
19156W        W23456  10.808   5.030  21.045  0.0522 -0.0855 -0.1196
19157W        W23457   7.151   7.156   3.121  0.0118  0.1890  0.3917
19158W        W23458  20.466   7.094  20.983 -0.1343 -0.0454  0.2319
19159W        W23459  20.209   7.098  11.492  0.2385  0.3244 -0.0391
19160W        W23460  12.180   7.426  31.964 -0.3772 -0.5429  0.1520
19161W        W23461   1.478   4.486   4.070  0.0064 -0.0764 -0.0254
19162W        W23462   6.448   5.380  24.021 -0.0641  0.1725  0.1011
19163W        W23463   5.476   3.116  10.162 -0.2436 -0.0328  0.1872
19164W        W23464   3.889   3.251  15.615 -0.1991 -0.0252  0.1209
19165W        W23465   5.965   7.430  23.478  0.0743  0.2681 -0.1842
19166W        W23466  24.349   1.394   1.743  0.3734 -0.0238 -0.0888
19167W        W23467  12.410   5.773  21.361 -0.0313 -0.0338  0.0449
19168W        W23468  24.528   0.406   3.720  0.1228 -0.3533 -0.2075
19169W        W23469  10.085   7.189   0.236  0.0508  0.0433  0.0335
19170W        W23470  15.727   7.274  29.559 -0.1714  0.0002  0.1229
19171W        W23471   0.664   3.240  15.806 -0.1071  0.4016 -0.0702
19172W        W23472   0.997   5.433   0.858 -0.1716  0.2032 -0.1186
19173W        W23473  20.997   0.550  32.519 -0.0864 -0.2076  0.1641
19174W        W23474  21.746   2.490  30.782  0.0242 -0.4161 -0.2186
19175W        W23475  20.771   4.431   4.008  0.3168  0.1634 -0.1364
19176W        W23476  15.619   4.202  21.754 -0.0670  0.3860  0.1894
19177W        W23477   2.537   6.547  25.164 -0.1153 -0.1939 -0.2550
19178W        W23478  23.324   0.967  28.479 -0.2066 -0.1608 -0.4218
19179W        W23479  21.269   5.654  26.112  0.0086 -0.2309  0.3566
19180W        W23480  19.187   0.751  18.041 -0.0454  0.1077 -0.1098
19181W        W23481   4.770   7.428  32.814 -0.0530  0.1048 -0.0990
19182W        W23482  24.623   2.847  31.183 -0.1389  0.0362  0.1103
19183W        W23483  22.618   0.495   8.507 -0.0788  0.0877  0.0161
19184W        W23484   9.739   5.806   4.429  0.1678  0.1344  0.3161
19185W        W23485   2.054   6.766   6.635 -0.0464 -0.1262 -0.2234
19186W        W23486  24.935   3.871  30.296  0.2935 -0.0628  0.1043
19187W        W23487  15.541   5.544  26.863  0.1326  0.0205 -0.0485
19188W        W23488  12.467   3.009  23.613  0.1800  0.1532 -0.0469
19189W        W23489   4.858   2.645  17.412  0.2079  0.3318  0.1510
19190W        W23490   4.580   0.765  16.353  0.0136  0.0404  0.0096
19191W        W23491  13.273   0.374  17.676  0.1069  0.0227 -0.2549
19192W        W23492  22.088   7.363   8.386  0.1044  0.2317  0.3163
19193W        W23493  18.277   3.878  30.715  0.1643 -0.1918  0.0272
19194W        W23494  17.481   6.275   4.827  0.3730 -0.1427  0.0303
19195W        W23495  12.605   3.506   4.272 -0.1221  0.2494  0.1122
19196W        W23496   7.108   1.024   8.602 -0.0510  0.1746 -0.2219
19197W        W23497  11.105   1.119  30.285  0.1162  0.0781  0.0218
19198W        W23498   2.489   3.509   2.621  0.3517  0.2718  0.0581
19199W        W23499  22.682   0.778  10.240 -0.1057  0.2010 -0.0651
19200W        W23500   9.331   5.169   1.453 -0.1076 -0.0998  0.2898
19201W        W23501   2.747   0.906  27.294  0.0271 -0.2296 -0.0618
19202W        W23502  13.067   4.199  25.653 -0.0333 -0.2575 -0.0579
19203W        W23503  24.193   6.877  11.707 -0.0991  0.0045 -0.0991
19204W        W23504   7.151   1.444   1.548 -0.2935 -0.2863 -0.1583
19205W        W23505  17.774   0.400   3.455  0.1367 -0.1797  0.0576
19206W        W23506  18.434   6.639  26.262 -0.1644  0.4320 -0.0011
19207W        W23507   5.456   3.210  29.797  0.1975  0.1276  0.1719
19208W        W23508  14.280   4.892  28.893  0.0675  0.2519 -0.1624
19209W        W23509  17.301   7.049   8.221  0.0377  0.0165  0.2435
19210W        W23510  11.871   1.117   0.268 -0.0337 -0.0838  0.2568
19211W        W23511  15.598   7.060   8.864 -0.1632  0.0823  0.2099
19212W        W23512  10.614   2.132  29.917 -0.2135  0.2549 -0.1557
19213W        W23513   5.706   5.828  11.829  0.0841  0.0030 -0.0694
19214W        W23514  18.168   4.906  31.577  0.0312  0.0284 -0.0939
19215W        W23515   6.226   5.714  28.223 -0.1517 -0.2409 -0.4044
19216W        W23516  18.206   3.845   0.211  0.1240  0.0617 -0.0734
19217W        W23517   6.483   3.266  17.138  0.2311  0.1163 -0.2552
19218W        W23518  24.746   3.645  24.092 -0.1024  0.1686  0.1446
19219W        W23519  20.184   5.578  21.821 -0.3958 -0.3311  0.1237
19220W        W23520   1.531   4.794  12.711 -0.0645 -0.0964  0.2571
19221W        W23521  13.833   3.332  29.489 -0.3198 -0.1289 -0.0216
19222W        W23522   8.809   6.945  23.159  0.3161 -0.1871  0.2577
19223W        W23523  22.723   3.631  27.076 -0.0209 -0.2729  0.0466
19224W        W23524   8.020   2.747  22.452  0.2001  0.0036  0.0641
19225W        W23525   9.583   3.770   3.812 -0.0526  0.0477 -0.2804
19226W        W23526   8.194   2.422   7.556  0.2014  0.1045 -0.1006
19227W        W23527  13.177   0.484  31.670  0.2804 -0.2017 -0.1749
19228W        W23528  15.376   0.547   6.764 -0.2140 -0.1047  0.0129
19229W        W23529   3.548   7.668  22.465 -0.1674  0.3074  0.1350
19230W        W23530  14.475   1.430  30.969  0.0124  0.0048  0.2315
19231W        W23531  15.227   1.466  28.336  0.3664 -0.0350 -0.0658
19232W        W23532   7.082   7.239   5.509  0.1469 -0.0959  0.1651
19233W        W23533   4.781   5.487  30.158 -0.1088  0.1154 -0.2472
19234W        W23534   8.834   5.727   0.055  0.0685 -0.0711 -0.1684
19235W        W23535   3.095   1.246  11.157 -0.0871 -0.2542  0.3066
19236W        W23536  11.780   5.089   2.760  0.1167 -0.2205 -0.0547
19237W        W23537  21.668   4.255   3.202 -0.1622 -0.1636 -0.0994
19238W        W23538   5.973   1.641  16.792 -0.2424 -0.0586  0.1603
19239W        W23539  19.471   3.022  23.319 -0.1697 -0.0211 -0.1758
19240W        W23540  11.175   2.095  20.813 -0.1922 -0.0499  0.0568
19241W        W23541   2.040   6.119  24.427 -0.1449  0.0708 -0.0439
19242W        W23542  17.900   1.914   6.451 -0.0242  0.2634  0.2633
19243W        W23543   5.461   2.349  14.263  0.0331  0.2033  0.0193
19244W        W23544  22.299   5.630  21.673 -0.0111 -0.0274 -0.1335
19245W        W23545  22.378   4.445   2.088 -0.1248  0.3323  0.0343
19246W        W23546  15.204   2.518   1.347  0.2060  0.0948 -0.0238
19247W        W23547   0.783   0.849  26.829  0.2088 -0.0879  0.0759
19248W        W23548  21.584   5.527  27.019  0.2679 -0.2082 -0.1180
19249W        W23549  20.295   6.008  20.237  0.0351 -0.1071 -0.1071
19250W        W23550   2.707   1.707  27.225 -0.0705  0.2210  0.1119
19251W        W23551  20.892   1.131  29.835 -0.0281  0.0195  0.2694
19252W        W23552  11.282   5.594  22.136 -0.0381 -0.0784 -0.0137
19253W        W23553  18.624   7.375  31.064  0.1738 -0.1093  0.0521
19254W        W23554  21.501   7.200  13.409 -0.0929  0.0941  0.3566
19255W        W23555  17.095   0.236   2.055  0.2931  0.1708 -0.1013
19256W        W23556  14.179   1.557  16.699  0.5334 -0.0744  0.1776
19257W        W23557   0.568   2.704  14.039  0.3329  0.1267  0.2592
19258W        W23558  22.016   5.344   4.700  0.1291 -0.2023  0.1577
19259W        W23559  23.653   6.506  23.363 -0.1505  0.0609  0.1007
19260W        W23560  14.919   1.373  22.952  0.0579 -0.0539 -0.0365
19261W        W23561   7.287   6.094  13.209 -0.1398 -0.0134  0.1832
19262W        W23562   9.589   7.432  32.410  0.0153  0.0332  0.2405
19263W        W23563  17.625   0.685  29.729  0.3139 -0.0813 -0.2823
19264W        W23564  12.430   0.975  22.504  0.1212  0.0925  0.2535
19265W        W23565   7.499   3.892   6.838 -0.1323 -0.1932 -0.0183
19266W        W23566  24.327   0.787  24.718  0.2231  0.2984 -0.0684
19267W        W23567  22.180   1.278  29.279 -0.2303  0.4154 -0.2033
19268W        W23568   7.812   2.780  10.826  0.0826  0.0088 -0.3414
19269W        W23569   9.038   7.073   7.498 -0.0273  0.3470  0.0965
19270W        W23570   2.936   4.433   5.433  0.2787  0.1722 -0.0206
19271W        W23571   4.088   5.553  10.475 -0.3296 -0.0554 -0.0447
19272W        W23572  11.373   2.524  28.981 -0.1247 -0.0258  0.0250
19273W        W23573   7.806   6.506  24.451  0.0720 -0.1117  0.3040
19274W        W23574   7.963   3.584   9.484  0.1059 -0.1871  0.0309
19275W        W23575  17.407   2.916   2.320 -0.0549  0.2231 -0.2272
19276W        W23576   5.887   6.484   4.985  0.0853  0.0488  0.0003
19277W        W23577  17.966   1.857  31.729 -0.3069  0.2206 -0.3410
19278W        W23578   5.156   2.972   9.269 -0.0009 -0.1615 -0.3376
19279W        W23579  12.454   6.595   4.582 -0.1282  0.1111 -0.2017
19280W        W23580   5.219   6.208  28.136 -0.1965  0.0949  0.2274
19281W        W23581  14.750   0.537  17.293  0.0221  0.0702  0.1151
19282W        W23582   6.813   1.429  15.872 -0.1416  0.0344 -0.0158
19283W        W23583  20.507   1.233  22.003  0.0025  0.0503 -0.0257
19284W        W23584   8.177   0.123   0.777  0.0208  0.0050 -0.1900
19285W        W23585  11.280   4.650   7.038 -0.2939 -0.0560 -0.0006
19286W        W23586  21.468   7.781  29.782  0.0554  0.0250  0.1134
19287W        W23587   3.051   5.590  30.151  0.2289 -0.0529  0.2026
19288W        W23588  13.844   6.662   4.273  0.0169 -0.2410 -0.7086
19289W        W23589   1.424   0.483  11.642 -0.7312  0.0082 -0.0593
19290W        W23590   9.599   4.345  21.803 -0.0983 -0.0541  0.1594
19291W        W23591  18.384   2.230  28.585 -0.0703  0.0579 -0.0963
19292W        W23592  12.204   1.115  18.543 -0.3149 -0.0185  0.2231
19293W        W23593  17.052   4.988  23.333  0.0006  0.0384  0.4587
19294W        W23594   5.277   4.579   2.600 -0.2536  0.0338  0.1721
19295W        W23595  17.066   3.760  31.707 -0.1058 -0.0981 -0.0505
19296W        W23596  17.933   2.393  14.613 -0.0126 -0.3069 -0.1549
19297W        W23597   7.429   0.437   7.385 -0.0401  0.0559  0.2564
19298W        W23598  18.970   6.720   6.737  0.1561  0.0986  0.0346
19299W        W23599  24.057   7.614   9.878  0.0828 -0.3979  0.2300
19300W        W23600  22.851   0.948  26.114 -0.1030  0.1370 -0.0698
19301W        W23601   0.414   1.261  30.364  0.0767 -0.0607  0.3136
19302W        W23602   7.170   3.350  22.942  0.1256 -0.0723  0.2801
19303W        W23603  18.651   0.959   5.676 -0.2936 -0.1277 -0.3321
19304W        W23604  10.571   7.057  12.112 -0.0276 -0.2199  0.0045
19305W        W23605   0.090   4.557  24.367  0.0403 -0.0688  0.1427
19306W        W23606  11.972   3.463   4.281 -0.1083 -0.1458  0.0136
19307W        W23607  23.329   0.014   2.421  0.2753 -0.1216 -0.1325
19308W        W23608  24.402   1.557   8.228  0.0088  0.0981 -0.1263
19309W        W23609   7.033   6.532  32.060  0.3694  0.0140 -0.2314
19310W        W23610   5.037   7.343  30.206 -0.0968  0.0957  0.2156
19311W        W23611  21.389   3.079   7.327  0.0857  0.1316  0.0894
19312W        W23612  17.649   4.142  10.159  0.0229  0.4202  0.4085
19313W        W23613  17.171   3.447  32.597 -0.0760 -0.2148 -0.0686
19314W        W23614   6.448   3.343   6.880 -0.1016 -0.1538  0.0637
19315W        W23615  12.266   7.414  31.260 -0.1659  0.0431  0.3893
19316W        W23616  10.398   7.635  12.794 -0.1746 -0.0809  0.0011
19317W        W23617   9.076   2.266  27.754 -0.1327  0.4414 -0.3684
19318W        W23618   1.131   3.750  11.607  0.2378  0.0105 -0.1859
19319W        W23619  20.570   0.920  30.988  0.0220 -0.0527 -0.1605
19320W        W23620   2.376   5.246   8.687  0.0584 -0.1083  0.3776
19321W        W23621  15.414   3.683   1.631 -0.1757  0.2811  0.1840
19322W        W23622  20.557   7.354  10.588 -0.0250 -0.2261  0.1085
19323W        W23623   3.825   3.523  14.787 -0.0467 -0.1932  0.0047
19324W        W23624  14.389   6.205   1.747  0.1608  0.0610 -0.0025
19325W        W23625  19.905   1.810  31.375  0.2503  0.0232 -0.0245
19326W        W23626  16.600   4.870  18.201 -0.3815  0.1836  0.0204
19327W        W23627   0.073   0.362  23.589  0.4911 -0.2832 -0.0152
19328W        W23628  11.578   0.140  20.875 -0.3830  0.0170 -0.1806
19329W        W23629  15.067   0.668  27.089  0.0377  0.2183  0.0541
19330W        W23630   0.103   5.867  13.152 -0.0580  0.0420  0.0263
19331W        W23631  13.342   7.750  32.027 -0.2745  0.1661  0.0161
19332W        W23632  15.921   0.412  24.872  0.3322 -0.0668 -0.0381
19333W        W23633   8.435   6.149   6.118 -0.1463  0.2947 -0.0420
19334W        W23634   7.229   4.410   7.498  0.2088  0.1657  0.4513
19335W        W23635   6.762   4.354  14.513 -0.0030  0.0816  0.0860
19336W        W23636   7.025   5.019   6.950 -0.2042  0.1107 -0.3135
19337W        W23637   0.714   5.566  28.312 -0.0624  0.3222 -0.2051
19338W        W23638   4.131   4.506   6.444 -0.0377 -0.1422 -0.0275
19339W        W23639  10.462   0.874  30.690 -0.2835  0.3484 -0.0540
19340W        W23640   1.647   6.665  13.075 -0.1448  0.0859 -0.0541
19341W        W23641  20.912   0.881  23.119 -0.1283 -0.0480  0.2464
19342W        W23642  18.945   3.888   7.461 -0.2633 -0.2077 -0.0806
19343W        W23643   0.131   6.824   7.107 -0.1661 -0.3229 -0.2648
19344W        W23644  11.084   0.257  21.143 -0.0839  0.1063 -0.0657
19345W        W23645  12.583   5.519  31.380 -0.1491 -0.0507 -0.0038
19346W        W23646  22.363   7.481  22.196 -0.3508 -0.1623  0.0374
19347W        W23647  16.286   3.620  24.462  0.0299  0.1907  0.2228
19348W        W23648  19.409   6.346   6.531  0.3065 -0.0648 -0.1466
19349W        W23649   7.315   3.057  31.526  0.2527  0.2106  0.2504
19350W        W23650  16.208   0.734  29.452  0.2074 -0.2104  0.1201
19351W        W23651  23.622   0.786   5.861  0.1985  0.1990  0.1071
19352W        W23652   6.263   1.463  31.109 -0.0016 -0.1336 -0.1525
19353W        W23653  18.745   4.081   5.993  0.0214 -0.0675 -0.1456
19354W        W23654  24.153   1.775  22.542 -0.1168 -0.2502  0.0909
19355W        W23655   4.035   3.808  16.030 -0.1008  0.1331  0.0740
19356W        W23656   4.078   7.726  30.180  0.1230 -0.0943  0.1885
19357W        W23657   8.886   3.237   7.608  0.1494  0.3410 -0.1782
19358W        W23658  21.618   1.753  23.988  0.1845  0.0785 -0.2076
19359W        W23659  14.328   3.769  31.628  0.3446  0.1258  0.3115
19360W        W23660   6.577   1.423  27.482 -0.2680  0.0998 -0.3222
19361W        W23661  24.438   3.819   2.560 -0.1573  0.1773  0.1621
19362W        W23662  24.407   2.199  12.124 -0.0104 -0.0674  0.1627
19363W        W23663  18.141   3.443  27.945 -0.0590 -0.2146  0.3078
19364W        W23664  17.810   1.124   5.184  0.0670  0.0325 -0.1090
19365W        W23665   4.396   2.029  22.975 -0.2243 -0.1854  0.0141
19366W        W23666  24.158   0.218   7.472  0.3348 -0.0796 -0.0607
19367W        W23667  24.464   3.376   1.597  0.0786 -0.0978  0.0955
19368W        W23668   6.297   1.887  27.557 -0.4418 -0.2021 -0.0923
19369W        W23669  15.827   6.323   8.849  0.0276  0.1703  0.1041
19370W        W23670  16.157   4.030   9.929  0.2402  0.0511 -0.2743
19371W        W23671   6.730   6.995  26.752 -0.3213 -0.2038  0.0229
19372W        W23672  10.586   3.723  24.240  0.0505 -0.2785 -0.4563
19373W        W23673  14.530   2.804   7.751 -0.0963 -0.3138  0.0162
19374W        W23674  14.262   1.161  20.058  0.2785  0.1564  0.0436
19375W        W23675   5.835   6.406  25.778 -0.2127  0.2013  0.3644
19376W        W23676   4.037   2.138  28.952  0.2056  0.1723 -0.0326
19377W        W23677  12.524   6.963  23.272  0.4037 -0.0512 -0.0244
19378W        W23678  24.939   3.186   4.844  0.1426 -0.0126 -0.0839
19379W        W23679   7.450   5.522  13.163 -0.1561  0.1845  0.1040
19380W        W23680   8.961   5.817   5.963 -0.0640 -0.3089  0.2386
19381W        W23681  23.694   3.015  30.109 -0.0674  0.1035  0.0811
19382W        W23682   3.776   7.251  25.132 -0.5827  0.2437  0.4562
19383W        W23683  15.438   0.787   4.895  0.0729 -0.0234  0.0155
19384W        W23684  20.109   3.954   8.724 -0.1672  0.0873 -0.0107
19385W        W23685   5.268   6.191   4.188 -0.0592 -0.0860 -0.2186
19386W        W23686  15.529   4.475   9.111  0.1033  0.4297 -0.1779
19387W        W23687  21.233   3.355  27.805 -0.0035 -0.0765  0.1987
19388W        W23688   0.740   0.537   9.681  0.1805  0.0417 -0.1032
19389W        W23689  22.759   4.792  23.267 -0.1213 -0.0105  0.4155
19390W        W23690  15.348   0.965  19.670  0.0636 -0.3442  0.1501
19391W        W23691  20.172   0.039  18.783  0.0209  0.0514  0.0157
19392W        W23692   8.916   7.496   9.507 -0.3016 -0.1609  0.0300
19393W        W23693   0.741   0.363   2.649 -0.1034 -0.1241  0.1883
19394W        W23694  23.472   1.763  26.925 -0.0442 -0.1782 -0.2087
19395W        W23695  16.175   6.025  24.929 -0.2855 -0.0559  0.0272
19396W        W23696   3.957   3.484  24.340 -0.2689 -0.1517 -0.1403
19397W        W23697  23.373   1.898   5.123  0.1054  0.3360 -0.0616
19398W        W23698  16.178   5.346  24.142 -0.1017  0.2184 -0.0634
19399W        W23699  24.017   4.603  10.402 -0.1053  0.1442 -0.2527
19400W        W23700  24.861   3.725   1.220  0.3987 -0.0842  0.2629
19401W        W23701  18.206   2.670   9.164  0.1396  0.1215  0.1605
19402W        W23702  23.829   0.419  27.394 -0.0581  0.0272 -0.0203
19403W        W23703   6.020   0.302  22.765  0.1855  0.0675  0.0409
19404W        W23704  12.738   6.396   6.652  0.1047 -0.1023 -0.0327
19405W        W23705   7.659   0.032   8.839 -0.0837  0.0537  0.1343
19406W        W23706   4.915   2.985  12.763  0.0960 -0.1249 -0.0398
19407W        W23707  13.620   6.696   1.757  0.3327 -0.1583  0.2979
19408W        W23708   4.187   4.942  30.334 -0.1975 -0.0378 -0.0475
19409W        W23709  22.664   4.860   7.812 -0.0015  0.3167 -0.4367
19410W        W23710   4.734   7.581   0.791  0.0229 -0.1377 -0.1952
19411W        W23711   5.600   4.245  31.332  0.0123  0.2587 -0.0104
19412W        W23712   0.055   6.182  26.314 -0.1297  0.1358 -0.0477
19413W        W23713   9.369   3.814  28.895  0.0585 -0.1097  0.2992
19414W        W23714  23.097   1.870   7.137  0.0868 -0.2778  0.3951
19415W        W23715   2.550   4.456  27.511 -0.3240  0.0008  0.0197
19416W        W23716  14.289   6.192  24.038  0.0723  0.2843  0.2024
19417W        W23717   7.919   3.911  15.192  0.0201  0.1689  0.1333
19418W        W23718   0.337   1.272  32.771  0.3124  0.0206  0.0756
19419W        W23719  15.640   7.065  29.039  0.2139  0.1722 -0.1135
19420W        W23720  15.167   0.586  20.268 -0.0145 -0.2243 -0.1229
19421W        W23721   0.256   1.531  16.341  0.0522 -0.1854  0.2053
19422W        W23722  14.505   1.543   0.466  0.0166  0.0293  0.2021
19423W        W23723   9.864   0.047   0.961 -0.2823 -0.0397  0.1861
19424W        W23724   3.893   6.579   5.798  0.3685 -0.1386  0.2536
19425W        W23725  11.937   0.515   4.139  0.0232 -0.0794  0.2034
19426W        W23726  11.385   2.203  32.026  0.0350  0.0653  0.3873
19427W        W23727  14.532   2.438   6.227 -0.1534  0.2019  0.0078
19428W        W23728   5.851   7.179  31.818  0.1993  0.1796  0.0036
19429W        W23729   1.379   1.482  11.273  0.2052 -0.1511 -0.2217
19430W        W23730  22.292   4.029   1.785 -0.0614  0.3115 -0.0984
19431W        W23731  10.298   4.413  22.917  0.0850 -0.3080  0.0849
19432W        W23732  16.447   5.394   4.562 -0.2472 -0.1297 -0.1912
19433W        W23733  20.122   0.169   8.288  0.1012 -0.1081 -0.0737
19434W        W23734   0.646   4.674  30.948  0.4151  0.2612  0.1308
19435W        W23735  17.696   1.023   8.715 -0.0489 -0.0430 -0.0630
19436W        W23736   6.443   1.748  29.945  0.0017 -0.1162 -0.0555
19437W        W23737  16.890   2.820  17.622 -0.1057  0.2313  0.0315
19438W        W23738   3.946   2.836   5.983  0.0626 -0.1440 -0.0222
19439W        W23739   0.605   3.508   6.105 -0.0428 -0.4417  0.0862
19440W        W23740  17.463   7.391   9.840  0.1838  0.0386  0.0083
19441W        W23741  24.012   1.238   6.542  0.3221 -0.0268 -0.0345
19442W        W23742  17.667   2.801  10.414 -0.1086 -0.0345  0.0039
19443W        W23743  17.305   7.169  22.243 -0.2446  0.3338 -0.1527
19444W        W23744  21.482   4.987   9.952 -0.3631 -0.2722  0.4203
19445W        W23745  21.240   4.347   1.641 -0.0041  0.2800  0.0645
19446W        W23746   5.364   0.117  13.716  0.0693 -0.1732  0.0916
19447W        W23747  16.919   1.851   2.303 -0.0813 -0.2795 -0.2474
19448W        W23748   7.831   0.934   7.329 -0.0844  0.0612 -0.1715
19449W        W23749  12.985   0.864  27.781  0.2263  0.0707  0.0187
19450W        W23750  10.030   6.705  12.949  0.3347 -0.0283 -0.0627
19451W        W23751  20.383   2.647   4.618  0.1018 -0.1767 -0.0171
19452W        W23752  17.722   5.604   6.233 -0.3095 -0.0348  0.1596
19453W        W23753   5.822   4.764  30.563  0.1396 -0.2056 -0.0678
19454W        W23754  14.945   3.289  31.388  0.0302 -0.1263  0.0412
19455W        W23755   4.490   6.777   1.907  0.2294 -0.0663  0.1891
19456W        W23756  12.337   6.435  23.567  0.3027 -0.1544  0.2325
19457W        W23757  23.150   3.665  20.907 -0.0855 -0.0728 -0.2468
19458W        W23758   6.296   0.060  26.475 -0.0964  0.0851 -0.3066
19459W        W23759  13.766   7.594  32.203  0.3528  0.2085  0.0834
19460W        W23760  19.965   1.820   5.133 -0.1264  0.1372 -0.3033
19461W        W23761   3.641   4.541  28.662  0.2267 -0.1981 -0.0322
19462W        W23762   4.797   5.048  23.191 -0.0523  0.1021  0.2806
19463W        W23763   3.293   7.204  23.937 -0.0112 -0.0923 -0.1321
19464W        W23764  22.591   2.868  30.665 -0.0754  0.1893  0.0615
19465W        W23765   2.293   0.188  23.786  0.0626  0.2936 -0.0008
19466W        W23766   5.099   7.194  27.473  0.1498 -0.0167 -0.0686
19467W        W23767  18.945   1.220  31.531  0.2863 -0.0667 -0.1285
19468W        W23768  18.450   0.884  25.135  0.0791 -0.2402 -0.0969
19469W        W23769   3.609   2.104  14.738  0.1056 -0.3251 -0.1121
19470W        W23770  12.205   1.762   6.782 -0.2152  0.2576 -0.1440
19471W        W23771  16.828   6.209   0.323 -0.2334  0.0300  0.2847
19472W        W23772  16.667   3.649  16.105 -0.0862 -0.1188  0.0457
19473W        W23773   9.157   1.273   6.598 -0.1165  0.1591  0.3122
19474W        W23774   2.101   2.361  10.718  0.0735 -0.0268 -0.2467
19475W        W23775  24.366   0.994  31.978  0.1095 -0.0542 -0.1557
19476W        W23776   4.684   2.183   1.313 -0.2860 -0.0254 -0.0348
19477W        W23777   7.090   0.800  30.658  0.0019  0.0196  0.0177
19478W        W23778   2.503   0.469   0.823  0.1025  0.3289  0.1545
19479W        W23779  18.633   5.221   0.756 -0.0468 -0.2361  0.1610
19480W        W23780  19.508   7.186   2.859  0.2707 -0.0632  0.0032
19481W        W23781  16.943   5.992  31.506 -0.1459 -0.2550  0.1648
19482W        W23782  12.386   4.532  10.279 -0.0250  0.1978 -0.0181
19483W        W23783  17.179   1.153  27.835  0.0001 -0.0861 -0.0920
19484W        W23784  21.909   1.102   0.960  0.3630 -0.2679  0.2049
19485W        W23785   3.954   6.483  15.824  0.1456 -0.0361 -0.1120
19486W        W23786  14.898   0.237  26.822 -0.0833 -0.1317 -0.2635
19487W        W23787  16.719   7.683  32.159  0.1994 -0.1049 -0.0105
19488W        W23788   1.891   0.309  24.066 -0.1024 -0.1111  0.2641
19489W        W23789   9.245   6.979  25.854 -0.2563 -0.1002 -0.0129
19490W        W23790  21.625   2.238  25.225  0.0170  0.3687 -0.0898
19491W        W23791   7.548   1.132   0.774  0.1104 -0.0774 -0.3796
19492W        W23792  15.633   0.239  16.107 -0.1451  0.0056 -0.1740
19493W        W23793  10.458   3.336  31.002  0.1614 -0.2241  0.0807
19494W        W23794  12.854   1.925  20.402 -0.1656  0.1920 -0.0106
19495W        W23795  15.605   5.903   7.518  0.0508  0.2052 -0.0411
19496W        W23796   7.976   4.929  25.350  0.1931 -0.3163  0.5052
19497W        W23797  14.117   2.225  31.899 -0.0367  0.2161  0.0882
19498W        W23798   4.090   6.418  29.862 -0.0414  0.1159 -0.0302
19499W        W23799  22.715   0.669   3.160  0.1699 -0.1385  0.0470
19500W        W23800  17.756   6.388  20.978  0.1396  0.0852 -0.0286
19501W        W23801  15.260   2.190  27.479  0.0050  0.1418  0.1077
19502W        W23802  15.793   5.174  27.794  0.1109  0.2171  0.1804
19503W        W23803  13.493   4.325   9.495  0.1129  0.0129 -0.1714
19504W        W23804  14.017   7.106  26.493 -0.0655 -0.2299 -0.2104
19505W        W23805   1.007   1.710  32.015 -0.0997  0.0797 -0.0197
19506W        W23806   3.139   7.107   0.715 -0.0230  0.0775 -0.4187
19507W        W23807   4.142   7.579  32.116  0.1466  0.3408  0.0610
19508W        W23808  20.018   6.825   8.959 -0.0972  0.0818 -0.0316
19509W        W23809  20.905   2.405  24.104 -0.2413  0.3146 -0.3337
19510W        W23810   6.016   2.905  30.831 -0.2099 -0.2483 -0.1454
19511W        W23811  17.459   4.115  20.436 -0.1140  0.0983  0.1705
19512W        W23812   7.323   1.812   0.758  0.1312  0.0247 -0.0297
19513W        W23813   6.168   2.742   8.969  0.0028 -0.1752  0.1368
19514W        W23814   8.120   1.198   3.907  0.2210 -0.0558 -0.0673
19515W        W23815   6.426   2.110  10.175  0.0444  0.2925 -0.1616
19516W        W23816   8.717   6.971  13.449 -0.0837 -0.1221 -0.1755
19517W        W23817   3.608   4.939   7.149  0.3962  0.0726  0.0851
19518W        W23818   0.173   0.466  29.339  0.2096  0.0727  0.0881
19519W        W23819   8.279   3.604   6.571  0.2383 -0.1312 -0.0679
19520W        W23820   7.275   4.666   6.650 -0.0405  0.2970  0.2515
19521W        W23821   4.158   4.792   6.882 -0.2666 -0.0769 -0.1348
19522W        W23822   1.840   3.635   7.058 -0.0993 -0.0924  0.3195
19523W        W23823   5.197   0.071   7.591  0.3032  0.2324  0.0695
19524W        W23824  10.211   3.948   1.414  0.0965  0.2734 -0.0160
19525W        W23825  17.921   5.633  28.244  0.1503 -0.1028  0.1373
19526W        W23826   5.181   0.611  26.563  0.2192 -0.2178  0.0382
19527W        W23827   9.675   0.823  31.306  0.2803 -0.2250 -0.0892
19528W        W23828  14.657   7.801   1.419  0.2413  0.1267  0.4683
19529W        W23829   2.970   0.231   7.314  0.0469  0.0133  0.0023
19530W        W23830  17.299   5.376   9.480  0.1270 -0.0810 -0.0486
19531W        W23831   0.322   4.251   7.119  0.3048  0.3033 -0.0757
19532W        W23832   2.906   4.763  22.011  0.1035 -0.3290 -0.0134
19533W        W23833   5.726   7.409  10.956  0.0169  0.2888  0.2136
19534W        W23834   1.349   1.221  25.269  0.2643 -0.0529  0.0355
19535W        W23835   7.263   1.534   3.389  0.0377 -0.0530  0.2391
19536W        W23836  19.112   5.712  31.990  0.0079  0.0248  0.3595
19537W        W23837  13.707   2.534  17.883 -0.0527  0.2426  0.1127
19538W        W23838  18.532   0.971   8.112  0.2447  0.1180 -0.1586
19539W        W23839  24.918   5.439  22.657  0.1107  0.2582  0.4231
19540W        W23840   0.880   0.941  10.904 -0.0178 -0.0707 -0.0946
19541W        W23841  10.481   7.434   8.522  0.0113 -0.3386  0.1456
19542W        W23842  12.330   4.950   8.513 -0.2253  0.3810  0.0534
19543W        W23843  23.658   0.629  21.349  0.0878  0.2719 -0.1386
19544W        W23844   5.586   1.940  13.796 -0.3743  0.0830  0.2768
19545W        W23845  12.609   0.197  10.179 -0.1361  0.0061  0.2342
19546W        W23846   6.120   1.196   3.082  0.3051 -0.2493  0.2624
19547W        W23847  11.627   1.652  32.512 -0.2695  0.1176  0.0768
19548W        W23848   0.655   7.715  21.391 -0.3659  0.2217  0.3105
19549W        W23849  10.025   5.865   5.299 -0.4222 -0.0156  0.0383
19550W        W23850   6.516   7.743  24.636 -0.2706  0.1373  0.0565
19551W        W23851   8.300   7.106  25.206  0.2686 -0.0950  0.0184
19552W        W23852  24.024   5.682   1.595 -0.0756  0.1123  0.2983
19553W        W23853  16.005   1.048  15.242 -0.0382  0.3562 -0.1480
19554W        W23854   0.680   3.697  10.664 -0.0189  0.0706 -0.1989
19555W        W23855  19.458   0.798  24.169 -0.0570  0.0138  0.3550
19556W        W23856  23.588   3.250  22.425  0.1321 -0.0996  0.0620
19557W        W23857  13.309   3.281   6.460  0.0189 -0.1067 -0.1046
19558W        W23858   2.066   2.345  29.965 -0.3710  0.0308 -0.0242
19559W        W23859  13.159   3.805  19.915 -0.1193 -0.0288 -0.0325
19560W        W23860  17.654   4.899   3.238 -0.0989  0.0041  0.0655
19561W        W23861  17.142   7.413  15.510  0.1531  0.0249  0.0541
19562W        W23862  10.889   1.208  18.933  0.3938  0.0011  0.1802
19563W        W23863   4.100   5.165  17.160 -0.1314  0.3925 -0.1453
19564W        W23864   7.981   2.384   9.340 -0.3089  0.1215  0.0461
19565W        W23865   1.637   0.633   4.758 -0.3223  0.1383 -0.3612
19566W        W23866   3.203   0.774  11.575  0.1955 -0.3272 -0.0202
19567W        W23867  21.497   5.448   8.939  0.1095 -0.3879  0.1643
19568W        W23868  24.215   6.944  29.445  0.1532 -0.1110  0.2629
19569W        W23869   5.129   5.320  27.795  0.1222 -0.1332  0.0650
19570W        W23870   7.057   6.336   2.423 -0.2539  0.2875 -0.1086
19571W        W23871   6.485   5.261   3.432  0.3306  0.0660 -0.1150
19572W        W23872  17.003   1.378  21.684  0.0112 -0.2216 -0.1359
19573W        W23873  23.631   1.962  32.625  0.0854  0.0426 -0.0940
19574W        W23874   3.141   1.658  32.777  0.0976  0.2486  0.0174
19575W        W23875  21.028   2.213  10.229 -0.1822  0.0554 -0.4342
19576W        W23876  10.430   3.373  20.901 -0.2660 -0.0644 -0.0116
19577W        W23877  23.202   4.399  24.101 -0.1950  0.1734  0.1417
19578W        W23878  13.380   5.914  27.458  0.1281 -0.1042  0.0193
19579W        W23879  11.041   4.201  19.193 -0.0997  0.1921  0.0065
19580W        W23880  17.983   4.463   9.752  0.0120 -0.1744  0.0877
19581W        W23881  21.805   1.130  23.461  0.4204 -0.0626 -0.0793
19582W        W23882   2.787   4.729   1.763 -0.3638 -0.2241  0.2437
19583W        W23883   0.741   4.302   2.312  0.1173 -0.0389 -0.0290
19584W        W23884  14.273   5.814   4.196  0.1970  0.2407  0.2727
19585W        W23885  21.871   4.987  29.307 -0.3198 -0.1500 -0.0977
19586W        W23886  16.416   0.548  21.701  0.1162 -0.1869 -0.1872
19587W        W23887   7.987   4.449  24.114  0.1203  0.3401  0.2530
19588W        W23888  11.458   3.893  29.406  0.0495  0.2367 -0.2702
19589W        W23889   4.928   0.545   5.882  0.0076 -0.0660  0.0877
19590W        W23890   9.762   1.913   8.985 -0.1095 -0.0718  0.0063
19591W        W23891   8.779   3.511   1.076  0.3252  0.0687  0.0352
19592W        W23892  24.225   5.804   3.985  0.0676  0.2352  0.1493
19593W        W23893   2.019   2.171  17.634  0.0286 -0.1383 -0.1240
19594W        W23894  20.885   2.648   4.749 -0.0680 -0.2515  0.1141
19595W        W23895   5.284   7.540   0.235 -0.1269 -0.0717 -0.1311
19596W        W23896  20.597   7.507  32.246 -0.0116  0.2322  0.0339
19597W        W23897  11.824   7.770   7.179 -0.1077 -0.0210 -0.0760
19598W        W23898  23.078   0.348  24.737 -0.2640  0.0423  0.1506
19599W        W23899   8.403   6.339  31.552 -0.4430 -0.0197 -0.2121
19600W        W23900   5.703   1.755  25.839  0.0257 -0.2668 -0.1045
19601W        W23901  22.012   7.027   2.387  0.1656 -0.1845  0.0864
19602W        W23902   4.058   1.414  14.667 -0.0203 -0.0413 -0.1864
19603W        W23903   9.063   7.516  23.464  0.0261 -0.2585  0.1864
19604W        W23904  23.136   0.405   2.735  0.0219 -0.2035  0.2500
19605W        W23905   2.693   6.429  17.210  0.0985 -0.0705 -0.0775
19606W        W23906  12.000   2.055   7.816  0.0601  0.2126  0.3361
19607W        W23907  19.787   4.729  26.585  0.0833  0.1922  0.0213
19608W        W23908  19.498   1.058  19.248 -0.1398  0.0420  0.0986
19609W        W23909  21.639   6.357  28.640 -0.0245 -0.0306  0.1444
19610W        W23910  16.239   7.482  25.891  0.1949  0.1989  0.2036
19611W        W23911  18.255   3.484  20.918  0.1051 -0.0845  0.1121
19612W        W23912  14.268   5.203  32.565  0.1476 -0.0915  0.1484
19613W        W23913   8.554   6.350  27.371  0.1843  0.1579  0.2834
19614W        W23914  17.489   6.348  28.476 -0.2175  0.0922 -0.5739
19615W        W23915   1.935   5.727   7.748  0.0964  0.3771 -0.0408
19616W        W23916  10.453   5.874   0.555 -0.0588  0.1425 -0.4637
19617W        W23917   0.670   1.881  12.595  0.1466 -0.0864  0.0487
19618W        W23918   6.915   7.682   8.235 -0.1085  0.0378 -0.0165
19619W        W23919  12.238   5.896  26.855 -0.0947  0.0272 -0.3018
19620W        W23920   3.589   1.779  28.392  0.0683 -0.2391 -0.2849
19621W        W23921  15.326   3.276  26.441  0.0471  0.0802 -0.0633
19622W        W23922  22.774   7.648  22.624  0.1334  0.0046  0.0587
19623W        W23923   8.992   7.294  11.017  0.1604 -0.1701  0.1661
19624W        W23924  15.959   4.119   0.886 -0.0775 -0.1322  0.1197
19625W        W23925   2.936   2.867  29.300 -0.0613 -0.0934 -0.0642
19626W        W23926  12.780   4.657   0.679  0.1008 -0.3418 -0.1191
19627W        W23927   2.177   7.582   0.019  0.0762 -0.3392  0.1640
19628W        W23928   5.981   3.302   0.527 -0.1113  0.2116 -0.0362
19629W        W23929  13.870   5.820  23.995  0.0659  0.3156  0.1121
19630W        W23930  18.867   7.002  16.752  0.0084 -0.3566  0.1164
19631W        W23931   5.466   3.684  15.617  0.1000  0.2415 -0.2361
19632W        W23932   6.547   2.158   8.014  0.1399 -0.2522 -0.0086
19633W        W23933   5.884   4.323   7.362  0.2465  0.2638  0.1744
19634W        W23934  15.737   0.457  22.253  0.0877  0.0284  0.0778
19635W        W23935   8.649   5.647  26.454  0.3855  0.3585 -0.0144
19636W        W23936  21.977   7.746  30.317  0.1234 -0.2743  0.3750
19637W        W23937   6.209   0.549   0.508 -0.3556 -0.0688 -0.1049
19638W        W23938   3.924   3.608  31.856 -0.2062  0.1172  0.1968
19639W        W23939   9.291   5.141   6.506  0.1682 -0.1885 -0.1874
19640W        W23940  19.691   3.131  30.037  0.1872  0.0289 -0.0383
19641W        W23941   3.436   6.769  26.132  0.4433 -0.0375  0.1025
19642W        W23942   8.441   2.454   6.689 -0.0242 -0.3923  0.2234
19643W        W23943  18.951   7.218  19.191 -0.0917 -0.1573 -0.1470
19644W        W23944  15.039   3.285  27.349 -0.1351 -0.2938  0.2245
19645W        W23945  12.077   4.197  20.393 -0.0183 -0.1505  0.1352
19646W        W23946   8.546   0.034  10.994 -0.0949  0.2171 -0.0834
19647W        W23947  12.813   5.561  30.896  0.1455  0.2531 -0.0345
19648W        W23948   9.089   0.943  14.393 -0.0864  0.1691 -0.0610
19649W        W23949  14.861   6.842  20.687 -0.1175 -0.0408 -0.1891
19650W        W23950  11.747   3.010   8.050  0.1335 -0.3342 -0.1190
19651W        W23951  20.033   6.537  10.913 -0.3146 -0.0500 -0.0708
19652W        W23952  12.025   0.309  21.381 -0.2619  0.3021 -0.0980
19653W        W23953   8.148   2.695  12.113 -0.0157  0.1010 -0.0964
19654W        W23954  17.115   4.702   6.542 -0.1455  0.0101 -0.0052
19655W        W23955  18.843   4.292   0.443  0.1942  0.1476  0.0966
19656W        W23956  12.617   7.299  10.837  0.1819 -0.1405 -0.0343
19657W        W23957  15.199   3.932  22.575  0.0954 -0.1256  0.0184
19658W        W23958   2.412   2.354  17.410  0.0204  0.0226  0.0883
19659W        W23959  24.103   4.181  15.437  0.2450 -0.5332  0.0371
19660W        W23960  17.462   7.470  27.606 -0.2154  0.0890 -0.3068
19661W        W23961  24.047   7.690  30.915  0.0565  0.0500  0.1077
19662W        W23962   3.868   7.432  29.810 -0.1301  0.2198  0.3147
19663W        W23963   0.618   7.088  14.563 -0.2526 -0.0620 -0.2629
19664W        W23964  21.113   4.749  22.560 -0.2110 -0.0232 -0.0164
19665W        W23965   0.318   7.207  22.750 -0.1444  0.0279  0.3417
19666W        W23966  23.919   3.467   3.203  0.2690  0.0510 -0.0576
19667W        W23967   9.967   3.419   1.582  0.1871 -0.1448  0.2352
19668W        W23968  17.081   6.022  17.038 -0.0772 -0.0915 -0.0198
19669W        W23969  10.834   0.835   4.961  0.0088  0.1149 -0.0220
19670W        W23970  14.291   3.514   8.742 -0.3016 -0.2373  0.0600
19671W        W23971  12.528   6.069  10.196  0.0173 -0.2446  0.1178
19672W        W23972  10.697   2.901   0.558 -0.2160 -0.1217 -0.1902
19673W        W23973  11.448   0.474  27.991 -0.1491  0.2519  0.0930
19674W        W23974  18.328   6.405  25.333 -0.0478 -0.0149 -0.3345
19675W        W23975  19.061   7.311   7.863  0.1158  0.0432  0.1991
19676W        W23976   6.641   3.570   9.425 -0.0608 -0.1662  0.0721
19677W        W23977   1.034   0.494   3.475 -0.2120 -0.2419 -0.1291
19678W        W23978  15.569   3.198  21.695 -0.3588  0.2208 -0.1324
19679W        W23979  17.180   5.908  15.286 -0.1281  0.0160  0.3245
19680W        W23980  19.151   3.543  25.715 -0.0676 -0.0491 -0.2996
19681W        W23981   6.022   7.311   8.361 -0.0122 -0.3783  0.1893
19682W        W23982   7.082   6.493  12.205  0.3356 -0.0147 -0.0550
19683W        W23983  13.267   0.882  10.793  0.0564  0.2613  0.0486
19684W        W23984   0.081   6.667  12.264  0.3256  0.1002 -0.0968
19685W        W23985  16.475   2.986  17.436  0.2698 -0.1220  0.2610
19686W        W23986  20.133   1.020   1.440  0.1889  0.1575 -0.0004
19687W        W23987  20.090   5.606   3.624 -0.0708 -0.2069 -0.1769
19688W        W23988  14.861   7.195  21.321  0.1254 -0.1245 -0.0369
19689W        W23989  11.094   3.304  29.844  0.1431  0.0120  0.0263
19690W        W23990   4.401   0.928   6.423 -0.0654 -0.1861 -0.3623
19691W        W23991  22.397   4.598  25.144 -0.0985 -0.0829 -0.1851
19692W        W23992  17.648   1.290  27.849  0.0762 -0.0154 -0.2192
19693W        W23993  23.804   5.679  21.818  0.0097  0.1038 -0.1823
19694W        W23994   1.215   3.477  16.905  0.1292 -0.0012 -0.3423
19695W        W23995   0.371   4.062  14.485  0.0114 -0.0550  0.0906
19696W        W23996  19.130   2.135   8.011  0.1308  0.1004  0.0779
19697W        W23997  17.535   5.487  19.214 -0.0389 -0.0487  0.0576
19698W        W23998  16.370   1.097   2.014 -0.1428  0.0610  0.0352
19699W        W23999   7.064   3.263   2.882 -0.0584  0.0569 -0.2697
19700W        W24000  11.510   4.209  30.718  0.1762  0.3174 -0.0827
19701W        W24001   6.444   3.204  26.857 -0.1093  0.2555  0.0402
19702W        W24002  10.934   2.844   8.122  0.1537  0.1862  0.0601
19703W        W24003   9.763   7.770  20.380  0.0425  0.1683 -0.2012
19704W        W24004  10.567   5.516  12.423 -0.0513 -0.2079  0.1828
19705W        W24005  21.693   6.182   4.133  0.1489  0.0089  0.0295
19706W        W24006   9.348   2.461  26.836  0.1661  0.2402  0.1383
19707W        W24007  13.771   6.208   8.547  0.2494  0.2665 -0.0562
19708W        W24008  22.635   3.286   5.304 -0.1726 -0.0244 -0.0694
19709W        W24009   9.524   0.809   3.613  0.1905  0.2180  0.3082
19710W        W24010   6.820   1.886  25.788  0.2561 -0.2080  0.2117
19711W        W24011  20.301   2.849   4.152  0.0835 -0.3362  0.1421
19712W        W24012  16.594   6.793  20.318  0.0472  0.1156 -0.0384
19713W        W24013  24.711   2.062  23.263  0.0883  0.2214 -0.0597
19714W        W24014  12.800   6.107  29.345 -0.1384  0.2556 -0.0843
19715W        W24015  17.021   3.636  22.388  0.0112 -0.0549 -0.1315
19716W        W24016  21.187   4.473  20.057  0.0719  0.2790  0.1723
19717W        W24017  11.019   0.052  23.847  0.1392  0.1902  0.1167
19718W        W24018  16.109   4.990  18.127  0.0770 -0.0055  0.0684
19719W        W24019   3.600   6.881   6.073 -0.0278 -0.1194 -0.0024
19720W        W24020  23.543   2.224   7.654 -0.2111  0.0127  0.0588
19721W        W24021   4.806   5.266   3.656  0.1670  0.3451 -0.3681
19722W        W24022   3.401   6.844   3.241  0.0710 -0.0517  0.1169
19723W        W24023   3.199   7.559  24.376  0.1237  0.2936 -0.1620
19724W        W24024   0.157   1.595   1.187  0.0634 -0.0635  0.2062
19725W        W24025   5.842   5.554  26.870 -0.5304 -0.1939  0.0140
19726W        W24026  10.985   7.227   7.294 -0.3812  0.1692  0.1802
19727W        W24027  14.865   4.409   6.927 -0.0789 -0.0660  0.0223
19728W        W24028  13.448   3.078   9.538  0.1903  0.3219 -0.1997
19729W        W24029   0.591   0.532   1.250  0.0835 -0.0159  0.0714
19730W        W24030   2.327   7.754  26.710  0.0372 -0.2156 -0.0812
19731W        W24031  16.577   1.808  24.271  0.2152  0.1987  0.1986
19732W        W24032  21.778   4.736  10.296 -0.0402 -0.0493  0.1928
19733W        W24033  21.841   4.078  21.089  0.3494  0.0556 -0.1354
19734W        W24034   3.655   4.148   3.294 -0.1930  0.1445  0.0880
19735W        W24035  19.012   7.707  19.330 -0.0683  0.4134  0.0787
19736W        W24036   0.395   3.917   0.360 -0.0131  0.1176  0.1189
19737W        W24037  12.515   0.787  10.366  0.3595  0.3993 -0.0155
19738W        W24038  12.394   3.895  24.720  0.1012  0.3604  0.0859
19739W        W24039  19.914   3.822   8.260  0.0664 -0.1738 -0.0290
19740W        W24040  24.804   5.330   0.864 -0.0300  0.0317  0.1525
19741W        W24041   1.999   0.596  27.693 -0.0568 -0.2147 -0.2389
19742W        W24042   2.892   2.882   4.571  0.1268 -0.1667 -0.2931
19743W        W24043   6.662   1.147   6.973 -0.3118  0.2299 -0.0862
19744W        W24044  10.866   3.119  30.783  0.0660 -0.3388 -0.0961
19745W        W24045  17.081   2.499   3.801  0.0454  0.0615 -0.2340
19746W        W24046  16.011   6.810   2.814 -0.0834  0.0642  0.0229
19747W        W24047   9.049   0.602   5.275  0.0497  0.2142  0.0018
19748W        W24048  17.250   5.069   1.975 -0.3007  0.1505  0.0024
19749W        W24049  14.145   1.877   0.401 -0.0424  0.3025  0.0703
19750W        W24050   0.264   1.685  13.291  0.0108  0.2061  0.2059
19751W        W24051   1.470   4.983  11.232 -0.1585  0.2600  0.0992
19752W        W24052  14.122   5.122  16.303  0.1016 -0.0046  0.1384
19753W        W24053  11.667   4.728   7.364  0.0558 -0.0860  0.1266
19754W        W24054   5.220   4.549  24.941 -0.1711 -0.2057  0.0982
19755W        W24055   7.453   5.007  25.132 -0.0072  0.0886 -0.1797
19756W        W24056  21.986   5.359  10.126  0.2623  0.1319  0.0335
19757W        W24057  21.555   4.566   8.944 -0.2697  0.1486 -0.1304
19758W        W24058   9.574   2.926  10.856  0.1102 -0.6141 -0.0359
19759W        W24059   5.303   3.064   2.175 -0.1340 -0.2520  0.3354
19760W        W24060   3.238   5.505  16.475  0.1707 -0.0007 -0.0748
19761W        W24061  19.999   3.124  21.969  0.0898  0.3299 -0.1156
19762W        W24062   5.158   1.087  14.063  0.0373 -0.1580 -0.4002
19763W        W24063   8.512   4.807   3.669 -0.1615  0.0569 -0.0397
19764W        W24064  17.370   1.093  20.934 -0.0080  0.3181  0.1977
19765W        W24065   3.858   0.725   6.804  0.0589 -0.3080 -0.1511
19766W        W24066   8.057   4.004   3.577  0.0247 -0.0136  0.0152
19767W        W24067   5.518   0.742  29.921 -0.2398 -0.1969 -0.1194
19768W        W24068   7.821   4.549   4.847 -0.0336 -0.1120 -0.0715
19769W        W24069   5.978   3.755  31.925  0.1069 -0.0137  0.1874
19770W        W24070  18.951   3.379   9.592 -0.2574 -0.2555 -0.0099
19771W        W24071  10.969   0.623  11.910  0.0051  0.0501  0.2403
19772W        W24072  14.103   3.258  17.569  0.0860 -0.0271 -0.1774
19773W        W24073  20.220   2.238   0.271 -0.3386 -0.0139  0.3967
19774W        W24074  15.780   4.409  22.452  0.0069 -0.0597 -0.1190
19775W        W24075  14.245   7.275   3.624 -0.2772 -0.1351  0.3511
19776W        W24076  16.911   2.960  23.984 -0.1537 -0.1245  0.2554
19777W        W24077   6.291   3.323   2.451  0.1177 -0.0433 -0.0819
19778W        W24078  18.916   6.694  24.602 -0.0408 -0.1656  0.0646
19779W        W24079  15.631   7.014  26.441  0.0025  0.1418  0.1395
19780W        W24080  20.275   7.150   5.561  0.2157 -0.1238  0.0059
19781W        W24081  17.973   4.006  20.172  0.2085 -0.1800 -0.0388
19782W        W24082  14.831   6.644  25.548 -0.0615  0.0618 -0.0008
19783W        W24083   7.268   4.419  16.702  0.1164 -0.2197 -0.0507
19784W        W24084  13.643   4.698  28.256 -0.0258  0.2334 -0.0804
19785W        W24085  22.315   5.755  22.162 -0.0192 -0.0229  0.1911
19786W        W24086  20.487   3.031  18.317  0.2154 -0.0130  0.0308
19787W        W24087  23.742   6.588   4.538 -0.1759 -0.0495  0.0248
19788W        W24088   7.744   4.933   5.130  0.0266 -0.1109  0.0742
19789W        W24089  16.181   5.407  29.886  0.0496  0.0531  0.0763
19790W        W24090  17.014   2.040  20.932 -0.1171 -0.0730 -0.2941
19791W        W24091   9.288   4.098  26.595  0.0091 -0.2032  0.0411
19792W        W24092  18.651   3.875  22.569 -0.0623 -0.1726  0.1586
19793W        W24093  14.209   6.927  24.972  0.2806 -0.0710  0.1530
19794W        W24094  21.810   4.693  31.456 -0.2066 -0.2321  0.1669
19795W        W24095   5.602   5.081  11.431 -0.0499 -0.0252  0.0247
19796W        W24096  11.102   1.347  26.348  0.0569  0.0069 -0.0580
19797W        W24097   2.974   1.069  14.079 -0.0037  0.0003 -0.0936
19798W        W24098   5.991   1.295  17.665 -0.1055 -0.2122  0.1397
19799W        W24099  17.551   0.153   5.635  0.1244  0.3840  0.0485
19800W        W24100   6.943   1.158  10.928  0.0127 -0.0076 -0.2111
19801W        W24101   3.917   6.189   9.645  0.0402  0.1883 -0.0322
19802W        W24102  16.400   3.860  30.055  0.0577 -0.3411 -0.0343
19803W        W24103  22.563   6.650  19.786 -0.2978 -0.0236  0.3754
19804W        W24104  23.923   7.443  21.189  0.3615 -0.0510  0.0831
19805W        W24105  23.560   0.422   2.403 -0.0024 -0.2620 -0.2647
19806W        W24106  16.957   1.507  15.676 -0.0007  0.2052  0.3166
19807W        W24107   2.212   7.518  31.656  0.2094 -0.1113 -0.0939
19808W        W24108   1.627   1.931  30.770 -0.0297  0.1702  0.1033
19809W        W24109  16.607   7.652   5.370 -0.2813  0.2516  0.0662
19810W        W24110  12.086   0.826  19.605  0.1190  0.0237 -0.2384
19811W        W24111   7.418   2.166  26.961  0.0824 -0.0335  0.0589
19812W        W24112  19.450   7.155  21.527 -0.0455  0.2797 -0.0951
19813W        W24113  18.669   7.551  24.396  0.0420  0.0646 -0.0432
19814W        W24114   3.673   7.650   8.490 -0.2757 -0.1130 -0.1548
19815W        W24115   5.969   1.997  22.364 -0.1634  0.2298  0.0188
19816W        W24116   7.997   4.018   9.247 -0.0257  0.0604  0.4016
19817W        W24117  18.879   5.300  17.687 -0.1789  0.0063  0.0807
19818W        W24118  14.326   4.241  30.242 -0.0944 -0.1191 -0.0255
19819W        W24119   1.690   2.865  28.500 -0.0321 -0.1292 -0.0947
19820W        W24120  19.445   2.228  27.970 -0.2114 -0.1151 -0.1059
19821W        W24121  22.624   6.431  27.714  0.2281 -0.1341  0.1159
19822W        W24122   8.206   6.456   8.837 -0.0935  0.0355 -0.1042
19823W        W24123   5.615   6.414  25.013  0.3914  0.1505 -0.1922
19824W        W24124  19.055   3.311  20.140 -0.0045 -0.2448 -0.0962
19825W        W24125  10.553   4.733  26.733 -0.0560  0.0833 -0.0375
19826W        W24126   9.992   4.818   4.740  0.0989 -0.1068 -0.1894
19827W        W24127   7.227   7.501   3.984  0.2098 -0.0583  0.2087
19828W        W24128   9.143   2.382  31.225 -0.3499  0.0158 -0.0498
19829W        W24129  12.643   7.746   6.762  0.0874 -0.0487  0.2080
19830W        W24130  17.096   2.132  21.408 -0.0860 -0.2652 -0.2394
19831W        W24131  12.989   1.400  24.555 -0.3005 -0.0634  0.1989
19832W        W24132  19.420   6.433  21.511 -0.3417 -0.1888  0.2538
19833W        W24133  16.118   5.392  21.584  0.0766  0.2356 -0.0005
19834W        W24134  21.355   4.927  12.256 -0.0384  0.2093 -0.1713
19835W        W24135  23.880   6.002  10.732 -0.0379  0.1565  0.2328
19836W        W24136  13.299   7.253   5.534  0.1946 -0.0196  0.1021
19837W        W24137   7.815   1.880  28.653 -0.0682  0.0273 -0.1206
19838W        W24138  11.367   0.169  26.873 -0.1356 -0.0394 -0.0209
19839W        W24139  21.974   4.364   7.593  0.0735  0.1914 -0.0209
19840W        W24140  17.592   1.725  18.397 -0.1337 -0.1647 -0.0874
19841W        W24141   5.233   6.213  31.432  0.1583  0.2423  0.2506
19842W        W24142   2.536   1.281  11.445 -0.3326  0.3312 -0.0451
19843W        W24143  23.770   3.927  24.046 -0.0197  0.1374 -0.0448
19844W        W24144  22.205   7.588  23.072 -0.2055 -0.3063 -0.2111
19845W        W24145   8.850   7.501  27.480  0.0216  0.1597  0.0065
19846W        W24146   3.294   4.515  22.915  0.3032 -0.0269 -0.2712
19847W        W24147  16.645   4.393  16.607 -0.1265 -0.2361  0.0658
19848W        W24148   4.944   2.299  17.026 -0.0425 -0.3220  0.0491
19849W        W24149   9.405   7.603  11.174 -0.0188 -0.3207  0.0648
19850W        W24150  20.046   4.407  29.743  0.0203  0.0239 -0.3024
19851W        W24151  11.181   4.615  20.250  0.0829 -0.0455  0.1114
19852W        W24152   6.754   1.607  30.368 -0.0299  0.0865 -0.0190
19853W        W24153  20.927   0.500  31.576  0.0117 -0.1730  0.1123
19854W        W24154   8.345   0.365   8.180  0.1080 -0.2349  0.0303
19855W        W24155  12.748   6.578  23.433  0.0003  0.0987 -0.0029
19856W        W24156  23.997   4.242   9.359 -0.3865 -0.1833 -0.0050
19857W        W24157   1.860   4.036  10.983  0.2974 -0.2054 -0.2573
19858W        W24158   5.659   3.194   1.749  0.2553  0.1646 -0.0877
19859W        W24159   8.536   4.577   7.016 -0.1631 -0.0915 -0.4317
19860W        W24160  19.999   5.142  22.771 -0.2019  0.0328  0.0119
19861W        W24161  17.168   3.737  21.676  0.1182 -0.1271 -0.1970
19862W        W24162  17.236   4.385  29.693 -0.0324 -0.2557 -0.1039
19863W        W24163  19.002   3.683   4.205 -0.0077  0.0841 -0.3412
19864W        W24164   7.037   4.694  25.179  0.1314 -0.0783  0.2605
19865W        W24165  22.436   3.541   1.854  0.0399 -0.1449  0.1783
19866W        W24166   3.884   6.729   1.800  0.0237  0.1438 -0.0842
19867W        W24167  20.772   2.394  22.571  0.0463  0.0569 -0.0793
19868W        W24168  14.965   5.562  23.618  0.1805  0.1027  0.1430
19869W        W24169  13.797   5.751  10.805  0.0160 -0.0966 -0.0925
19870W        W24170  21.678   4.980  27.768  0.0524  0.0134 -0.0921
19871W        W24171  22.026   1.468  26.293 -0.0296  0.0863  0.0388
19872W        W24172   0.442   7.752   8.234 -0.4556  0.1128 -0.1958
19873W        W24173   1.541   6.488  27.530 -0.0238 -0.0730 -0.0687
19874W        W24174   1.543   4.930  28.488 -0.0069 -0.1430 -0.0569
19875W        W24175  16.563   5.623  21.504  0.1671 -0.3293 -0.0293
19876W        W24176  17.240   5.376   3.877 -0.1675 -0.0070 -0.0542
19877W        W24177  12.414   4.305  25.209 -0.3368  0.2711  0.4484
19878W        W24178  12.862   2.283  28.973  0.1465  0.3106 -0.1987
19879W        W24179  11.401   6.979   7.089  0.0351 -0.2055 -0.0012
19880W        W24180  21.396   3.502  22.354 -0.2090 -0.1153 -0.2450
19881W        W24181   4.940   6.979  23.341 -0.0709  0.0711 -0.0261
19882W        W24182   2.389   1.357   1.552  0.1676 -0.0914  0.1217
19883W        W24183  24.392   1.419  32.240 -0.2297  0.1343 -0.0304
19884W        W24184   3.507   4.011  22.916  0.0468  0.1550 -0.0334
19885W        W24185  18.096   2.697  28.535  0.0312  0.1059  0.1820
19886W        W24186   0.253   2.345  31.377  0.2824 -0.0018 -0.0837
19887W        W24187   5.808   7.177  24.757 -0.2438 -0.1110 -0.0170
19888W        W24188   0.461   6.811  32.600 -0.1990 -0.0623  0.3685
19889W        W24189   4.520   6.024  30.858  0.0177 -0.3063 -0.0711
19890W        W24190  22.620   4.371   6.327 -0.0023 -0.2080  0.4117
19891W        W24191  16.122   3.921  15.392 -0.4007  0.1483 -0.3331
19892W        W24192   6.854   5.824  14.836  0.0258  0.3020 -0.0260
19893W        W24193   9.767   0.910  25.949 -0.0540 -0.0216 -0.3437
19894W        W24194  15.464   3.484  16.593  0.2144  0.1948  0.1350
19895W        W24195   7.199   2.198  14.506  0.6046 -0.0038 -0.2455
19896W        W24196  18.527   3.370  20.007  0.1854 -0.0382 -0.1597
19897W        W24197   3.210   1.566   9.283 -0.1940 -0.2684  0.0282
19898W        W24198   4.955   4.653  23.672 -0.2782 -0.4008  0.0466
19899W        W24199   5.319   5.869   8.472 -0.3891  0.1745  0.3946
19900W        W24200   2.307   5.257   9.288 -0.0261 -0.0757  0.0517
19901W        W24201  10.405   7.655   6.251 -0.2984 -0.0788  0.1329
19902W        W24202   7.907   4.860  29.416  0.1026 -0.2086 -0.1715
19903W        W24203  22.926   1.246  11.492 -0.1696 -0.0602 -0.1326
19904W        W24204  13.056   4.210   3.689 -0.2291 -0.0950 -0.0456
19905W        W24205  19.220   6.195  26.299  0.1538 -0.1067 -0.1994
19906W        W24206  16.884   3.001  23.483 -0.0627 -0.1042  0.1036
19907W        W24207  24.394   0.495   0.834 -0.0262 -0.1879 -0.1158
19908W        W24208  24.541   3.026  11.693  0.0863  0.0016  0.1394
19909W        W24209  11.790   3.835   9.045  0.2795  0.2449  0.0759
19910W        W24210   7.181   7.491   2.759 -0.2642 -0.0284  0.3046
19911W        W24211  23.458   5.685   1.966  0.0678  0.2461 -0.1080
19912W        W24212  16.352   7.654  18.917  0.0321  0.1470 -0.2265
19913W        W24213  14.396   7.115  29.666 -0.3899  0.0285 -0.0353
19914W        W24214  20.743   1.275   6.239  0.2117 -0.5327 -0.0623
19915W        W24215   4.386   0.602  26.019  0.1705 -0.1601  0.2338
19916W        W24216  18.305   3.639   7.082 -0.1570  0.0541 -0.0972
19917W        W24217   6.187   2.246   5.093  0.1368  0.0871  0.1067
19918W        W24218   5.119   1.874  28.025  0.2204  0.1248 -0.1060
19919W        W24219   0.671   6.032   3.549 -0.0255  0.0133  0.0765
19920W        W24220   8.129   6.385   4.958  0.0854  0.3096 -0.0848
19921W        W24221   5.372   2.773   4.329  0.3075  0.0153 -0.1227
19922W        W24222  15.601   1.438  23.600 -0.2282 -0.0628 -0.0490
19923W        W24223   6.286   4.052  27.226 -0.0596 -0.0362  0.2824
19924W        W24224  15.421   4.718   0.855  0.2347 -0.1116  0.0334
19925W        W24225  21.684   1.000   9.671  0.1573  0.1333  0.2242
19926W        W24226  14.658   3.118  29.337  0.2441 -0.1289 -0.0884
19927W        W24227  12.109   2.884  31.618  0.3357  0.4542 -0.1091
19928W        W24228  17.868   0.975  25.503  0.0643 -0.0464 -0.4167
19929W        W24229  23.931   7.458  23.935 -0.0490  0.0043 -0.0718
19930W        W24230  20.521   0.342  32.923 -0.1874  0.0607  0.0680
19931W        W24231   0.710   0.416   4.797  0.1255  0.1352  0.1268
19932W        W24232  15.565   3.053  14.934  0.0573  0.5104 -0.0389
19933W        W24233  16.777   3.592  29.123  0.0475 -0.0825  0.2731
19934W        W24234   9.303   7.029  12.462  0.0504  0.1179 -0.1395
19935W        W24235   4.634   3.833  10.995  0.1593  0.6958 -0.1662
19936W        W24236  19.242   3.268  21.462 -0.2174 -0.0090 -0.0428
19937W        W24237  22.368   0.648  25.257  0.0893  0.1517 -0.0077
19938W        W24238  10.501   5.787   8.856 -0.0200 -0.1062  0.0658
19939W        W24239  17.912   0.382  27.790 -0.1747  0.1890  0.1498
19940W        W24240  17.918   2.961  15.217  0.0907 -0.2034  0.0812
19941W        W24241  15.627   2.489  15.056  0.0338 -0.0612 -0.0968
19942W        W24242  21.410   0.667   0.181  0.4029  0.1182  0.2939
19943W        W24243  11.269   5.128   4.450  0.2797 -0.2096  0.1107
19944W        W24244  21.003   7.530  31.302 -0.1519 -0.1894 -0.2302
19945W        W24245  15.171   6.338   8.209 -0.0596  0.2953  0.2054
19946W        W24246   5.817   3.731  13.606  0.0127 -0.2001  0.0708
19947W        W24247   7.631   0.042   6.967  0.0397  0.0875  0.0853
19948W        W24248  22.064   1.657   4.720 -0.2098 -0.2310  0.0784
19949W        W24249  13.298   0.031  24.118  0.0351 -0.3573  0.2616
19950W        W24250   0.218   5.859   3.944 -0.0026  0.1422 -0.1910
19951W        W24251  23.371   3.091   2.277 -0.2087 -0.0183  0.2481
19952W        W24252  20.237   3.796  17.739 -0.0979  0.1393 -0.0232
19953W        W24253  18.322   6.122   7.086 -0.1489  0.0539  0.0736
19954W        W24254   1.839   6.356  14.527 -0.0412 -0.2180 -0.3673
19955W        W24255  20.428   3.333  26.806  0.0087 -0.1191 -0.3206
19956W        W24256  15.118   6.243  26.889 -0.4076  0.3924  0.1888
19957W        W24257   6.253   7.330  16.505  0.0887  0.2679 -0.2296
19958W        W24258  14.085   2.557   3.970 -0.2693  0.0472 -0.1860
19959W        W24259  18.585   7.517  10.472 -0.2541  0.0858 -0.0552
19960W        W24260   4.086   0.465  17.551  0.1208  0.4531  0.0325
19961W        W24261   5.026   4.187  11.357 -0.1110 -0.1819 -0.1176
19962W        W24262  18.941   2.362   1.902  0.1058  0.0431 -0.0178
19963W        W24263   5.780   4.277  27.262 -0.4337  0.2064 -0.2217
19964W        W24264   7.562   2.816  29.212  0.2703  0.0366  0.1099
19965W        W24265   9.083   3.481  22.496  0.2379 -0.0643 -0.1533
19966W        W24266  12.812   5.494  18.802 -0.1878  0.0649 -0.0124
19967W        W24267  18.434   1.388  20.393  0.0872 -0.2045  0.1731
19968W        W24268   2.993   0.064  24.678  0.1710  0.0865 -0.1423
19969W        W24269  14.256   0.560   4.722 -0.3430 -0.1646 -0.2682
19970W        W24270   9.339   3.388  12.972  0.0975 -0.0447 -0.0763
19971W        W24271   1.938   1.485  22.199  0.0537 -0.0486  0.1516
19972W        W24272  14.563   0.604   5.275 -0.2311 -0.3202 -0.1502
19973W        W24273  12.445   4.465   6.020  0.1058 -0.0436  0.0581
19974W        W24274   7.137   2.243  26.201  0.0476 -0.0778 -0.0669
19975W        W24275  22.066   3.239  19.687  0.1303  0.0682 -0.0626
19976W        W24276   3.434   2.673  28.373 -0.3303 -0.0567 -0.1269
19977W        W24277   2.518   6.255  15.387  0.0206  0.3007  0.3282
19978W        W24278  22.140   0.862  27.758  0.1686  0.1736 -0.1107
19979W        W24279  24.536   5.924   8.494  0.1862  0.3671 -0.0359
19980W        W24280   3.435   3.604  30.606 -0.3854 -0.1472 -0.4081
19981W        W24281   0.819   4.473   8.414 -0.1186  0.1284  0.0147
19982W        W24282   4.789   0.201   2.005 -0.0262 -0.1697  0.0473
19983W        W24283   3.206   2.675   4.252 -0.0797 -0.2302 -0.0384
19984W        W24284  21.017   3.653  11.073  0.1569  0.0281  0.0209
19985W        W24285  16.497   6.450  19.803  0.0600  0.0237 -0.2376
19986W        W24286   8.438   1.024   9.053 -0.0249  0.0767 -0.2427
19987W        W24287  12.886   0.952   3.664 -0.0349 -0.2166  0.1158
19988W        W24288   0.275   4.384  15.545 -0.2683 -0.2513 -0.0660
19989W        W24289  18.176   6.884  31.599 -0.1176  0.0670  0.1669
19990W        W24290  10.275   2.500   9.760 -0.1387 -0.0030 -0.3003
19991W        W24291   8.993   6.979  23.964  0.0585  0.0541 -0.1202
19992W        W24292  12.304   6.783  22.221 -0.1405 -0.3085 -0.2046
19993W        W24293   2.385   6.585   2.916  0.1258 -0.2128 -0.0662
19994W        W24294  19.509   6.079   0.021 -0.2372  0.1019 -0.1947
19995W        W24295  24.039   7.300   1.801  0.0818 -0.0462 -0.0399
19996W        W24296  13.263   6.229  22.522 -0.0222 -0.0591 -0.1308
19997W        W24297  15.284   2.660   2.838 -0.0794 -0.1899 -0.2672
19998W        W24298  16.462   3.344   8.625 -0.0630 -0.2203  0.0156
19999W        W24299  22.805   6.625  26.844 -0.0098  0.5488 -0.0938
20000W        W24300  22.997   3.114  26.672 -0.1421  0.2578 -0.0641
20001W        W24301  18.277   4.352  28.836  0.0448 -0.1081 -0.0051
20002W        W24302   8.322   6.967   3.326  0.0367  0.1675  0.0335
20003W        W24303  19.533   1.718   5.392 -0.1039  0.4247  0.2894
20004W        W24304  15.887   4.590  29.569 -0.0306 -0.1375 -0.0203
20005W        W24305   8.449   2.582  10.084  0.0049  0.0699 -0.5018
20006W        W24306  16.235   6.254  19.331 -0.2657 -0.0011  0.0917
20007W        W24307   5.229   1.944  23.074  0.0851  0.0274  0.0665
20008W        W24308  22.464   1.658  23.663  0.1175 -0.0937  0.0314
20009W        W24309   9.226   1.725  21.890  0.2508 -0.1624 -0.2053
20010W        W24310  23.829   4.915  20.631  0.0571  0.3027 -0.1299
20011W        W24311  23.344   2.884   0.163 -0.1852  0.1784 -0.0979
20012W        W24312   6.109   7.724  24.974  0.0577  0.0411  0.3006
20013W        W24313  20.803   4.687   1.779 -0.2175 -0.0142  0.2038
20014W        W24314   6.969   6.211   1.536  0.0646  0.0632 -0.1677
20015W        W24315   5.369   0.512   3.983 -0.2483 -0.0706 -0.1047
20016W        W24316  16.836   6.932   4.829 -0.1930  0.1562  0.0398
20017W        W24317   6.182   0.847  11.563  0.0258 -0.1023 -0.0646
20018W        W24318   1.731   0.599  10.771 -0.1002 -0.0189 -0.2403
20019W        W24319   7.984   2.699   6.691  0.0842 -0.1414  0.2022
20020W        W24320   3.132   5.309  31.643  0.0076 -0.0754 -0.0698
20021W        W24321   8.513   5.881  10.418 -0.0095  0.1249 -0.1936
20022W        W24322   0.275   4.631   9.394  0.1746 -0.0469 -0.2811
20023W        W24323  20.240   5.108  18.564  0.1382  0.3030 -0.0440
20024W        W24324  18.141   3.265  23.061  0.0245  0.3225 -0.3401
20025W        W24325   2.073   3.759  31.227 -0.3211 -0.1441  0.1566
20026W        W24326   8.130   0.834   5.270 -0.2094  0.1822  0.0148
20027W        W24327   9.412   4.852  20.899  0.4914  0.2289  0.3897
20028W        W24328  14.111   3.319   4.113  0.0475 -0.0048 -0.1276
20029W        W24329   2.922   2.873  26.406  0.1231  0.3593  0.1712
20030W        W24330   9.525   5.727  24.331  0.0627 -0.0319  0.0644
20031W        W24331   5.418   1.931   0.098  0.0629  0.1317 -0.1070
20032W        W24332  21.639   6.938  21.682 -0.0855  0.0375 -0.4994
20033W        W24333  20.089   0.754  31.065 -0.0390 -0.2548 -0.0538
20034W        W24334   5.673   6.433  27.273  0.3154  0.3016  0.1103
20035W        W24335  19.155   6.623  10.255  0.2186 -0.0130 -0.4417
20036W        W24336  11.620   1.866  27.489  0.4002  0.0523 -0.0199
20037W        W24337  10.820   4.372   5.808 -0.1338  0.1440 -0.1146
20038W        W24338   6.548   5.529  11.064 -0.0008 -0.1850  0.1347
20039W        W24339  22.468   7.028   8.459  0.2916 -0.1300 -0.1152
20040W        W24340  10.636   0.366   4.533 -0.1814  0.1476  0.2690
20041W        W24341   3.451   7.220   3.593  0.0475  0.1549  0.1460
20042W        W24342   0.152   5.147  24.446 -0.2960  0.2682 -0.0167
20043W        W24343  20.184   0.288  31.241  0.2336 -0.0974 -0.0405
20044W        W24344   4.000   6.303  27.027 -0.2248  0.1352 -0.1622
20045W        W24345  14.343   2.530   8.163  0.0198 -0.0949  0.1457
20046W        W24346  22.617   0.901  19.813 -0.0325  0.2036  0.3781
20047W        W24347   7.994   3.355  23.215 -0.0448 -0.1552 -0.0114
20048W        W24348  20.808   4.769   3.588 -0.1387  0.2613  0.0263
20049W        W24349  22.933   1.393   7.334 -0.0678  0.3318 -0.0441
20050W        W24350  11.713   3.095   5.095  0.2608 -0.0090  0.0476
20051W        W24351   2.275   2.164  16.382 -0.0146  0.1358 -0.0428
20052W        W24352  13.756   0.177  25.537  0.6360 -0.0312 -0.0985
20053W        W24353  22.435   1.301   0.226  0.0621 -0.0223  0.1208
20054W        W24354  16.642   1.894   5.459 -0.2922 -0.3392 -0.1328
20055W        W24355  18.596   7.613   8.199 -0.4358  0.2415 -0.0597
20056W        W24356   0.368   4.874   0.704  0.3114 -0.3921  0.2100
20057W        W24357  12.372   6.502   5.847 -0.1836  0.0989  0.1720
20058W        W24358  13.946   6.071   6.409 -0.2599 -0.1651 -0.1426
20059W        W24359  18.437   0.962  30.713 -0.0497  0.0183  0.0423
20060W        W24360  21.804   1.375  22.756  0.3946  0.1061 -0.0872
20061W        W24361   9.469   4.568  11.326  0.1558  0.2744 -0.2954
20062W        W24362  15.237   4.832   6.593  0.3204  0.1535  0.0861
20063W        W24363   2.102   6.677  27.383 -0.1024 -0.0259 -0.1199
20064W        W24364  20.514   3.332   6.131 -0.2544 -0.1548 -0.2558
20065W        W24365  19.985   7.613  18.201 -0.2689 -0.1412 -0.3152
20066W        W24366  21.126   1.381   4.262 -0.2208 -0.2041  0.2563
20067W        W24367   4.046   4.563  14.255 -0.1033 -0.0549 -0.0144
20068W        W24368  12.908   3.008   5.094  0.0140  0.0624  0.1862
20069W        W24369   4.088   4.743  28.254 -0.2187 -0.1374  0.0276
20070W        W24370   8.866   1.235  29.234  0.1801  0.1096 -0.2570
20071W        W24371   6.664   4.715  10.725  0.1216  0.0777  0.3198
20072W        W24372  10.025   5.336   6.017  0.0103 -0.0176  0.0356
20073W        W24373   5.628   2.735  22.936  0.0505 -0.0309  0.3090
20074W        W24374  20.964   6.691  24.442 -0.2773  0.2778 -0.0848
20075W        W24375   5.448   1.142  29.005  0.2066 -0.0593  0.0128
20076W        W24376   4.753   0.489  11.397 -0.1218 -0.1301 -0.1774
20077W        W24377   7.783   0.100  12.181  0.1712 -0.0507  0.1135
20078W        W24378  11.831   0.494  25.057  0.1152  0.0703 -0.1015
20079W        W24379  24.210   5.769   7.151  0.2047  0.0685 -0.0864
20080W        W24380   5.219   3.992   0.923  0.3504 -0.1288  0.1834
20081W        W24381  20.739   4.344   5.969 -0.1353 -0.2122 -0.1472
20082W        W24382  10.491   7.327  30.344  0.3197  0.2356  0.1731
20083W        W24383   7.943   5.523   9.111 -0.0051 -0.0232  0.0507
20084W        W24384   0.042   0.938  14.148  0.0713  0.0926  0.3269
20085W        W24385  18.211   0.376  16.233  0.2160 -0.0092  0.1486
20086W        W24386  13.617   1.241   3.062 -0.1697 -0.1067  0.2697
20087W        W24387  17.201   4.144  23.028 -0.1070  0.4979 -0.1328
20088W        W24388   5.768   6.747   6.425  0.2324  0.1173  0.0764
20089W        W24389  11.430   6.888  22.778 -0.1970  0.1607  0.0442
20090W        W24390   6.185   2.376  32.619 -0.2918 -0.1424  0.3020
20091W        W24391   7.595   4.620   9.967 -0.1538  0.2721  0.2623
20092W        W24392   1.723   6.719  10.216  0.5453  0.3735  0.0884
20093W        W24393  20.823   2.049  25.597  0.3788 -0.0376 -0.1402
20094W        W24394  10.059   3.612  23.224 -0.2637 -0.1619  0.0195
20095W        W24395  14.010   3.186  24.123 -0.0268  0.2248  0.1173
20096W        W24396  12.911   3.060   7.646  0.0072  0.1728 -0.1139
20097W        W24397  13.695   0.711  18.592  0.3991 -0.1345  0.2460
20098W        W24398  23.122   4.008   8.313  0.0282  0.1010 -0.0856
20099W        W24399  18.554   1.492   8.133  0.1988 -0.3392 -0.1687
20100W        W24400  13.369   3.446  27.594 -0.4011  0.3740  0.0386
20101W        W24401   6.850   0.036  31.221  0.1177 -0.0614  0.2485
20102W        W24402   2.999   7.573   8.236  0.0089  0.2403  0.1803
20103W        W24403   9.725   0.292   0.141 -0.0228 -0.1357  0.3217
20104W        W24404  13.926   0.901  24.602 -0.5257 -0.2497  0.0740
20105W        W24405   5.344   6.438  16.458  0.1198 -0.0767 -0.1271
20106W        W24406  22.257   1.153   3.742 -0.0729  0.0145  0.3428
20107W        W24407  21.750   3.916  20.127  0.0128 -0.3217 -0.2727
20108W        W24408   2.934   0.734  30.253  0.1690  0.0177 -0.1137
20109W        W24409  18.752   1.760  30.978 -0.0439  0.0703 -0.0173
20110W        W24410  19.200   1.392  32.390 -0.0751  0.0990 -0.1010
20111W        W24411  11.330   0.251   3.817 -0.2954 -0.2259  0.2351
20112W        W24412  18.878   6.060  19.620  0.0604 -0.1618  0.1128
20113W        W24413  21.162   7.189  29.323  0.2751 -0.3119 -0.0207
20114W        W24414   1.225   7.582  23.867 -0.0575  0.1679  0.3165
20115W        W24415  14.014   1.630   3.815 -0.1951 -0.0379  0.1070
20116W        W24416   3.561   1.910  32.314 -0.3263 -0.0245  0.2042
20117W        W24417  21.816   4.313  19.839  0.1446 -0.3883 -0.4572
20118W        W24418  17.575   7.336  17.060 -0.0671 -0.1194  0.1819
20119W        W24419  22.276   6.513  24.395 -0.1064  0.1465 -0.0088
20120W        W24420   5.566   4.736  30.096 -0.2644  0.0066 -0.1331
20121W        W24421   0.822   6.326   2.476  0.1853  0.1883 -0.1787
20122W        W24422  19.723   1.387   4.988  0.2917  0.1524 -0.4807
20123W        W24423   7.915   4.586  32.064  0.1505  0.3628 -0.0039
20124W        W24424   3.105   3.819  12.617  0.0297 -0.0050  0.1656
20125W        W24425   0.357   5.568   2.507 -0.2595 -0.0210  0.0245
20126W        W24426  21.016   1.388  29.332 -0.0573  0.0754  0.3390
20127W        W24427  22.847   3.628   6.953  0.0807 -0.0699  0.0615
20128W        W24428   7.675   4.933  31.790  0.0538  0.4176 -0.0030
20129W        W24429  10.612   2.615  30.160 -0.1471  0.0728  0.0016
20130W        W24430   3.430   6.614   5.731 -0.1374  0.1637 -0.1170
20131W        W24431  19.133   5.848  20.017  0.0210 -0.2633  0.2474
20132W        W24432  13.452   0.598   4.783 -0.2207  0.0448  0.1251
20133W        W24433   5.054   4.087  29.523  0.2849 -0.2144  0.0426
20134W        W24434   7.047   6.020  23.490 -0.1315 -0.0924 -0.0093
20135W        W24435  18.391   6.153  23.581 -0.0785 -0.1993 -0.0281
20136W        W24436   8.997   2.348   6.829 -0.0235  0.2313  0.0115
20137W        W24437  18.828   6.474  20.946 -0.3615  0.1012 -0.0570
20138W        W24438   4.275   5.745   7.033  0.0777  0.1159 -0.1344
20139W        W24439   7.168   4.770   5.983 -0.0383 -0.0454  0.0502
20140W        W24440   0.579   1.840  29.966  0.1274 -0.1862 -0.0429
20141W        W24441  19.268   0.588   2.706  0.0178  0.3399  0.0199
20142W        W24442  13.394   3.889  25.835  0.1380 -0.2399 -0.1496
20143W        W24443   0.796   0.023  23.672  0.3736 -0.2836  0.2503
20144W        W24444  10.201   2.298  23.730 -0.2752  0.0046  0.1699
20145W        W24445  15.566   0.935   9.594 -0.0062 -0.1874 -0.3202
20146W        W24446   9.729   4.968   6.448  0.3277  0.3122 -0.1813
20147W        W24447  19.964   2.340  24.749  0.0390 -0.0969 -0.3156
20148W        W24448   9.493   0.843   8.417 -0.0864  0.1436 -0.3941
20149W        W24449  23.376   5.872   1.523 -0.1892 -0.1062 -0.0305
20150W        W24450  20.976   4.838  10.586 -0.1799 -0.2700  0.1861
20151W        W24451  16.572   7.377   1.846  0.0260 -0.0378 -0.0497
20152W        W24452  10.235   3.445  32.906 -0.0358 -0.1268  0.0793
20153W        W24453  11.503   5.523  19.606  0.1332  0.0359  0.1020
20154W        W24454   1.939   7.285  32.669  0.2315 -0.1357 -0.5558
20155W        W24455   5.259   4.938  32.941 -0.0125 -0.1879 -0.1108
20156W        W24456  16.700   3.481  19.890  0.0236 -0.3741  0.0257
20157W        W24457  17.784   2.472  23.572  0.0338  0.2353  0.0929
20158W        W24458  24.493   3.220  27.084 -0.2052 -0.0826  0.1684
20159W        W24459  10.046   1.625   2.545 -0.0762  0.1160  0.2066
20160W        W24460  21.512   0.001  30.279 -0.1137 -0.1540  0.1411
20161W        W24461  22.478   4.482  31.664  0.0077 -0.2879  0.1485
20162W        W24462  12.948   5.814  20.788 -0.1109 -0.4262 -0.0543
20163W        W24463  23.776   4.724  26.528  0.1489 -0.1829 -0.0591
20164W        W24464   7.815   0.624  27.436  0.1008  0.3240 -0.0699
20165W        W24465  16.150   6.391  32.503  0.1200  0.1789  0.2075
20166W        W24466  20.204   5.210  21.454  0.0034  0.2430  0.0812
20167W        W24467   4.953   2.199  14.288 -0.1079 -0.1670 -0.1938
20168W        W24468  17.155   3.354  25.009  0.0058 -0.0462  0.1639
20169W        W24469   2.074   2.276   7.348 -0.2569 -0.1571  0.0215
20170W        W24470  12.787   0.108  11.011  0.1093 -0.6329  0.0504
20171W        W24471  17.946   1.507  29.851 -0.1713 -0.2427  0.1605
20172W        W24472  19.099   1.316  19.270  0.1417  0.3290 -0.1219
20173W        W24473   9.017   2.832  29.914  0.1093  0.0801  0.1034
20174W        W24474  17.674   2.825  23.926 -0.1343 -0.3078  0.1984
20175W        W24475  21.139   1.837   9.587 -0.0552  0.0690  0.3254
20176W        W24476   7.672   0.636  17.121 -0.0240 -0.2184 -0.1343
20177W        W24477   5.027   3.388  15.772 -0.0106  0.1422  0.0221
20178W        W24478  12.304   0.244  30.376 -0.2125 -0.0820  0.3345
20179W        W24479   3.925   0.823   1.271  0.1199 -0.2792 -0.0185
20180W        W24480  22.869   6.746  31.941  0.4116  0.2672 -0.2291
20181W        W24481   9.371   3.686  29.412  0.3104 -0.0965  0.2452
20182W        W24482   6.578   4.061  17.290 -0.2177  0.2934  0.0288
20183W        W24483  15.399   6.076  28.409 -0.0669 -0.0137  0.1415
20184W        W24484  11.562   1.831  22.032  0.2510  0.2235  0.0043
20185W        W24485  11.857   7.524  18.538 -0.0635 -0.1903  0.0444
20186W        W24486  17.127   1.442  27.435 -0.0281 -0.0847 -0.0288
20187W        W24487  18.292   1.669  32.862 -0.0342 -0.3094  0.3088
20188W        W24488   6.948   3.177   3.991 -0.2999  0.3748  0.3023
20189W        W24489  10.798   1.853   4.676  0.1004  0.3900 -0.0405
20190W        W24490   2.633   2.662   3.760  0.1651 -0.2698 -0.0407
20191W        W24491   6.949   0.609  24.439  0.0180  0.3332 -0.0505
20192W        W24492   2.217   0.493  13.211  0.3486 -0.3518 -0.1655
20193W        W24493  12.971   6.825   6.589 -0.0308 -0.1523 -0.3716
20194W        W24494   0.365   5.439  27.905  0.1786  0.1599  0.0718
20195W        W24495  15.677   0.144  32.933  0.0650 -0.2889 -0.1082
20196W        W24496   0.108   3.305  23.930  0.1170 -0.0484  0.1137
20197W        W24497  13.159   0.669  25.189  0.3469 -0.0722 -0.1420
20198W        W24498  12.851   6.736  25.979 -0.0050  0.1206  0.0388
20199W        W24499  11.694   6.478  31.712 -0.0305  0.0715 -0.0329
20200W        W24500   1.974   6.211  23.184  0.1727  0.1893 -0.2965
20201W        W24501  19.959   1.846  21.834  0.1299 -0.0987 -0.2169
20202W        W24502   4.523   0.214   7.539 -0.1771 -0.2482 -0.1724
20203W        W24503   2.052   2.655  28.102 -0.1175  0.1023 -0.0086
20204W        W24504  21.408   2.543   1.522 -0.1904 -0.1132  0.2147
20205W        W24505   7.073   2.697  17.510  0.0157 -0.2144 -0.0408
20206W        W24506  20.250   2.416  30.035  0.0098  0.1513  0.4432
20207W        W24507   2.796   6.283   5.371 -0.0212  0.1984  0.2759
20208W        W24508  10.393   1.919   2.893 -0.0346  0.0344  0.0239
20209W        W24509   8.529   1.161  23.440 -0.1887  0.2197  0.2678
20210W        W24510   9.917   3.697  12.151  0.2577  0.0107  0.0598
20211W        W24511  15.581   2.778  21.391 -0.2929  0.0980 -0.0299
20212W        W24512  10.188   5.581   6.887 -0.1257 -0.0871 -0.0432
20213W        W24513   0.315   4.391   6.054 -0.0891 -0.0077  0.0727
20214W        W24514   1.401   6.066   8.443 -0.1780  0.0494 -0.0373
20215W        W24515   4.223   2.081  24.802  0.2217  0.3316 -0.0927
20216W        W24516   1.115   1.901  23.538  0.2128  0.0223 -0.0335
20217W        W24517  16.338   0.249  25.672  0.0381 -0.0795 -0.4291
20218W        W24518  20.608   4.717  32.581  0.2467 -0.0942  0.0914
20219W        W24519  13.035   1.271   8.410  0.0616  0.1625 -0.0570
20220W        W24520  15.504   5.611   5.356  0.3416 -0.3482  0.3092
20221W        W24521   3.372   7.586   0.900 -0.1290 -0.2967 -0.0869
20222W        W24522  11.221   4.172  19.908 -0.0843 -0.1289 -0.1701
20223W        W24523  16.574   4.203  28.589 -0.2308 -0.0884 -0.2262
20224W        W24524  10.737   0.638  26.023 -0.0249 -0.3649 -0.1599
20225W        W24525  22.972   5.744   8.528  0.0531 -0.2240  0.4176
20226W        W24526   4.691   7.704   4.061  0.3186 -0.1095  0.0795
20227W        W24527  14.972   1.968   1.459  0.2654 -0.2088  0.1639
20228W        W24528   3.519   4.995   7.735 -0.0665 -0.0012 -0.1341
20229W        W24529   2.975   4.980  14.236 -0.0311 -0.3393 -0.2104
20230W        W24530  16.204   1.711   5.295  0.0063 -0.0822 -0.1597
20231W        W24531   3.549   0.392   5.976  0.1300 -0.0300  0.1157
20232W        W24532  22.027   5.947   7.384 -0.2054  0.2867  0.1150
20233W        W24533  19.431   2.065   6.572  0.3502 -0.1861  0.0082
20234W        W24534  15.295   3.697   0.868  0.3767  0.1255  0.1221
20235W        W24535  13.956   1.613  32.705  0.2575  0.0356 -0.1861
20236W        W24536  15.947   2.667   9.029  0.1682 -0.0506  0.1847
20237W        W24537   8.404   4.608  14.978 -0.3671 -0.0567  0.0090
20238W        W24538   2.512   4.818   9.138  0.0111 -0.1390 -0.4510
20239W        W24539   0.969   2.113   1.596 -0.2919  0.2639  0.1545
20240W        W24540  11.716   3.505  22.684  0.0126 -0.0392 -0.0764
20241W        W24541   1.838   0.538   9.274  0.1640 -0.0408 -0.0687
20242W        W24542  21.886   5.511  24.217  0.3258 -0.2583 -0.4295
20243W        W24543  20.908   5.549   6.033 -0.1628 -0.0103 -0.0706
20244W        W24544   5.441   2.432  12.843 -0.0652  0.1038 -0.0259
20245W        W24545   7.988   3.564  12.674  0.1604  0.0416 -0.0551
20246W        W24546   1.490   0.777   3.975 -0.0074 -0.1434  0.0771
20247W        W24547  18.992   3.318  30.703  0.0487  0.2028  0.0002
20248W        W24548   7.509   2.742   4.789  0.0463 -0.0265  0.1244
20249W        W24549  21.830   0.792  24.626 -0.0833 -0.3025  0.1154
20250W        W24550   8.183   6.654   5.864 -0.1748  0.0843 -0.1716
20251W        W24551  21.426   6.903  28.973 -0.1760 -0.0518  0.1776
20252W        W24552  18.084   6.361  21.437 -0.1259 -0.2678 -0.0642
20253W        W24553  22.236   2.068  26.651  0.1348  0.1156 -0.0492
20254W        W24554  10.574   1.446  29.049  0.0149 -0.3758 -0.2887
20255W        W24555  14.507   4.777  22.536  0.4600  0.0092 -0.1947
20256W        W24556   0.304   5.734   5.284 -0.5583  0.0163  0.0114
20257W        W24557   6.753   0.260  15.192 -0.0391 -0.0617  0.0934
20258W        W24558  19.520   5.299  20.636  0.3070  0.0631 -0.1671
20259W        W24559  21.281   6.246   5.421 -0.0356  0.0570  0.0907
20260W        W24560  21.749   3.907   8.240  0.1981  0.1576  0.1602
20261W        W24561  20.611   6.159  17.755 -0.0008  0.0476  0.1176
20262W        W24562  18.141   0.898  16.149  0.0920 -0.2286  0.1923
20263W        W24563  18.889   3.905  26.184  0.2124 -0.0947 -0.0076
20264W        W24564  14.320   4.933  18.881  0.0739  0.4525 -0.1360
20265W        W24565  14.427   7.699  19.355  0.1248  0.2991 -0.1623
20266W        W24566  23.792   0.026  22.177 -0.1935  0.0163  0.0669
20267W        W24567   6.588   6.895  24.900  0.2353 -0.0912  0.1589
20268W        W24568  24.606   0.248  21.587  0.1591 -0.1358 -0.0810
20269W        W24569  24.784   6.340  25.570  0.3899  0.0446  0.2640
20270W        W24570   1.243   2.387  16.513 -0.1774 -0.1015  0.1046
20271W        W24571  11.060   2.569   2.829 -0.0069 -0.2859  0.0430
20272W        W24572  21.927   0.461  27.966  0.3216  0.1969 -0.3475
20273W        W24573  20.809   1.807  32.013  0.0086 -0.0203 -0.0173
20274W        W24574   7.026   2.190  32.930  0.0548 -0.1990  0.1142
20275W        W24575   6.686   1.255   1.588  0.2413 -0.2224  0.0126
20276W        W24576   0.772   3.516  30.771  0.0817 -0.1364 -0.1183
20277W        W24577  22.778   3.917   6.521  0.1763  0.1711 -0.2364
20278W        W24578  24.295   1.441  13.660  0.1503  0.0159 -0.3201
20279W        W24579  16.214   6.379  23.842 -0.1042  0.2727  0.1235
20280W        W24580   3.094   6.013  11.424  0.1758  0.2018 -0.1008
20281W        W24581   9.124   1.064   6.135 -0.0297  0.0643 -0.2654
20282W        W24582  10.836   6.700   0.131  0.0046  0.1462 -0.4291
20283W        W24583   0.939   3.811   5.874 -0.0965 -0.0212 -0.0009
20284W        W24584   9.519   3.424  32.017  0.0146 -0.0297  0.2055
20285W        W24585   7.600   4.046  24.093  0.1805 -0.0355  0.3748
20286W        W24586  19.632   0.220  28.058  0.0295 -0.1423  0.1374
20287W        W24587  20.435   6.951   6.026  0.1013 -0.0322  0.1488
20288W        W24588   3.113   3.164   4.877 -0.0845 -0.1836  0.1637
20289W        W24589  19.137   4.136  10.806  0.0741 -0.0682 -0.1984
20290W        W24590   3.284   3.013   0.122 -0.1971  0.1930 -0.1099
20291W        W24591  17.895   4.061  25.862 -0.0601 -0.2506  0.0925
20292W        W24592   1.130   1.431  15.510  0.4092  0.1903  0.0819
20293W        W24593  11.343   2.149   5.310 -0.0955  0.2084 -0.0922
20294W        W24594   5.024   4.616   0.198  0.1378  0.0067 -0.2928
20295W        W24595  15.415   0.696  15.964 -0.0841  0.3455  0.0203
20296W        W24596  21.997   3.590  18.371 -0.0146 -0.1802 -0.0621
20297W        W24597  18.771   6.293   7.000  0.1178  0.0197  0.2295
20298W        W24598   4.771   2.458  10.695  0.1843 -0.1673  0.0877
20299W        W24599  15.620   4.133   3.795  0.1941 -0.0785  0.3260
20300W        W24600   7.582   4.523  30.797 -0.2633  0.1046  0.0228
20301W        W24601  14.041   1.339  32.191 -0.0294  0.0761  0.0516
20302W        W24602  12.997   5.552  23.100 -0.0295 -0.3563 -0.2947
20303W        W24603  23.640   6.510  29.906 -0.0515 -0.2392  0.0993
20304W        W24604  11.639   0.844   4.484 -0.0578  0.2038 -0.2042
20305W        W24605  20.764   1.045   2.964 -0.1661  0.0659  0.3226
20306W        W24606  20.966   6.092  19.044 -0.3029 -0.0809  0.1029
20307W        W24607   8.072   4.234  30.558 -0.2529  0.2525 -0.2839
20308W        W24608  24.744   2.401  31.454  0.0346 -0.0866 -0.0327
20309W        W24609  19.449   3.038  31.845 -0.2114  0.1113  0.1032
20310W        W24610  13.645   5.903  22.360  0.1048 -0.3246 -0.0331
20311W        W24611   0.109   5.007   4.550 -0.0673 -0.1056 -0.0296
20312W        W24612   2.145   0.128   0.891  0.1489 -0.2111 -0.5458
20313W        W24613   8.819   3.365  12.230 -0.0656  0.5331 -0.0930
20314W        W24614  18.052   4.665  23.919  0.0232  0.1190 -0.2314
20315W        W24615  20.397   1.575  28.535  0.0118 -0.0241 -0.1413
20316W        W24616  23.004   1.858   0.567  0.0949  0.2474  0.3010
20317W        W24617  10.131   5.718   9.590  0.2470  0.2850 -0.0293
20318W        W24618  10.193   4.418  24.115 -0.2505  0.1263  0.0165
20319W        W24619  15.491   2.742  21.890  0.0580 -0.0435  0.1906
20320W        W24620  12.179   5.287  23.566  0.0211  0.1883  0.1343
20321W        W24621   9.646   7.243  22.681  0.1265  0.2039 -0.0858
20322W        W24622  15.218   6.580  18.164  0.0487  0.1310 -0.2126
20323W        W24623   7.681   6.034   1.243 -0.1200  0.0513  0.3187
20324W        W24624   2.507   1.595   3.996  0.0401  0.0059  0.1862
20325W        W24625   9.674   4.530  26.430 -0.1748  0.2307 -0.3378
20326W        W24626  16.228   3.169  17.916  0.1700  0.1299 -0.3074
20327W        W24627  11.000   7.410   1.369 -0.0268 -0.0418 -0.0550
20328W        W24628  12.948   4.309  26.571  0.2286 -0.1487 -0.1629
20329W        W24629  11.123   2.874  10.697 -0.0676 -0.0385 -0.1583
20330W        W24630  21.483   1.170  22.253  0.2814 -0.1610 -0.0747
20331W        W24631  13.079   3.655   9.834 -0.1888 -0.1489 -0.0306
20332W        W24632  11.629   7.363  24.255 -0.0174  0.0729  0.2433
20333W        W24633  13.068   1.687  18.139 -0.1207  0.0144 -0.0798
20334W        W24634  18.103   0.182  18.742  0.2459 -0.1385 -0.0755
20335W        W24635  16.304   5.329  16.757  0.0100 -0.2056  0.3876
20336W        W24636   6.245   2.910   6.115 -0.1651  0.1384 -0.2183
20337W        W24637   7.312   3.537  25.812  0.0164 -0.0279 -0.0133
20338W        W24638   9.693   7.794  32.746  0.2407  0.3016  0.3392
20339W        W24639  15.678   5.637  22.362  0.0954  0.1947  0.1830
20340W        W24640  21.727   6.657  13.167 -0.0250  0.4615  0.3619
20341W        W24641  18.494   5.276  16.712  0.2441  0.2278  0.0978
20342W        W24642  12.428   0.388  28.951 -0.0497 -0.0056 -0.0290
20343W        W24643   9.845   4.817  23.980  0.0005  0.1389 -0.2629
20344W        W24644   0.796   1.893   6.760 -0.1222  0.0984 -0.0289
20345W        W24645  18.602   7.128  24.064 -0.1417 -0.3604 -0.1675
20346W        W24646  15.391   6.247  17.767  0.1400  0.1742 -0.0476
20347W        W24647  21.561   0.735   4.105  0.3318  0.0533 -0.1001
20348W        W24648  16.483   7.767  22.899  0.2336  0.1869 -0.1863
20349W        W24649  22.083   3.599  23.035  0.0334 -0.0647  0.1530
20350W        W24650  21.219   0.881   9.470 -0.1214 -0.2229  0.1635
20351W        W24651  24.666   1.941   0.606  0.0273  0.1155 -0.2277
20352W        W24652  12.795   4.186  32.541 -0.2170  0.2266 -0.3271
20353W        W24653  14.075   6.452  21.221  0.0941  0.0833 -0.0798
20354W        W24654  24.734   4.589  14.804 -0.0229  0.0449 -0.0478
20355W        W24655  20.696   1.122  30.510  0.0805 -0.2779  0.0538
20356W        W24656  12.979   6.979   8.494  0.0612 -0.3393 -0.1893
20357W        W24657   1.844   3.759   1.451 -0.0269 -0.1099 -0.1039
20358W        W24658  13.105   2.073  29.357 -0.1843  0.0214  0.0108
20359W        W24659  14.251   3.097  17.111  0.0827 -0.2332 -0.0159
20360W        W24660  21.757   6.107  29.388  0.1259  0.4204 -0.2049
20361W        W24661   7.954   4.002  26.479  0.0513 -0.2991  0.0949
20362W        W24662  16.918   7.800   3.469  0.2512  0.0339 -0.0994
20363W        W24663   0.837   0.911  24.649 -0.3336  0.1481 -0.0011
20364W        W24664   9.204   6.012  29.974  0.1587 -0.0494  0.1349
20365W        W24665  12.943   2.188   0.163 -0.0190 -0.0024  0.2485
20366W        W24666  21.965   1.212   4.707  0.1898  0.0046  0.2477
20367W        W24667  10.011   0.782   1.167  0.1148 -0.2403 -0.0498
20368W        W24668   3.794   2.026   1.662  0.0546  0.0528 -0.1272
20369W        W24669  16.255   5.661  16.150  0.1458 -0.0013 -0.0813
20370W        W24670   6.486   0.758   8.309 -0.4111 -0.1327  0.3081
20371W        W24671  14.277   6.258  15.228  0.0959 -0.0355 -0.1979
20372W        W24672  24.541   3.512  30.222  0.0962  0.1106 -0.2656
20373W        W24673  16.697   7.587   3.076  0.0246 -0.0007  0.3163
20374W        W24674  23.777   0.667   5.123 -0.1792  0.0382 -0.1118
20375W        W24675   5.330   3.405  30.901 -0.0579 -0.0457 -0.1299
20376W        W24676   7.877   5.676   2.360  0.1666  0.2125  0.0087
20377W        W24677   9.882   0.333  31.110 -0.2259 -0.0664  0.0131
20378W        W24678   4.260   3.566  29.397 -0.3051  0.1325  0.1030
20379W        W24679  18.869   0.291   9.511 -0.2269 -0.0559 -0.2070
20380W        W24680   2.897   4.986   9.572  0.0060  0.3016  0.1109
20381W        W24681  23.198   3.496  22.391  0.0392  0.3922 -0.1631
20382W        W24682   2.120   3.152  17.845 -0.2270  0.1331 -0.0453
20383W        W24683  19.035   4.240  26.616 -0.0537  0.0245 -0.0212
20384W        W24684  17.869   7.634  31.538  0.3227 -0.0528 -0.0257
20385W        W24685  22.611   0.572   1.369 -0.1249  0.1630 -0.1114
20386W        W24686   5.508   4.876   9.695 -0.0514  0.2075  0.4900
20387W        W24687  20.079   7.616  17.528 -0.0174 -0.2185  0.0752
20388W        W24688  15.231   0.779   6.268  0.1246  0.0812 -0.1153
20389W        W24689   1.794   4.805  30.290 -0.1387 -0.3315  0.1852
20390W        W24690  17.560   2.285   3.081 -0.2088  0.0884  0.0973
20391W        W24691  23.419   5.102   7.894 -0.2064 -0.1076 -0.0471
20392W        W24692  17.722   4.063  30.885  0.0729  0.4218  0.1603
20393W        W24693  19.107   4.834   9.118  0.2458 -0.2395 -0.1324
20394W        W24694  17.157   7.133  23.401 -0.1390 -0.0000 -0.1174
20395W        W24695   8.574   0.713  10.068  0.0061  0.1334  0.2564
20396W        W24696   6.472   4.078  24.127  0.0471 -0.0201  0.0372
20397W        W24697   2.648   1.663   9.027 -0.0876 -0.2091 -0.0764
20398W        W24698  19.370   4.422   0.297  0.0622  0.1052  0.1391
20399W        W24699  16.778   3.949  23.304 -0.0303  0.0924  0.1340
20400W        W24700   7.332   7.088   8.488 -0.2413 -0.1335 -0.0780
20401W        W24701  12.334   6.371  10.604  0.0286 -0.0292  0.0219
20402W        W24702  12.971   5.113   1.307 -0.0225 -0.0408 -0.2417
20403W        W24703  15.713   5.404  19.223 -0.0285 -0.1986 -0.0972
20404W        W24704  20.432   0.227   6.606  0.1486 -0.0853  0.3566
20405W        W24705   3.950   6.664   4.152 -0.1946  0.1348  0.0342
20406W        W24706   6.661   2.692  27.527 -0.0710  0.2835  0.1658
20407W        W24707  11.289   6.091  20.278 -0.5464  0.2018 -0.0179
20408W        W24708  20.976   3.034   7.809  0.3346  0.0003 -0.0161
20409W        W24709  10.675   6.247   5.605  0.2119 -0.2288 -0.0793
20410W        W24710  19.058   4.507  31.297  0.1211 -0.0942  0.1085
20411W        W24711  23.882   1.050  26.271  0.0181  0.0284 -0.0436
20412W        W24712  22.134   6.514   9.214  0.0645  0.1900 -0.2051
20413W        W24713   6.097   4.200   9.647  0.2952  0.1997 -0.0306
20414W        W24714   1.584   0.155  15.694 -0.4704  0.1388 -0.5050
20415W        W24715   2.289   6.941  10.104  0.2013 -0.6143  0.1030
20416W        W24716   7.640   7.278  15.881 -0.0682  0.1845 -0.1066
20417W        W24717   5.043   3.454  30.526  0.1259  0.0536  0.3066
20418W        W24718  23.279   4.270   9.238  0.0907 -0.1495  0.3153
20419W        W24719   1.107   7.498   9.931 -0.1275  0.1875  0.1157
20420W        W24720   8.560   4.273  30.795  0.3942  0.2366  0.2631
20421W        W24721  12.677   3.407   1.012  0.1200 -0.1234  0.2665
20422W        W24722   6.045   3.075   7.038  0.1150  0.0393 -0.0556
20423W        W24723  21.628   4.375  11.070  0.2031 -0.2463  0.0798
20424W        W24724  12.472   4.283   2.375  0.1768 -0.1479 -0.1153
20425W        W24725  10.951   7.267  32.261  0.1952  0.2815 -0.0974
20426W        W24726   6.446   1.852   9.271 -0.1770  0.1030 -0.2177
20427W        W24727  16.661   0.638  20.438  0.1717  0.0529 -0.2539
20428W        W24728  18.355   3.901  24.624  0.2348 -0.2947 -0.1262
20429W        W24729   3.213   4.778  24.298 -0.0215 -0.5095 -0.2247
20430W        W24730   2.761   0.959  16.491  0.0025  0.1089 -0.1433
20431W        W24731  10.696   2.207  27.345 -0.1204 -0.0031 -0.0371
20432W        W24732  12.338   0.680  24.741  0.0078  0.0693  0.0714
20433W        W24733  13.452   1.257  26.090 -0.2208 -0.1409 -0.1014
20434W        W24734   2.379   7.767  14.618  0.0752  0.0378 -0.0775
20435W        W24735  14.316   2.660  22.489 -0.1844  0.2448 -0.0498
20436W        W24736   4.394   5.424   3.971  0.0898 -0.1080 -0.0601
20437W        W24737  15.222   1.294   1.308 -0.3321  0.0720 -0.4073
20438W        W24738  13.677   2.292   9.986  0.1130 -0.0664 -0.1449
20439W        W24739   6.011   1.227  23.882  0.0369  0.2986 -0.1506
20440W        W24740   2.466   2.123  10.379  0.0024 -0.2511  0.0240
20441W        W24741   9.771   0.442   8.364 -0.0896 -0.3436  0.1286
20442W        W24742   5.207   1.187  11.363 -0.1539  0.1192  0.1654
20443W        W24743   6.499   3.930   0.269  0.3125 -0.1583 -0.1106
20444W        W24744  15.778   2.857  23.054  0.1719  0.2156 -0.3916
20445W        W24745  22.344   3.554   4.660 -0.3001 -0.2357  0.1390
20446W        W24746  10.112   3.542  11.385  0.1311 -0.1623 -0.2552
20447W        W24747  19.610   4.145  11.104 -0.0603 -0.2632  0.1549
20448W        W24748  12.174   1.025  28.883 -0.1365 -0.0510 -0.0549
20449W        W24749  15.068   6.550   1.779 -0.0130 -0.1236 -0.3110
20450W        W24750   9.409   6.989  13.833  0.0307 -0.0015  0.3401
20451W        W24751   2.073   4.437  23.607  0.1662  0.1166 -0.1424
20452W        W24752   9.864   7.204  29.647 -0.0731 -0.0525 -0.0733
20453W        W24753  22.140   6.259   4.293  0.0175 -0.1931  0.4033
20454W        W24754  16.817   5.195   0.238 -0.1604 -0.2766 -0.0057
20455W        W24755  23.253   2.318  23.960  0.0940  0.2860  0.2834
20456W        W24756  13.861   2.048  25.526 -0.2006  0.4236 -0.1599
20457W        W24757  12.994   7.228  22.699 -0.0085 -0.1880  0.2560
20458W        W24758  23.394   0.788  10.981  0.0457  0.1639  0.2163
20459W        W24759   1.506   2.754   1.668  0.1736  0.0197 -0.0039
20460W        W24760  23.324   2.967  13.491  0.0010  0.0102 -0.2126
20461W        W24761  16.933   4.349   0.624  0.2844  0.0483  0.0202
20462W        W24762   7.655   0.921  29.757  0.2016 -0.0340  0.0397
20463W        W24763  18.540   1.732  10.126 -0.0466  0.3462  0.1416
20464W        W24764  20.421   5.198  28.676  0.4005 -0.1099  0.3348
20465W        W24765   1.023   3.395   3.996  0.1505 -0.1118 -0.1853
20466W        W24766  23.336   5.181  32.980 -0.0164  0.1119  0.2946
20467W        W24767  14.751   2.275  32.671  0.0349 -0.0432  0.0817
20468W        W24768  17.781   6.389  30.726  0.2143  0.0501 -0.2136
20469W        W24769  22.766   2.544   9.495  0.1895 -0.0185  0.0332
20470W        W24770  20.752   3.740   5.769 -0.1137 -0.2847 -0.2106
20471W        W24771   9.629   2.268  27.363 -0.3841 -0.0813 -0.0813
20472W        W24772   7.722   4.570   7.542  0.0979 -0.1277 -0.0146
20473W        W24773  18.351   2.854   3.408 -0.3298  0.4802 -0.0382
20474W        W24774  12.877   5.122  28.314  0.3504 -0.2002  0.1561
20475W        W24775   8.675   3.440   8.499 -0.0795  0.0957 -0.1844
20476W        W24776  10.758   6.441  20.593 -0.2389 -0.0640  0.0169
20477W        W24777  10.841   0.636  24.903 -0.0913 -0.0042 -0.1141
20478W        W24778  20.263   4.704  23.899  0.1341 -0.0431 -0.0933
20479W        W24779  10.540   4.380  21.282  0.1845 -0.1966 -0.1425
20480W        W24780   8.789   2.231  27.362 -0.0919  0.1631 -0.4397
20481W        W24781  18.314   6.676  19.765 -0.1261 -0.2040 -0.1429
20482W        W24782   7.958   1.381   5.266  0.1884 -0.1391  0.0271
20483W        W24783  24.717   3.688  30.777  0.1602 -0.0033  0.2535
20484W        W24784   6.770   4.408  16.620 -0.0542  0.2614  0.1103
20485W        W24785  22.851   2.939  28.232 -0.1503 -0.1235 -0.1217
20486W        W24786   1.268   1.632  26.516  0.2653  0.1566 -0.0884
20487W        W24787   4.451   4.945  31.975 -0.1645  0.1412 -0.2080
20488W        W24788  12.945   0.290  29.483  0.0230 -0.5555  0.2370
20489W        W24789   4.466   2.305  23.701  0.3885  0.0774  0.2037
20490W        W24790   7.463   6.322  25.185  0.0307 -0.0792 -0.4620
20491W        W24791  23.274   3.509  11.896  0.0878  0.0277 -0.1550
20492W        W24792   3.020   0.638  14.845  0.2182  0.2267  0.1604
20493W        W24793  19.667   7.283  27.439 -0.1031  0.0133  0.4023
20494W        W24794   3.773   1.009  14.453 -0.0180  0.4300  0.3946
20495W        W24795   6.213   6.350   2.055  0.1186  0.4132 -0.3462
20496W        W24796  19.666   3.378   6.203  0.1829 -0.2642 -0.2151
20497W        W24797  22.481   5.991  26.139  0.0726 -0.1099 -0.4022
20498W        W24798  16.539   4.660  15.405  0.0042 -0.0747 -0.0067
20499W        W24799  21.782   4.951   3.844 -0.0409 -0.0379  0.2878
20500W        W24800   0.959   0.200  29.620  0.1776  0.1100  0.0895
20501W        W24801   4.800   1.088  23.270  0.1293 -0.0923 -0.1836
20502W        W24802  23.368   6.625  31.818  0.2133  0.0574 -0.2370
20503W        W24803   0.247   5.217   8.468  0.1781  0.2654 -0.1498
20504W        W24804  24.879   0.622  29.720 -0.1573 -0.1801 -0.0232
20505W        W24805   6.008   6.247  24.077 -0.2212  0.0948 -0.1656
20506W        W24806  12.290   0.779  10.782 -0.3374  0.1238 -0.1420
20507W        W24807   1.570   4.506  29.951  0.0496 -0.1497 -0.0170
20508W        W24808  21.558   2.470   2.371 -0.1169  0.3349 -0.2934
20509W        W24809   4.470   4.142   7.434  0.3125  0.2494 -0.0309
20510W        W24810  23.192   4.783  32.381 -0.2214 -0.3016 -0.0164
20511W        W24811   5.427   5.444  14.637 -0.1921  0.2362 -0.3612
20512W        W24812  17.276   7.104   9.295 -0.2167 -0.0483  0.0249
20513W        W24813   7.316   4.453   3.931 -0.1261 -0.0726  0.3631
20514W        W24814   9.651   0.170   4.217 -0.2155  0.2802 -0.2307
20515W        W24815   4.205   6.478  10.145  0.2545 -0.0196  0.0297
20516W        W24816  23.489   2.383  32.421 -0.0899  0.1249 -0.0103
20517W        W24817  21.512   2.379   5.587 -0.0744 -0.0757  0.1243
20518W        W24818   2.053   7.532  10.525  0.0193 -0.1084  0.0599
20519W        W24819  11.861   1.225   4.905 -0.0495 -0.0624 -0.2014
20520W        W24820  19.918   5.868   5.228  0.0391  0.3587 -0.0595
20521W        W24821  19.067   4.364  26.091 -0.1141  0.1033  0.3990
20522W        W24822  22.764   3.892   1.979 -0.0324 -0.0812 -0.2546
20523W        W24823  18.429   0.430  20.207  0.1666 -0.0394 -0.0512
20524W        W24824  22.293   4.754  29.499  0.0175  0.0479 -0.0159
20525W        W24825   2.918   2.702   5.831 -0.3156 -0.1031  0.3747
20526W        W24826   8.379   3.076   3.676 -0.0199  0.1747  0.0334
20527W        W24827   8.120   4.036  22.926 -0.0496 -0.3775 -0.0820
20528W        W24828  19.458   4.636   8.188  0.0897  0.2484  0.1469
20529W        W24829   4.693   0.589  10.848 -0.0765 -0.0570  0.0648
20530W        W24830   4.027   0.548   0.291  0.1939  0.3176  0.1206
20531W        W24831  12.708   2.069  25.951 -0.1286  0.1407  0.0548
20532W        W24832   0.324   5.766  12.142  0.0543 -0.0463  0.2186
20533W        W24833  19.177   5.241   2.947 -0.1810  0.0263 -0.0733
20534W        W24834   5.663   6.856  32.120  0.2035 -0.0140  0.0186
20535W        W24835  15.875   3.209  14.546 -0.0035  0.1463 -0.0522
20536W        W24836   8.659   0.667  28.063  0.0927  0.2084  0.0095
20537W        W24837  13.197   7.032  31.393  0.0832  0.1169  0.0953
20538W        W24838   2.019   1.029  32.164  0.0812  0.0841  0.2287
20539W        W24839   4.116   6.697   8.065 -0.0745  0.1396  0.1667
20540W        W24840   7.871   7.322   8.599 -0.1791 -0.2394  0.1529
20541W        W24841   7.696   5.391  15.139  0.0570 -0.0350 -0.0398
20542W        W24842  23.709   2.173  11.960  0.2570  0.1418 -0.1796
20543W        W24843   5.863   6.524  12.985  0.1163 -0.0905 -0.1694
20544W        W24844  15.584   1.782   4.614  0.1347 -0.0670 -0.0781
20545W        W24845  10.991   4.291   3.887 -0.0565  0.0070 -0.0232
20546W        W24846  18.561   3.323   1.891 -0.1776  0.0203  0.3422
20547W        W24847  12.888   7.267   4.268 -0.0856 -0.1809  0.1679
20548W        W24848   1.725   3.074   7.992 -0.4537 -0.1152 -0.1620
20549W        W24849  14.284   5.003  24.949 -0.0151 -0.0314  0.0461
20550W        W24850  19.276   0.543   6.352 -0.0253 -0.1312 -0.0584
20551W        W24851  23.267   6.325   5.517 -0.0892  0.0069  0.4176
20552W        W24852   3.625   1.726  25.569 -0.0766  0.0133  0.1140
20553W        W24853  10.107   6.107   4.759  0.0032 -0.0549  0.0248
20554W        W24854  19.058   1.388  26.695 -0.1370 -0.1726 -0.1261
20555W        W24855  15.027   2.810  29.279  0.0543  0.0353  0.1496
20556W        W24856  17.981   3.739  29.408  0.2928  0.0387  0.0570
20557W        W24857  16.276   1.461  10.702 -0.0682 -0.3112 -0.0517
20558W        W24858  21.128   6.384  27.321  0.4057  0.0879 -0.0721
20559W        W24859  15.406   3.247   1.903 -0.2704 -0.2412  0.3595
20560W        W24860  19.052   5.517   0.801 -0.0701 -0.0337  0.1209
20561W        W24861  10.782   6.094  27.206  0.1860  0.0234  0.0219
20562W        W24862  18.624   7.635  18.897  0.1052 -0.1083 -0.1262
20563W        W24863  19.916   1.020   2.602 -0.0380 -0.1432  0.0158
20564W        W24864  22.211   4.384   1.292  0.3043  0.0152 -0.4003
20565W        W24865   1.631   4.763  28.983  0.0103 -0.0592 -0.0734
20566W        W24866  19.204   4.349  29.602  0.1110  0.1089  0.1654
20567W        W24867  14.998   4.487  19.756  0.1636  0.1440 -0.0977
20568W        W24868  20.422   0.638  18.322  0.0553 -0.0714 -0.0812
20569W        W24869   1.726   0.519   1.482  0.0636  0.0379  0.2353
20570W        W24870   1.697   1.022  22.660  0.1257 -0.0483  0.1928
20571W        W24871   9.527   5.313   2.497 -0.3488 -0.1560 -0.0775
20572W        W24872   5.735   5.638   8.441 -0.1257 -0.3849  0.0937
20573W        W24873  14.125   4.557  18.569  0.3215  0.1560 -0.0855
20574W        W24874   4.752   5.174   8.340 -0.1763  0.1099 -0.1635
20575W        W24875  15.700   4.883  16.289 -0.1988 -0.0981 -0.0830
20576W        W24876  18.281   3.663  17.798 -0.1103  0.2505 -0.2989
20577W        W24877   4.207   4.316   6.913  0.0710  0.1889  0.0602
20578W        W24878   0.571   6.507   2.088  0.3199  0.1798 -0.0789
20579W        W24879  22.873   5.056  10.084  0.0132 -0.0279  0.0367
20580W        W24880  18.719   2.807  17.553 -0.1339  0.0729 -0.0100
20581W        W24881  17.020   5.736  17.678 -0.0583 -0.0526  0.2866
20582W        W24882   2.129   0.783   7.907  0.3565  0.2470  0.0076
20583W        W24883  19.031   4.386  16.678  0.3993  0.0312 -0.0650
20584W        W24884   6.687   5.017   2.759  0.2604 -0.0181  0.1128
20585W        W24885   1.093   7.198  14.867  0.1366 -0.2050  0.1804
20586W        W24886   8.227   7.115   7.646  0.0488  0.0312  0.0017
20587W        W24887  17.520   3.894  24.314 -0.1235 -0.1236 -0.1488
20588W        W24888  12.777   7.581   4.629  0.1144 -0.1361  0.1588
20589W        W24889  11.862   3.332  11.240  0.2158  0.1507 -0.0315
20590W        W24890   7.711   5.981  30.491 -0.2412  0.2277  0.0438
20591W        W24891   4.394   2.788  30.157  0.2237  0.0438 -0.0555
20592W        W24892   9.609   5.147   4.897  0.0571 -0.0622  0.2227
20593W        W24893  21.113   1.718   4.662 -0.0298  0.2010  0.1425
20594W        W24894  19.387   6.239  19.777 -0.0148 -0.1954  0.4525
20595W        W24895   1.170   0.944  24.271  0.2964 -0.1726  0.2335
20596W        W24896   0.909   3.715  12.094  0.4354  0.3401 -0.0649
20597W        W24897   4.770   3.299   2.170 -0.2448 -0.2643 -0.0230
20598W        W24898   2.536   0.478  22.970  0.2432 -0.0814  0.1290
20599W        W24899  15.210   0.193  26.271 -0.1039 -0.0815  0.0893
20600W        W24900   7.408   4.709  32.620 -0.0144  0.1241 -0.1386
20601W        W24901   9.223   0.874   9.292  0.3435 -0.1048  0.1344
20602W        W24902   6.371   7.319  12.951  0.0069  0.0228 -0.1270
20603W        W24903  12.282   1.673  23.652  0.3064  0.1116 -0.0179
20604W        W24904  17.682   6.643  22.193  0.0225 -0.1867  0.0546
20605W        W24905  13.524   1.035  32.375 -0.0953 -0.2284  0.0352
20606W        W24906  10.723   1.423  26.723  0.0013 -0.2285 -0.0236
20607W        W24907   5.646   3.885   9.610  0.0893 -0.0682 -0.0170
20608W        W24908   6.357   0.313  27.758 -0.3160 -0.0143  0.1024
20609W        W24909  19.286   6.669  21.923  0.1031  0.2797 -0.0720
20610W        W24910  23.357   4.478  26.718 -0.0511 -0.0442  0.0408
20611W        W24911   9.087   6.671   9.234 -0.1489  0.2914  0.2254
20612W        W24912   3.999   6.779   6.301 -0.2739 -0.2011 -0.0206
20613W        W24913   1.017   3.128  23.646  0.3991 -0.3604  0.3451
20614W        W24914   9.969   6.457   2.626 -0.1179  0.0519  0.2471
20615W        W24915  13.484   2.363  25.863 -0.1005  0.1766 -0.1114
20616W        W24916  17.007   4.800  16.707  0.0490  0.0239  0.1689
20617W        W24917   3.865   5.031  32.591  0.2195 -0.3952  0.1614
20618W        W24918  22.250   6.233  29.984 -0.1729  0.0713 -0.0291
20619W        W24919  14.114   4.595  18.045 -0.2847 -0.0043 -0.1963
20620W        W24920  14.545   5.312   5.943  0.0375  0.2931 -0.1554
20621W        W24921  22.045   7.244   1.953 -0.2147 -0.0373 -0.0830
20622W        W24922   6.151   4.362  30.744  0.2985 -0.0237  0.2515
20623W        W24923   4.329   5.972   3.667 -0.2255  0.0970  0.4401
20624W        W24924  16.281   2.167  28.919 -0.0021  0.1047 -0.0691
20625W        W24925  19.955   0.310   1.622  0.0863  0.1201 -0.1603
20626W        W24926  21.639   7.409  10.106 -0.1127  0.1396  0.0971
20627W        W24927  15.798   3.682   1.068 -0.0572  0.1496 -0.3189
20628W        W24928  10.643   1.884  28.296  0.2656  0.2573 -0.0550
20629W        W24929  11.319   4.389  29.834 -0.4172  0.3250 -0.0341
20630W        W24930  20.212   4.985  30.725  0.0258  0.1132  0.0555
20631W        W24931   1.614   5.315  24.186 -0.1863  0.0520 -0.1114
20632W        W24932  17.622   0.468  22.465 -0.3607  0.0861  0.3113
20633W        W24933  17.128   6.283  28.163  0.0178  0.1032 -0.2404
20634W        W24934   2.707   0.497  24.764 -0.0642 -0.1393 -0.0293
20635W        W24935   2.349   0.175  16.199 -0.1094 -0.0628  0.1248
20636W        W24936   0.047   4.020  24.278  0.1106  0.3103 -0.0930
20637W        W24937   9.627   3.952  23.442 -0.0525  0.0734 -0.0389
20638W        W24938   3.804   2.852  29.254 -0.3444  0.0276  0.0006
20639W        W24939   0.051   4.066   6.270 -0.2048 -0.0775  0.0595
20640W        W24940  20.201   6.010  30.415 -0.0553  0.0950  0.1214
20641W        W24941   0.052   5.504  26.103 -0.2228 -0.1871  0.2011
20642W        W24942   2.489   7.750   4.156 -0.2849 -0.4433  0.2592
20643W        W24943  19.838   4.159   9.175 -0.0546  0.0218 -0.0436
20644W        W24944   5.628   6.446   4.435 -0.1696 -0.0180  0.2496
20645W        W24945  21.844   0.422  21.011  0.0773  0.0954  0.0731
20646W        W24946   7.696   4.349  24.503  0.2118  0.3749 -0.2338
20647W        W24947  19.446   6.590   7.939  0.1367 -0.0131  0.0003
20648W        W24948   2.003   1.137  29.119 -0.2341 -0.0537 -0.1941
20649W        W24949  18.699   6.013   0.404 -0.3683 -0.0548  0.7367
20650W        W24950  12.077   3.095   6.704 -0.1154 -0.0695 -0.1445
20651W        W24951  10.129   5.898  28.317 -0.1075  0.0072  0.3503
20652W        W24952  15.944   6.276  28.434 -0.0992 -0.0897 -0.0863
20653W        W24953   7.261   5.662  26.945 -0.0004 -0.3560 -0.0090
20654W        W24954   5.230   4.005   7.854 -0.2566 -0.0967 -0.1011
20655W        W24955  10.072   4.548   6.435  0.0133  0.3483  0.0205
20656W        W24956  12.259   4.025  19.989 -0.1527 -0.1665 -0.0609
20657W        W24957  10.907   7.089  30.363 -0.0377 -0.3408  0.0105
20658W        W24958  20.913   0.640  22.296 -0.1069 -0.1609  0.0775
20659W        W24959  11.201   0.916  18.625 -0.0873 -0.0263 -0.2104
20660W        W24960  24.865   1.156  29.690  0.0336  0.1444 -0.1549
20661W        W24961  12.387   1.540  25.337 -0.1227  0.0615 -0.0957
20662W        W24962  17.443   4.416   3.645 -0.4189  0.0540 -0.2599
20663W        W24963   8.295   3.464  24.607  0.0498 -0.0635  0.0980
20664W        W24964   8.420   2.445  26.611  0.1764  0.3130 -0.0435
20665W        W24965  13.113   4.261  16.527  0.1915  0.0859  0.2187
20666W        W24966  15.450   1.850  30.014  0.0314 -0.0081 -0.2003
20667W        W24967   9.075   1.478   0.534 -0.1626  0.1521 -0.3192
20668W        W24968   4.047   1.440   7.880 -0.3924  0.4599 -0.1010
20669W        W24969  17.090   2.802   0.318 -0.1562 -0.0695 -0.0156
20670W        W24970  12.989   3.845  31.350  0.2274 -0.0870  0.3567
20671W        W24971  19.719   6.020  22.456 -0.1864  0.2043  0.0850
20672W        W24972  24.521   0.197  23.424 -0.0885  0.0710  0.0073
20673W        W24973  21.449   2.049   8.182 -0.1657 -0.0968 -0.2167
20674W        W24974  14.073   3.902  29.832  0.2116  0.0297 -0.5153
20675W        W24975  12.372   3.116  27.370 -0.0262 -0.1706 -0.0056
20676W        W24976   1.292   5.945   5.797  0.2507 -0.0586  0.2746
20677W        W24977  21.034   4.649  32.117 -0.0819  0.1412 -0.1272
20678W        W24978  24.401   0.770  26.056 -0.1317  0.0641 -0.3952
20679W        W24979  17.865   0.280  29.067 -0.0516  0.1856 -0.0668
20680W        W24980   3.105   0.179  12.964 -0.1203  0.0871 -0.0101
20681W        W24981  12.112   6.027  30.626 -0.3265 -0.0746 -0.0814
20682W        W24982   7.563   3.382  27.487  0.0319 -0.2434  0.2768
20683W        W24983   0.478   5.686   0.221 -0.0056 -0.1062  0.2161
20684W        W24984  16.554   4.269   7.693  0.1528  0.0920  0.3751
20685W        W24985  14.916   5.376   2.757 -0.3811  0.1945 -0.1548
20686W        W24986   0.675   2.390   4.011  0.0690  0.1287  0.1563
20687W        W24987  12.252   0.676  20.492 -0.0985  0.1321 -0.0562
20688W        W24988   6.798   5.014   1.160  0.0863  0.2299 -0.0451
20689W        W24989  18.331   2.702  31.142 -0.1249 -0.1401 -0.2384
20690W        W24990  20.410   2.258  19.797  0.1340  0.1795  0.1492
20691W        W24991  21.787   1.320  18.339  0.2132  0.1584  0.1772
20692W        W24992  19.883   0.046  26.651  0.1215 -0.1089  0.1756
20693W        W24993   1.746   2.670  12.087 -0.1732  0.1349  0.3163
20694W        W24994  22.913   5.435   7.719  0.0177 -0.1561  0.2173
20695W        W24995  22.158   4.418  20.962  0.0120 -0.0734 -0.1463
20696W        W24996   4.453   6.014   3.130 -0.0360  0.4578 -0.0053
20697W        W24997  23.178   1.874  20.697  0.0094 -0.0648 -0.2752
20698W        W24998   9.192   0.061  30.435  0.1101  0.1315 -0.3405
20699W        W24999   4.258   5.596   2.902  0.1475 -0.1485 -0.0747
20700W        W25000  17.363   6.636  32.692 -0.2798  0.2505 -0.1076
20701W        W25001  12.614   4.590  30.659  0.1707 -0.2462  0.1710
20702W        W25002   5.109   5.199  16.957  0.0072  0.1777 -0.0877
20703W        W25003  13.528   7.736  27.317  0.1045 -0.0236 -0.2026
20704W        W25004  14.261   6.719  22.965 -0.1793 -0.0721  0.0963
20705W        W25005  18.770   0.598  28.389 -0.1011  0.1954 -0.2129
20706W        W25006  17.038   7.261   0.016  0.0569  0.1696 -0.2044
20707W        W25007   5.029   2.173   5.502  0.0912 -0.0957  0.1380
20708W        W25008   2.222   6.085  29.085  0.1284  0.1143  0.0921
20709W        W25009  16.207   1.379  24.105  0.1138  0.2092  0.4142
20710W        W25010  10.910   1.390   4.333  0.1054  0.4027 -0.0147
20711W        W25011  12.100   3.018   9.432  0.0014  0.1363  0.1972
20712W        W25012  15.810   6.821  18.379  0.0384  0.1574  0.3100
20713W        W25013  14.471   4.009  32.888  0.1180 -0.1861  0.4180
20714W        W25014  17.010   7.792   0.237  0.2563  0.1875  0.0934
20715W        W25015   8.147   7.092  10.954 -0.0326 -0.1234 -0.4794
20716W        W25016   7.858   4.966  32.863  0.2115  0.0985 -0.2908
20717W        W25017  18.145   6.911  23.191  0.2271 -0.0063 -0.0370
20718W        W25018   3.018   4.583   0.430  0.1670  0.3141  0.1981
20719W        W25019   6.515   3.424  31.739 -0.1513  0.0819  0.0609
20720W        W25020  14.980   4.050  16.241  0.0196 -0.1380  0.1231
20721W        W25021  12.619   7.693  30.639 -0.0336 -0.1842  0.0994
20722W        W25022  14.051   7.434  19.542  0.1717 -0.1493 -0.1073
20723W        W25023   5.208   0.412   0.967  0.0453  0.2454  0.1661
20724W        W25024   1.049   1.676  23.114 -0.0847  0.2516 -0.1418
20725W        W25025  18.496   0.009   9.156 -0.0517  0.1889 -0.0198
20726W        W25026  15.850   7.593   8.381 -0.0967  0.4991 -0.0245
20727W        W25027  12.465   4.932  17.862  0.3418 -0.1996 -0.2749
20728W        W25028   9.629   2.107  26.052 -0.0450  0.0515  0.0945
20729W        W25029   5.088   4.495   7.964  0.4152  0.4786  0.2352
20730W        W25030   2.955   3.503   3.291  0.0374 -0.3076 -0.0851
20731W        W25031  21.181   6.119  25.242  0.2444  0.2005 -0.0415
20732W        W25032  11.744   5.191   0.396 -0.1275 -0.3745  0.1954
20733W        W25033  19.032   0.577   3.188  0.2022 -0.2292  0.2647
20734W        W25034   2.966   2.326  25.540  0.0381  0.2266 -0.0244
20735W        W25035  20.202   2.362  16.729 -0.1341 -0.0387 -0.0082
20736W        W25036  23.038   2.430   1.535 -0.1201 -0.3467  0.2554
20737W        W25037   1.868   4.583   4.448  0.0800  0.0046 -0.0658
20738W        W25038   7.919   1.194  11.077  0.2183  0.1623 -0.3022
20739W        W25039  15.800   7.683  24.086  0.1695  0.0528 -0.0232
20740W        W25040  23.679   2.088  14.035  0.0536  0.2102  0.0062
20741W        W25041  17.831   5.011  16.277  0.1662  0.0346 -0.3747
20742W        W25042  18.788   6.032   9.667  0.2384 -0.0874  0.2397
20743W        W25043  16.973   0.880  31.811  0.2899 -0.0461  0.0606
20744W        W25044   1.372   2.980  14.317  0.2531  0.1652 -0.2332
20745W        W25045   6.137   6.432   8.204  0.0523 -0.0370  0.2162
20746W        W25046  19.111   4.616  25.539  0.1307  0.2859  0.0726
20747W        W25047   3.622   2.146  27.286 -0.1457 -0.0471 -0.0361
20748W        W25048  24.111   1.925  31.350 -0.1408  0.3114 -0.3286
20749W        W25049   2.485   7.041  32.944  0.0862  0.2140  0.2355
20750W        W25050   0.057   7.341   8.164  0.1378  0.2801  0.2359
20751W        W25051   7.828   3.957  11.818 -0.1501 -0.0195  0.1622
20752W        W25052   3.881   2.709  23.126 -0.0544 -0.1797 -0.2941
20753W        W25053   5.103   5.703  14.304  0.0030 -0.3421  0.1274
20754W        W25054  23.327   0.558   5.324 -0.0080 -0.2725  0.2199
20755W        W25055  22.464   4.690  21.335 -0.2118  0.0713 -0.0355
20756W        W25056  15.854   6.153  32.116  0.1612  0.1557 -0.0350
20757W        W25057   5.288   2.189  26.030  0.2135  0.3910  0.1370
20758W        W25058   6.060   1.731  10.966 -0.0548 -0.0437 -0.4059
20759W        W25059   9.040   5.119   5.710 -0.0336 -0.1841  0.1624
20760W        W25060  13.165   3.625   2.983 -0.1028  0.1308  0.0095
20761W        W25061  14.417   4.714  30.024  0.0561  0.0728 -0.2077
20762W        W25062   8.137   4.625  31.521  0.0232 -0.0526 -0.1144
20763W        W25063  18.378   5.087   8.833  0.1000  0.1251 -0.1208
20764W        W25064  15.266   0.743  32.571 -0.1079 -0.0875  0.1117
20765W        W25065  14.684   4.623  30.980  0.2139 -0.1764  0.0613
20766W        W25066   1.157   0.336  29.206  0.1533 -0.3025  0.0644
20767W        W25067   1.515   5.092  29.344  0.0470 -0.3046 -0.0935
20768W        W25068  20.198   6.310  26.308  0.1088 -0.1499 -0.0595
20769W        W25069  14.488   0.340  16.916 -0.0774 -0.0501  0.1360
20770W        W25070   6.210   4.031  30.376 -0.1690 -0.2751 -0.1452
20771W        W25071  16.125   6.008  18.772 -0.2104  0.2762 -0.0971
20772W        W25072  19.086   5.684   5.237 -0.0186 -0.1361 -0.2544
20773W        W25073   3.284   3.459  12.062  0.1076 -0.1142  0.0938
20774W        W25074   3.995   0.882  30.251  0.0635  0.1512  0.0792
20775W        W25075  19.122   3.707  26.552  0.0838 -0.0087 -0.0172
20776W        W25076  11.600   6.710  26.930  0.3579 -0.0616  0.2781
20777W        W25077  16.399   5.464   3.763 -0.0397  0.2194  0.0204
20778W        W25078   2.601   4.208  26.036  0.1052  0.4330  0.2857
20779W        W25079  20.440   5.368   6.986  0.0560 -0.2040  0.3077
20780W        W25080   8.772   3.550  21.751  0.1771 -0.1143 -0.0209
20781W        W25081   8.772   3.554  23.462 -0.2293  0.2314 -0.0394
20782W        W25082   6.055   2.620   3.079  0.1017  0.1411  0.1114
20783W        W25083   5.982   2.103  26.318 -0.0221  0.0798 -0.0412
20784W        W25084  23.495   2.834   4.724 -0.0270  0.0557  0.1529
20785W        W25085   0.864   0.419  10.889 -0.0883  0.0953  0.0308
20786W        W25086  18.128   5.877  22.425  0.1630 -0.4087 -0.0766
20787W        W25087  24.139   5.482  33.029  0.0374  0.2641 -0.2640
20788W        W25088   2.075   2.523  31.382  0.0610 -0.1879  0.3154
20789W        W25089  22.274   3.119  10.965  0.1561  0.0168 -0.4068
20790W        W25090  10.889   5.066   7.255  0.0346  0.0281  0.1220
20791W        W25091   7.117   3.699   2.554 -0.1837 -0.1367 -0.0429
20792W        W25092  11.764   3.877   6.098  0.0884  0.0290  0.0726
20793W        W25093  23.464   0.834  27.926 -0.1146 -0.0690 -0.0911
20794W        W25094  21.005   2.048  19.208 -0.1136 -0.0176  0.0564
20795W        W25095  15.881   5.900  19.269  0.0013  0.0236  0.2144
20796W        W25096  22.544   0.774  33.017 -0.2966 -0.2291 -0.4343
20797W        W25097   0.431   0.199   8.677 -0.1951 -0.1027 -0.1016
20798W        W25098  21.212   3.646   4.901 -0.1655 -0.0774 -0.0854
20799W        W25099  16.529   6.177  21.433 -0.4676 -0.1317  0.0103
20800W        W25100  14.087   0.966  24.140 -0.0384 -0.3268 -0.1353
20801W        W25101  22.916   6.427  32.731 -0.3367 -0.0244  0.0450
20802W        W25102   5.524   5.857   4.532 -0.0362  0.0333  0.1844
20803W        W25103  14.729   4.500   2.848 -0.2009 -0.0891  0.0021
20804W        W25104   3.586   4.699   9.051 -0.1339 -0.2490 -0.2129
20805W        W25105  13.059   2.140  30.204 -0.1759 -0.3591  0.0616
20806W        W25106  22.754   2.719   8.128 -0.4255 -0.1640  0.2953
20807W        W25107  16.740   0.147  23.685  0.3701  0.0404  0.0324
20808W        W25108  22.241   6.366  30.442 -0.1758  0.0505 -0.1214
20809W        W25109   9.290   3.824  20.824  0.0086  0.0522  0.0366
20810W        W25110   8.182   3.902  30.951 -0.3575  0.0480  0.0383
20811W        W25111  20.908   0.251  24.171  0.1420 -0.3233 -0.1440
20812W        W25112  10.688   6.679  26.886  0.1672 -0.1752 -0.1478
20813W        W25113   8.159   5.768   1.342 -0.0420 -0.1766 -0.1216
20814W        W25114  16.757   2.930  25.094  0.1938  0.0728 -0.0463
20815W        W25115  11.596   1.646   4.199 -0.2048  0.3393 -0.0445
20816W        W25116   7.058   2.320   7.904 -0.0873 -0.2537 -0.1094
20817W        W25117  10.708   1.094   0.969  0.0491 -0.1251 -0.1512
20818W        W25118   0.372   0.905  22.767  0.1669  0.2432 -0.0376
20819W        W25119   0.088   1.659  23.047  0.0515  0.1694  0.4374
20820W        W25120  16.319   6.985   3.539 -0.3098 -0.2482 -0.0878
20821W        W25121   5.845   0.131   9.871  0.0151 -0.2060  0.0665
20822W        W25122  21.909   4.337  27.261  0.2130 -0.1368 -0.2164
20823W        W25123  23.858   2.806   5.117 -0.0722  0.0251 -0.2050
20824W        W25124  13.038   5.913   9.156  0.0189  0.1331 -0.2410
20825W        W25125  23.854   0.652  25.943 -0.0704  0.1567  0.0845
20826W        W25126  10.634   6.281   9.119 -0.2399 -0.0317 -0.2160
20827W        W25127   6.887   7.644  13.162 -0.3263 -0.2214 -0.2372
20828W        W25128  10.688   3.430  25.184  0.0360  0.4160 -0.1039
20829W        W25129   1.901   4.215  16.133  0.0454 -0.3592 -0.2377
20830W        W25130   4.720   2.259  33.035  0.2731 -0.2862 -0.1120
20831W        W25131   3.885   3.559  14.227  0.2190  0.0374  0.4388
20832W        W25132  15.084   2.427   3.857  0.0536 -0.1964 -0.0383
20833W        W25133  15.386   2.521  14.042 -0.0214  0.0600 -0.2195
20834W        W25134   3.161   6.709  31.501 -0.1932  0.1596 -0.0532
20835W        W25135  22.143   7.197  27.181 -0.0555 -0.2774  0.1189
20836W        W25136  15.294   4.403  19.254 -0.1692 -0.1124 -0.2816
20837W        W25137   1.442   6.084   3.737  0.0101  0.0845 -0.0156
20838W        W25138  13.027   2.996  20.541  0.1281 -0.1881 -0.0317
20839W        W25139   2.266   3.210   5.251  0.2829  0.2286  0.0250
20840W        W25140   1.517   3.017  30.332 -0.0437 -0.1382  0.0213
20841W        W25141  21.972   3.904   1.380  0.3064  0.0181  0.0186
20842W        W25142  12.831   1.212   1.844  0.1127  0.1521 -0.2572
20843W        W25143   4.808   0.993   5.597  0.1211 -0.0152  0.1510
20844W        W25144   3.337   6.309  26.376  0.1548 -0.1680  0.1138
20845W        W25145  15.772   0.333  19.212  0.3832  0.1962  0.0786
20846W        W25146  16.245   7.152  19.087  0.2530  0.1244 -0.1460
20847W        W25147  21.250   5.963  26.473 -0.0179  0.1180  0.2399
20848W        W25148  18.124   1.120  27.982  0.2127  0.1139 -0.2572
20849W        W25149   3.607   0.094  29.705 -0.0870  0.1059  0.2509
20850W        W25150   0.469   4.762  24.614  0.3095  0.1241 -0.0252
20851W        W25151  21.435   0.643  22.438  0.1044 -0.0028 -0.0136
20852W        W25152  19.204   5.600  21.885 -0.1668  0.0016 -0.1544
20853W        W25153  24.003   3.051  13.103  0.3195 -0.0333 -0.1494
20854W        W25154  18.895   0.252  32.126  0.0803 -0.2947 -0.3134
20855W        W25155  17.525   6.440  26.415 -0.2731 -0.1093  0.0413
20856W        W25156   6.525   7.087  16.003 -0.1481  0.2669 -0.0538
20857W        W25157   8.983   4.937  32.860 -0.2305  0.0640  0.1948
20858W        W25158   2.815   0.548  28.368 -0.2678  0.2454 -0.0433
20859W        W25159  12.178   6.565  18.656 -0.0015  0.0042  0.2649
20860W        W25160  19.395   0.507  22.292  0.1562 -0.0742  0.0281
20861W        W25161   4.428   6.113   0.129 -0.0016 -0.3059 -0.1002
20862W        W25162   0.749   2.585  22.083 -0.1430  0.1730  0.1742
20863W        W25163  16.054   6.213  29.218  0.3365  0.1089 -0.0131
20864W        W25164  17.496   5.304  29.452  0.0430  0.0676  0.1377
20865W        W25165  22.413   0.276   9.866  0.5063  0.1019  0.0172
20866W        W25166  11.295   0.308  10.094 -0.1087 -0.3340 -0.3105
20867W        W25167   3.350   2.508   3.208  0.0812 -0.2043 -0.0456
20868W        W25168  24.153   5.054  29.195  0.1799 -0.2211 -0.2338
20869W        W25169  10.808   7.666  28.235  0.0068  0.0267  0.0202
20870W        W25170  15.990   3.910  30.513 -0.0191  0.0114 -0.0401
20871W        W25171  12.886   3.431   0.408 -0.0523  0.0848  0.1257
20872W        W25172  14.842   3.950  26.693 -0.1182  0.1276 -0.1734
20873W        W25173   6.119   7.627   0.223 -0.3347  0.1735 -0.0503
20874W        W25174   3.528   5.720  12.608 -0.0757  0.2064 -0.0893
20875W        W25175  11.365   4.781  28.415  0.0241  0.0814  0.1079
20876W        W25176  13.468   5.423  10.585 -0.0305 -0.0698  0.4189
20877W        W25177  21.192   1.973  25.215 -0.0750 -0.2194 -0.1002
20878W        W25178  22.116   1.280  26.791 -0.1978 -0.1439  0.1284
20879W        W25179  16.556   3.506  17.603  0.0923  0.0833 -0.0575
20880W        W25180   7.732   5.805  22.598  0.1409  0.0561 -0.0427
20881W        W25181   9.260   0.215  12.213 -0.4676 -0.0006  0.2783
20882W        W25182  13.820   1.774  30.662  0.0486  0.1365  0.0053
20883W        W25183   0.329   5.374  30.277 -0.0765  0.0140  0.0068
20884W        W25184   1.933   6.827   9.736  0.0892  0.0348  0.0798
20885W        W25185  24.912   3.967  23.259 -0.0929 -0.2830 -0.0933
20886W        W25186  13.307   3.495   3.933  0.3552 -0.2265 -0.0859
20887W        W25187   0.259   1.499   7.549 -0.1447 -0.1382  0.0073
20888W        W25188  10.060   5.035   6.871 -0.2905 -0.1195  0.0099
20889W        W25189  18.384   7.791  30.809  0.2158 -0.0388 -0.1430
20890W        W25190   2.269   1.883  17.350 -0.1627  0.0090  0.1849
20891W        W25191   7.516   5.337   4.252 -0.0888 -0.0000 -0.0364
20892W        W25192   4.626   4.137   4.463  0.0629 -0.1398  0.2815
20893W        W25193  10.070   1.714   9.920  0.0680  0.0732  0.1474
20894W        W25194   9.803   0.231  30.165  0.1207 -0.3102  0.0052
20895W        W25195  10.860   7.135   6.038 -0.2371 -0.3288 -0.3517
20896W        W25196   2.544   5.586   7.041  0.4037  0.0013 -0.0340
20897W        W25197  16.445   6.036  16.408  0.0741 -0.1044  0.1331
20898W        W25198  17.448   0.947  31.945 -0.0950  0.1495 -0.0201
20899W        W25199   7.062   5.145   5.101 -0.0261  0.2217  0.2599
20900W        W25200  14.788   3.671  27.111 -0.1449 -0.0588  0.0808
20901W        W25201  14.711   2.501  27.867  0.1645  0.0802  0.0521
20902W        W25202   4.336   5.155   9.034 -0.2002  0.1179  0.1623
20903W        W25203  14.085   0.505   5.192  0.1178 -0.2157  0.1408
20904W        W25204   6.101   5.515  24.331 -0.3271  0.1470  0.0793
20905W        W25205  11.395   4.673   5.025  0.1953  0.0322  0.2538
20906W        W25206   5.705   5.695  31.987  0.0456  0.0265 -0.1462
20907W        W25207   4.803   7.304  29.401  0.0976  0.1253  0.0407
20908W        W25208  14.264   0.828  10.143  0.1113 -0.0825 -0.0652
20909W        W25209  22.400   0.573   7.675  0.1098  0.5664 -0.2342
20910W        W25210   9.993   4.531   8.354 -0.1106  0.3393 -0.0800
20911W        W25211  16.153   7.191  29.827 -0.0739 -0.1456  0.1089
20912W        W25212  17.529   0.935  22.407 -0.0568  0.3341 -0.0603
20913W        W25213  10.025   3.807   9.907 -0.2840 -0.0730 -0.1147
20914W        W25214  11.738   5.626  10.819  0.0087  0.1261  0.1543
20915W        W25215  24.631   1.868  32.614  0.2112 -0.1564 -0.2964
20916W        W25216   8.869   4.324  28.370  0.0577  0.3829  0.3312
20917W        W25217   1.934   4.941  12.859 -0.2058 -0.0008 -0.2271
20918W        W25218   1.683   6.380  15.003 -0.1528 -0.1697  0.3721
20919W        W25219  19.226   7.027  26.104 -0.0657 -0.0721 -0.1283
20920W        W25220  21.517   3.580  11.195  0.4130  0.2192 -0.1119
20921W        W25221  22.644   2.968  20.306 -0.0424  0.0663 -0.2498
20922W        W25222   0.170   6.215   8.529 -0.1561  0.0556  0.1591
20923W        W25223  20.283   3.329   4.249  0.1116  0.1329 -0.2018
20924W        W25224  16.271   2.215  18.465 -0.0834 -0.2566 -0.1519
20925W        W25225  12.401   3.676  21.072 -0.2426  0.3139  0.0125
20926W        W25226   6.907   0.191  16.693 -0.1067 -0.2757 -0.2458
20927W        W25227   3.854   1.059  29.673 -0.1408 -0.2274  0.2569
20928W        W25228   2.891   7.758  27.042 -0.0239  0.0485 -0.1640
20929W        W25229  23.944   3.403  21.538 -0.1154  0.1977 -0.1186
20930W        W25230  13.866   2.551  16.390 -0.1773  0.2189  0.2098
20931W        W25231  23.801   2.856   4.327 -0.0343  0.0049  0.0676
20932W        W25232   0.308   2.318   2.445  0.4274 -0.1662 -0.2472
20933W        W25233  20.843   6.365  24.924 -0.3134  0.2323  0.0879
20934W        W25234   1.268   0.306   4.787 -0.1468 -0.3425  0.1290
20935W        W25235  21.097   1.794   1.457  0.0978 -0.0621  0.0202
20936W        W25236  23.508   1.328   6.597 -0.0873  0.1281  0.1470
20937W        W25237  10.132   1.432  32.548  0.1248  0.1319  0.0006
20938W        W25238  11.237   7.348  22.291  0.1350 -0.3405  0.0868
20939W        W25239  16.948   4.239  15.519 -0.1843 -0.0524  0.1793
20940W        W25240  21.978   0.538  25.926 -0.3176  0.2253 -0.3487
20941W        W25241  21.178   4.113   3.167 -0.1130 -0.0450 -0.1721
20942W        W25242  20.398   4.213  10.677  0.0792 -0.0599  0.1443
20943W        W25243  19.476   5.462  17.417  0.0553 -0.0266  0.0925
20944W        W25244  20.531   6.945  18.745  0.0136  0.3504  0.1660
20945W        W25245  17.495   4.026  31.969  0.0227 -0.1756  0.1365
20946W        W25246  19.896   6.595   2.201  0.0302  0.2057  0.1721
20947W        W25247   4.527   1.320  27.637  0.0275  0.2231  0.0101
20948W        W25248  22.610   6.003  22.429  0.1544 -0.0349 -0.0548
20949W        W25249   8.828   2.800  26.283  0.2821 -0.3073 -0.0123
20950W        W25250   9.414   1.314   8.653  0.3473  0.1837 -0.2358
20951W        W25251   5.192   0.116   3.138  0.3203  0.0124 -0.0084
20952W        W25252   1.829   0.191  24.570 -0.0910 -0.0127  0.1751
20953W        W25253  21.326   7.145  32.284  0.2620  0.4034 -0.4151
20954W        W25254   3.364   4.079   4.626 -0.0958 -0.1550 -0.2150
20955W        W25255  20.072   2.736   1.067 -0.0393 -0.1199  0.0694
20956W        W25256  17.189   2.257   5.804  0.1152 -0.0802 -0.3003
20957W        W25257  17.270   7.517  28.076 -0.0543 -0.1879 -0.2057
20958W        W25258  11.965   2.137  11.072  0.2007 -0.1566  0.4268
20959W        W25259   6.500   3.620  24.727  0.0599  0.2297  0.1347
20960W        W25260  18.971   7.180  24.480  0.1917  0.0570  0.0100
20961W        W25261  20.156   7.119  26.015 -0.0305 -0.0281 -0.1720
20962W        W25262  18.532   3.767  25.118  0.1579 -0.0972  0.1233
20963W        W25263  19.141   4.723  25.009 -0.3122 -0.2198 -0.3631
20964W        W25264   8.465   6.309   2.599  0.1220 -0.1544  0.1074
20965W        W25265   4.595   0.398  13.010  0.2949 -0.0742  0.0509
20966W        W25266   8.679   3.810  25.533 -0.0603 -0.1225 -0.1659
20967W        W25267  23.865   6.636  27.967  0.0915  0.0712  0.2264
20968W        W25268   5.262   0.866   0.768 -0.0820  0.1779  0.0349
20969W        W25269  17.409   3.868   3.867  0.0448  0.4365  0.3147
20970W        W25270  21.007   3.728  22.297 -0.0923  0.1682 -0.0755
20971W        W25271   7.075   3.937   3.504 -0.1972  0.0779  0.1572
20972W        W25272   0.597   1.941  10.447  0.2864  0.2424 -0.1500
20973W        W25273  14.782   1.135   0.259 -0.0021  0.1109 -0.0039
20974W        W25274  23.815   5.920  20.821 -0.3117  0.3066  0.0145
20975W        W25275   8.641   6.895  28.492  0.1043  0.0827  0.2837
20976W        W25276  22.869   2.357   4.389 -0.2027 -0.0555 -0.0829
20977W        W25277  15.054   7.246  25.532 -0.0198  0.0359  0.2752
20978W        W25278  19.606   6.298  24.195  0.2122  0.0242 -0.1733
20979W        W25279  11.873   0.732   5.494  0.0323 -0.0281 -0.1099
20980W        W25280  12.244   4.348  18.487 -0.1420  0.1419  0.1374
20981W        W25281  14.204   3.417   3.574 -0.0378  0.1139 -0.1276
20982W        W25282  11.351   0.462   4.721 -0.1095 -0.1606  0.0162
20983W        W25283   7.913   5.620  12.141  0.2696  0.2410  0.1612
20984W        W25284  11.421   0.212  19.223  0.0246  0.1127  0.0824
20985W        W25285  18.847   1.872   7.363  0.0545  0.0115  0.0636
20986W        W25286  17.386   4.183   8.109  0.1092  0.1876  0.3366
20987W        W25287  20.738   2.771  22.213 -0.0893 -0.0722 -0.1478
20988W        W25288  21.818   7.578  18.593  0.0015  0.2441  0.0312
20989W        W25289  16.603   4.735   6.705  0.1683  0.0498  0.0954
20990W        W25290  16.582   3.422   0.667 -0.0849 -0.1716 -0.2367
20991W        W25291  17.179   4.844  26.153 -0.0469 -0.1304 -0.1051
20992W        W25292   4.579   3.247  14.867 -0.1998  0.1015  0.0534
20993W        W25293   6.965   6.472  32.526 -0.0360  0.1305 -0.0802
20994W        W25294  15.940   7.307  28.134  0.0745  0.0074 -0.0472
20995W        W25295   4.751   1.890   5.110  0.4213  0.1325  0.3534
20996W        W25296   8.564   4.053  29.586 -0.0588  0.3207 -0.5036
20997W        W25297  10.302   0.914  10.128  0.1761 -0.0194 -0.1268
20998W        W25298  19.991   0.047  11.029  0.0332  0.3550 -0.1296
20999W        W25299  24.427   7.473  23.249  0.1060 -0.0765 -0.1817
21000W        W25300  18.624   0.694  16.276  0.0231 -0.2057  0.0968
21001W        W25301  23.771   2.812  12.572  0.0588 -0.0651 -0.1680
21002W        W25302  12.758   0.649  31.973 -0.0861 -0.1426  0.2935
21003W        W25303  18.839   5.468  30.179 -0.0781  0.0855 -0.0964
21004W        W25304  23.968   4.736  26.030 -0.1962 -0.1109  0.0768
21005W        W25305   7.833   0.801  14.812  0.0613  0.0796 -0.1377
21006W        W25306  24.279   4.396  30.791 -0.0760  0.0869  0.1612
21007W        W25307   7.707   6.459  16.427 -0.0070  0.0541 -0.0368
21008W        W25308   3.135   6.721   9.881 -0.1626  0.1253 -0.1260
21009W        W25309  24.598   5.677   9.519  0.1869  0.0601 -0.0281
21010W        W25310   7.083   2.704   1.664 -0.0970 -0.0077 -0.1771
21011W        W25311  17.207   0.133  18.928 -0.0188  0.2937 -0.2844
21012W        W25312   3.006   6.667  32.403  0.1688 -0.2671 -0.0219
21013W        W25313  14.518   7.709  27.094  0.1104 -0.0768  0.2205
21014W        W25314  19.377   3.015  26.494  0.1382 -0.2553  0.5491
21015W        W25315   9.677   4.538  12.536 -0.0925 -0.0553 -0.2807
21016W        W25316  12.779   4.135  29.253  0.0304 -0.0488 -0.0488
21017W        W25317  23.659   4.472  32.446  0.0395  0.0049 -0.1533
21018W        W25318  22.029   6.665  32.659  0.0664  0.0531 -0.2543
21019W        W25319  19.413   6.743   2.692 -0.2381 -0.2477 -0.2606
21020W        W25320  16.807   2.126  30.405 -0.1470  0.2688  0.3182
21021W        W25321  21.618   7.602  24.722  0.1058 -0.1581 -0.2819
21022W        W25322  13.465   0.767  20.468  0.2708  0.1554  0.2352
21023W        W25323  13.376   2.188  32.587 -0.1023  0.0454  0.0638
21024W        W25324  16.390   7.334  31.357  0.0640  0.3142  0.0829
21025W        W25325  24.309   0.475  13.178  0.1284 -0.0555  0.1963
21026W        W25326   1.270   1.804   7.502 -0.0004 -0.1763 -0.3339
21027W        W25327   4.108   2.279   5.601 -0.0875  0.2308 -0.0265
21028W        W25328   7.028   5.234  27.803 -0.1531 -0.1965 -0.0740
21029W        W25329   5.746   6.557  12.134 -0.0065 -0.1232  0.0389
21030W        W25330  16.252   0.571   4.470 -0.1599 -0.0641  0.3034
21031W        W25331   3.470   2.112  29.166 -0.1881 -0.1485 -0.2071
21032W        W25332  15.506   4.160  25.441  0.0144  0.0868  0.1820
21033W        W25333  16.449   2.118  31.582  0.0615  0.1097 -0.1601
21034W        W25334  12.430   6.070  11.600 -0.3688  0.1359  0.0971
21035W        W25335  24.231   4.929  31.106 -0.0666  0.1950 -0.1124
21036W        W25336   0.764   0.181  16.238 -0.1798 -0.2538 -0.1316
21037W        W25337   4.179   1.678   5.852 -0.1256  0.2676 -0.1235
21038W        W25338  21.591   0.640   2.567 -0.2059 -0.0044 -0.0593
21039W        W25339  16.561   1.946   9.565 -0.0833 -0.0534 -0.2015
21040W        W25340  22.287   0.322   9.063 -0.1262  0.2146 -0.0139
21041W        W25341  21.290   2.221   9.830 -0.0403 -0.0528 -0.2006
21042W        W25342  16.980   7.023  17.747  0.1194  0.0319 -0.3784
21043W        W25343   9.628   5.050  24.899 -0.2025 -0.1350  0.0457
21044W        W25344  15.108   5.106  14.942  0.0954  0.3461  0.1754
21045W        W25345  14.640   4.568  26.271 -0.0332 -0.0723  0.3515
21046W        W25346  23.234   5.813  11.733 -0.0904 -0.1089  0.0061
21047W        W25347  22.769   2.144   6.697 -0.1433 -0.3267  0.0704
21048W        W25348  19.828   6.988  16.538 -0.0695 -0.3902  0.0641
21049W        W25349  19.278   0.173   5.279 -0.0614  0.0924 -0.1196
21050W        W25350   3.459   1.229  10.646  0.1516 -0.1237  0.2506
21051W        W25351   2.081   0.156  10.183 -0.0588  0.0922 -0.3776
21052W        W25352  22.659   6.386  22.841  0.3296  0.0011  0.1433
21053W        W25353  22.991   6.544   8.922  0.1901  0.1171 -0.1464
21054W        W25354   3.019   0.864   8.773  0.0510  0.0446  0.3058
21055W        W25355  14.315   4.169  26.451  0.2836 -0.3070  0.3255
21056W        W25356  10.713   4.585   4.190  0.2737 -0.3496 -0.0334
21057W        W25357  20.864   3.525   7.997 -0.0314  0.1339  0.0752
21058W        W25358  18.156   1.655   7.826  0.4310  0.1082 -0.2337
21059W        W25359   1.045   2.713  11.576 -0.1291 -0.1487 -0.3199
21060W        W25360  24.869   6.212  10.582 -0.1118 -0.1313 -0.0592
21061W        W25361  23.088   5.465  22.638 -0.1487 -0.0045 -0.3065
21062W        W25362  14.448   2.490  20.341  0.0397 -0.2320 -0.2442
21063W        W25363  10.641   1.853  25.663  0.2171  0.0050 -0.1335
21064W        W25364  16.163   0.349  18.125 -0.1755 -0.1637 -0.4423
21065W        W25365  22.737   0.299  21.614  0.2730 -0.1086 -0.0845
21066W        W25366  20.444   1.166  28.054 -0.0270  0.0015  0.0833
21067W        W25367  16.378   6.965  19.896 -0.0498  0.3771  0.3352
21068W        W25368   1.164   0.612  16.941 -0.0877 -0.0913 -0.0150
21069W        W25369  20.871   0.842   7.699  0.3234 -0.0157  0.0446
21070W        W25370   6.956   2.215  12.151 -0.0351 -0.0214 -0.0085
21071W        W25371  10.986   2.836  32.554  0.1029  0.3157  0.1349
21072W        W25372   9.898   4.043  11.772 -0.0051  0.0925 -0.0457
21073W        W25373   2.360   7.388   3.885  0.0136  0.1429 -0.2895
21074W        W25374  24.539   2.083  15.858 -0.0617 -0.1146 -0.0389
21075W        W25375   6.674   0.659  32.025 -0.0139 -0.2606  0.0759
21076W        W25376   6.812   3.609  28.700  0.2400 -0.0693  0.0399
21077W        W25377   9.210   3.351  29.060  0.1144 -0.1225 -0.2367
21078W        W25378  11.568   0.564  30.555 -0.2038 -0.0331  0.0850
21079W        W25379  18.809   2.700   5.308  0.1636 -0.2560  0.0143
21080W        W25380  18.274   2.258  26.774  0.0712 -0.3086  0.0297
21081W        W25381  12.767   3.506  31.082  0.1480  0.0290  0.2132
21082W        W25382   0.955   4.734   6.636 -0.0967  0.1007  0.2489
21083W        W25383  21.446   4.724  17.796 -0.0445 -0.0044  0.4232
21084W        W25384  18.086   4.332  18.920  0.0880 -0.3197  0.2651
21085W        W25385  10.187   0.804   7.156 -0.4526  0.1793  0.0366
21086W        W25386   1.065   4.612   8.798 -0.3049  0.2853 -0.1148
21087W        W25387  17.930   4.294   9.121  0.2115  0.1794  0.1825
21088W        W25388   5.240   5.389   2.754  0.0605  0.2169  0.1978
21089W        W25389   2.271   0.390   9.099 -0.4116 -0.1556  0.1837
21090W        W25390   4.876   2.153   7.773  0.0668 -0.4057 -0.2721
21091W        W25391  24.714   3.636  25.061  0.1621 -0.0403  0.1625
21092W        W25392  23.974   3.284   5.124  0.1741  0.3567  0.1594
21093W        W25393   2.339   4.726  15.084  0.1513  0.0048  0.3498
21094W        W25394  19.520   0.934  26.754  0.1435  0.2045 -0.1951
21095W        W25395  12.165   3.566   1.062 -0.0366 -0.0291 -0.0857
21096W        W25396   1.066   3.943  26.082 -0.1815 -0.1440  0.1432
21097W        W25397   1.817   7.718  30.287 -0.2485  0.0860  0.0418
21098W        W25398   9.541   5.497   3.061  0.0450 -0.1582 -0.0580
21099W        W25399  24.525   6.933   0.093  0.1009  0.4199 -0.0913
21100W        W25400  18.619   5.252  20.679  0.0934  0.1388  0.1119
21101W        W25401   4.005   0.524  13.784  0.0758  0.3944  0.1727
21102W        W25402   4.758   5.381   9.935 -0.0385 -0.1319 -0.0130
21103W        W25403  21.102   0.972  24.099 -0.2912 -0.2305  0.0418
21104W        W25404   2.666   1.382  30.539 -0.0232 -0.1162  0.1130
21105W        W25405  11.754   2.956  18.784  0.1427 -0.2262  0.2735
21106W        W25406   7.570   2.891  14.093  0.1849 -0.0974 -0.0418
21107W        W25407  22.030   4.275   3.558  0.0387  0.1027 -0.0629
21108W        W25408  22.506   3.914   0.029  0.1956 -0.3427 -0.0864
21109W        W25409  18.461   2.132   8.654  0.0721  0.1118  0.0695
21110W        W25410   8.306   1.434  24.523  0.1011  0.2785 -0.2594
21111W        W25411   3.332   5.939   4.707  0.2006 -0.1727 -0.0743
21112W        W25412   8.281   5.688  22.269 -0.3629  0.0096  0.4401
21113W        W25413  10.887   4.563   9.374 -0.0033  0.1003 -0.0013
21114W        W25414   0.292   4.361  10.361 -0.1297 -0.2072  0.1641
21115W        W25415  22.281   0.680  32.388  0.1028  0.2256  0.0387
21116W        W25416  16.743   6.176   7.568 -0.0456  0.1379 -0.2569
21117W        W25417   1.851   0.445  12.310  0.1020  0.0732  0.2203
21118W        W25418  15.514   2.224  14.425  0.1854 -0.2643  0.1440
21119W        W25419   4.651   5.033  30.568 -0.1773 -0.0302 -0.1480
21120W        W25420   2.378   4.345  13.621 -0.3666  0.0537 -0.1409
21121W        W25421   6.704   0.785  26.892  0.0745 -0.0711  0.1929
21122W        W25422   7.285   6.864  32.339 -0.1133  0.2823  0.3526
21123W        W25423   2.377   3.978   9.703  0.2649 -0.0759 -0.1374
21124W        W25424  16.404   4.514   0.685 -0.4290 -0.0197  0.0874
21125W        W25425  20.768   3.179  21.298  0.2350 -0.1811  0.1713
21126W        W25426  16.960   5.535  24.740 -0.2125  0.1339  0.0208
21127W        W25427  20.410   1.356   8.157 -0.0312 -0.0508  0.2200
21128W        W25428   0.827   4.029  22.200 -0.2189 -0.0258 -0.4397
21129W        W25429  19.978   2.269  16.298 -0.2624  0.2334  0.4507
21130W        W25430  12.427   3.687  19.398  0.0408 -0.3169 -0.2851
21131W        W25431  13.339   3.319  20.829  0.0102  0.0609  0.1580
21132W        W25432  21.419   1.553  11.909  0.3289  0.1325  0.3452
21133W        W25433  10.512   1.792  11.580 -0.2609 -0.2214 -0.1156
21134W        W25434   4.285   7.773  23.378  0.0708  0.3102  0.4007
21135W        W25435   6.473   7.474  25.533 -0.0473 -0.1533  0.2154
21136W        W25436  18.854   5.476   9.857  0.1950  0.0765  0.0051
21137W        W25437   5.579   4.330   9.733 -0.1510 -0.0608  0.2356
21138W        W25438  18.542   2.628  31.853  0.1251  0.1646  0.0038
21139W        W25439  21.055   5.727  24.393 -0.2105 -0.0682  0.0805
21140W        W25440   9.039   1.023  11.729 -0.1550 -0.0309 -0.3293
21141W        W25441  23.038   4.146  12.621  0.1974  0.1320 -0.2211
21142W        W25442   0.330   5.075   0.205 -0.1704  0.0146  0.0551
21143W        W25443   0.045   0.259   1.481  0.0431 -0.1297  0.1489
21144W        W25444   8.035   1.466  28.417  0.0223  0.0614 -0.4092
21145W        W25445  15.295   0.620  14.712  0.1177 -0.2433 -0.4551
21146W        W25446   1.559   4.542   0.113 -0.0805 -0.2011 -0.1575
21147W        W25447   1.522   1.266  14.709  0.0100  0.1347  0.1705
21148W        W25448   5.084   0.037   0.616 -0.0212  0.1663 -0.3137
21149W        W25449  18.890   7.235  18.610  0.3940 -0.1075  0.1343
21150W        W25450   1.321   6.704  12.412  0.1817  0.0098  0.0930
21151W        W25451   4.459   5.612  29.672  0.0284  0.0138 -0.1349
21152W        W25452   3.122   5.394   1.063 -0.2409  0.1332 -0.0103
21153W        W25453   1.666   4.501  11.182  0.0695 -0.0928  0.0378
21154W        W25454   2.981   0.406   9.780  0.2059 -0.0341  0.0955
21155W        W25455  16.000   0.453   0.350  0.2268  0.0445  0.2837
21156W        W25456   7.128   1.681   8.074  0.0341 -0.1374 -0.0246
21157W        W25457  14.640   3.469  18.676 -0.0023 -0.0795 -0.0418
21158W        W25458   9.335   1.883   0.660 -0.3025  0.2311  0.0734
21159W        W25459  13.178   6.071  32.977  0.0038  0.2439 -0.0270
21160W        W25460  20.380   7.311  23.570  0.1633  0.1055  0.0897
21161W        W25461  15.712   5.332  24.357 -0.0799 -0.0174 -0.0087
21162W        W25462   0.434   3.396   0.533  0.1495 -0.0885 -0.0099
21163W        W25463   2.504   0.717  30.046  0.3821  0.0681  0.1011
21164W        W25464   5.037   1.870  32.789 -0.2581  0.3206  0.0185
21165W        W25465  23.465   5.511  23.193  0.1635 -0.0269  0.0662
21166W        W25466  21.647   6.074  21.733 -0.1816 -0.0055  0.1384
21167W        W25467  20.381   2.587   8.867  0.3986 -0.1361 -0.0757
21168W        W25468  14.553   5.749   1.947 -0.4111  0.0496 -0.1799
21169W        W25469  19.755   0.148   9.755  0.0910 -0.1432 -0.1154
21170W        W25470  15.123   3.922  21.904  0.1539 -0.0433 -0.1945
21171W        W25471  15.649   0.780  23.319  0.0883 -0.3249  0.0918
21172W        W25472   5.995   5.742  14.174 -0.2034  0.1152  0.0588
21173W        W25473   8.527   6.222   7.453 -0.2076 -0.2669  0.2017
21174W        W25474  14.375   2.885   9.632  0.2598 -0.0031 -0.0726
21175W        W25475  16.797   5.511  29.096  0.0763  0.1377 -0.0207
21176W        W25476  16.658   0.661   6.550  0.2252  0.1917  0.2772
21177W        W25477   6.669   7.211  13.370 -0.1695  0.1945  0.2502
21178W        W25478   6.539   7.046   3.300 -0.0996 -0.5194 -0.0494
21179W        W25479   1.105   2.424   6.842 -0.0840  0.0344 -0.0270
21180W        W25480   2.579   2.560  10.783  0.2018  0.1516  0.0962
21181W        W25481   0.217   0.406   8.316 -0.2599 -0.0652  0.1412
21182W        W25482   1.289   0.766  30.213 -0.1303 -0.1785  0.0715
21183W        W25483   4.659   0.840  12.629  0.1932 -0.2805  0.0814
21184W        W25484  13.442   0.826  19.441  0.0873  0.0922  0.0021
21185W        W25485  12.421   1.304   4.225  0.0894 -0.1903 -0.1799
21186W        W25486  14.282   2.062  32.337  0.0318  0.1312  0.0984
21187W        W25487  22.231   3.432  12.795  0.4111  0.1998 -0.4104
21188W        W25488   1.233   0.884  11.866  0.0189  0.0550 -0.0649
21189W        W25489   2.292   4.215  29.631 -0.0272  0.1634  0.2516
21190W        W25490   9.058   5.704  27.747 -0.0375 -0.0777 -0.4173
21191W        W25491  19.156   6.259   5.296 -0.0713 -0.0043  0.1405
21192W        W25492  18.415   5.702   2.453 -0.0495 -0.1760  0.3398
21193W        W25493  24.726   5.529  14.308 -0.2880 -0.2162 -0.1612
21194W        W25494  24.029   0.180  28.488  0.0066 -0.0043  0.0526
21195W        W25495   2.511   2.234  14.788 -0.0970  0.2765  0.1604
21196W        W25496  17.664   1.326  26.472  0.0771 -0.3328  0.1417
21197W        W25497  18.311   6.742   5.122  0.1486  0.0826 -0.0245
21198W        W25498  22.848   0.708  27.973  0.0157 -0.0667 -0.2190
21199W        W25499   5.185   4.277  30.816 -0.1590 -0.1173  0.0187
21200W        W25500   6.491   0.937   0.771 -0.3530 -0.1070  0.1350
21201W        W25501  18.423   0.232   4.092 -0.0552 -0.3183  0.2039
21202W        W25502   6.468   3.833  12.031  0.0381  0.0368 -0.0479
21203W        W25503  18.695   2.438   3.568 -0.0744  0.0918  0.0672
21204W        W25504  21.752   4.238   1.057 -0.1500 -0.0109 -0.1503
21205W        W25505   4.492   1.017   2.035 -0.0688 -0.1264 -0.0841
21206W        W25506  20.323   1.072  24.237  0.0544  0.1139  0.0533
21207W        W25507  24.854   2.918   0.657  0.2361 -0.1475 -0.0946
21208W        W25508  23.569   7.171   1.594  0.0660 -0.1181 -0.3855
21209W        W25509   6.114   5.059  27.550  0.1481  0.1177  0.0359
21210W        W25510  20.926   5.502  21.933 -0.0323  0.1135  0.0323
21211W        W25511   8.451   2.130   7.962 -0.1453  0.2922  0.1879
21212W        W25512   1.630   2.285   5.914 -0.2508  0.0700  0.0928
21213W        W25513   9.736   4.041  25.712 -0.0696 -0.0829  0.5771
21214W        W25514   5.403   2.213  15.738 -0.2659 -0.0679  0.0315
21215W        W25515   1.272   4.269  31.638 -0.1826  0.4311 -0.1837
21216W        W25516   2.261   2.349  24.969 -0.0578 -0.2415  0.1961
21217W        W25517  23.120   5.071  13.880  0.0205 -0.0967  0.1291
21218W        W25518  22.650   3.763   5.380  0.0938 -0.3010  0.1910
21219W        W25519   7.125   4.743  30.766  0.0146  0.0053  0.0259
21220W        W25520   6.599   4.469  11.285 -0.0822 -0.0897 -0.0420
21221W        W25521  18.147   3.198  27.267 -0.2185 -0.0101  0.0044
21222W        W25522  13.761   5.804  26.391 -0.4238 -0.1117  0.0846
21223W        W25523   8.695   0.952  28.682 -0.2815  0.0975 -0.1156
21224W        W25524   8.504   4.397  10.461 -0.0078 -0.1508  0.0286
21225W        W25525  22.384   0.807   4.641 -0.1817  0.2327 -0.1850
21226W        W25526  12.565   5.738  10.611 -0.0651 -0.2678 -0.0267
21227W        W25527   8.684   4.695  10.922 -0.0438 -0.1565  0.0693
21228W        W25528  21.234   3.799  32.436 -0.0909 -0.0744 -0.2577
21229W        W25529  10.846   6.211   0.429 -0.1061  0.3549  0.2439
21230W        W25530   0.906   0.222  14.868  0.2164 -0.4478  0.0307
21231W        W25531  13.609   5.092   8.867 -0.3867 -0.3092  0.0467
21232W        W25532  17.898   0.655  25.088 -0.2060  0.1629 -0.2678
21233W        W25533   9.923   7.736  22.194  0.0764  0.0996  0.1208
21234W        W25534  19.081   4.298  16.014  0.0678 -0.0391  0.2777
21235W        W25535   9.995   6.363   1.007  0.1311 -0.1143 -0.2379
21236W        W25536   2.470   2.992   6.924 -0.4672 -0.2139  0.0856
21237W        W25537  14.076   6.177  18.993  0.0875  0.2785  0.0622
21238W        W25538  12.911   0.818  25.654  0.1310  0.0269 -0.1654
21239W        W25539  14.122   0.386   8.607 -0.1775 -0.0378 -0.1629
21240W        W25540   7.601   7.185   5.372  0.0794  0.0801 -0.1182
21241W        W25541   0.564   4.865   6.313  0.0264 -0.1011  0.1313
21242W        W25542  10.573   2.710   7.444  0.2345  0.3752  0.2227
21243W        W25543  11.368   5.745   6.018 -0.0237  0.1015 -0.0615
21244W        W25544  12.504   5.086  26.638 -0.0018  0.1930 -0.0083
21245W        W25545   8.203   0.148  24.716  0.0604 -0.3637  0.1873
21246W        W25546  13.807   6.900  16.271 -0.2043  0.2013 -0.0490
21247W        W25547  15.823   2.390  21.143  0.1727  0.2319  0.1884
21248W        W25548  14.776   1.395  24.878  0.2493  0.1090 -0.0582
21249W        W25549   3.963   7.693  32.712  0.0540  0.0679  0.0367
21250W        W25550   3.298   3.968  12.091  0.1150  0.0140 -0.2341
21251W        W25551   4.435   3.679   5.988  0.2521  0.2781  0.0330
21252W        W25552  22.214   5.019  27.847  0.1393  0.2628 -0.1506
21253W        W25553  15.809   0.505   1.475  0.1870 -0.1541  0.1230
21254W        W25554  16.270   7.360  15.085 -0.0495 -0.1671  0.0497
21255W        W25555   1.580   0.855   8.818 -0.0417 -0.0298 -0.0592
21256W        W25556   6.026   1.266   7.058  0.1607 -0.2448 -0.1036
21257W        W25557  15.143   1.413  29.085 -0.0098  0.3520 -0.1228
21258W        W25558  24.600   1.248  14.281 -0.1598  0.0744  0.0835
21259W        W25559  20.357   1.106   9.762  0.0515  0.0220  0.0110
21260W        W25560   3.333   6.332  11.962 -0.0359 -0.1408 -0.0715
21261W        W25561   6.090   2.944  17.064  0.2503 -0.1937  0.1152
21262W        W25562   3.957   2.381  18.214  0.1408  0.1494 -0.1097
21263W        W25563  19.838   2.247  31.588 -0.0631  0.2009 -0.0287
21264W        W25564  11.551   0.704   9.247 -0.1488 -0.0220 -0.1831
21265W        W25565  13.862   2.088  10.924 -0.0094  0.0700  0.0360
21266W        W25566  11.932   5.624   2.154 -0.4291 -0.2227 -0.0507
21267W        W25567  10.268   0.036   4.384  0.0267 -0.1626  0.0757
21268W        W25568   7.044   1.516   6.825 -0.1059 -0.0671  0.3479
21269W        W25569   5.233   0.265  25.547  0.2312 -0.2390 -0.2835
21270W        W25570  24.273   4.672  14.002 -0.3434 -0.2199 -0.1265
21271W        W25571   8.218   3.542  23.620 -0.0101 -0.0206  0.0545
21272W        W25572  14.089   1.440   1.117  0.0671  0.1015 -0.0184
21273W        W25573   3.317   6.846  22.157 -0.2307  0.2739 -0.0360
21274W        W25574  22.884   7.157  27.414 -0.1906  0.0038  0.0419
21275W        W25575  18.065   6.007  23.896 -0.0595 -0.0410 -0.3704
21276W        W25576  15.561   6.172  16.145  0.2060  0.2777 -0.0568
21277W        W25577  23.198   3.711   6.594 -0.0148 -0.0029 -0.0486
21278W        W25578   3.759   2.604  27.862  0.0793 -0.2176 -0.2321
21279W        W25579   6.193   4.525  14.966 -0.0826 -0.1878 -0.0159
21280W        W25580  11.585   6.901   6.531  0.2319  0.2686 -0.1966
21281W        W25581   1.692   3.318   2.565 -0.0799  0.1810 -0.0114
21282W        W25582   1.696   4.345  12.530  0.2825  0.0729 -0.0533
21283W        W25583  14.867   6.334   1.256  0.0276  0.1682  0.1706
21284W        W25584  12.691   5.340   3.208  0.1532 -0.1476 -0.2994
21285W        W25585   1.039   0.702   8.810  0.1320 -0.2053  0.2263
21286W        W25586   2.716   4.288  25.554 -0.0333 -0.2190  0.0708
21287W        W25587  21.673   0.773   5.463 -0.0810  0.1388  0.0680
21288W        W25588   7.326   3.396   4.433  0.0964 -0.1854 -0.0040
21289W        W25589  22.231   6.103  12.177 -0.0042 -0.1315  0.0099
21290W        W25590  24.464   2.749   7.503 -0.0942 -0.1658  0.1370
21291W        W25591  14.879   1.010  16.527 -0.1650  0.1091 -0.0807
21292W        W25592   4.318   1.499  11.866  0.1217  0.0177 -0.2095
21293W        W25593   2.012   5.189  32.213  0.0415 -0.0975 -0.0935
21294W        W25594  21.059   2.193   3.917  0.2118 -0.3609 -0.1221
21295W        W25595  19.426   5.407   9.680  0.1709  0.2507  0.0339
21296W        W25596  18.718   6.314  30.632 -0.1798 -0.2429 -0.1343
21297W        W25597   0.611   2.198   3.229 -0.0646  0.1885  0.3344
21298W        W25598  23.746   5.503   8.176  0.3288  0.1682  0.1252
21299W        W25599  12.665   0.841  32.853 -0.1030 -0.0057  0.2404
21300W        W25600   0.331   2.435  13.661 -0.0777  0.0935  0.1124
21301W        W25601   5.261   6.586  11.302 -0.0078 -0.1223  0.3982
21302W        W25602   5.509   7.662  27.162  0.1223 -0.1128  0.2585
21303W        W25603   2.287   6.433  10.942 -0.2213  0.2305  0.2338
21304W        W25604  15.094   0.016  25.382 -0.0276  0.3032  0.0358
21305W        W25605   0.469   4.760  13.268  0.2092  0.1468 -0.1802
21306W        W25606  14.245   3.282   9.326 -0.0016  0.3365  0.2895
21307W        W25607  17.297   6.207  20.793  0.1805  0.1442  0.1737
21308W        W25608  22.241   3.650  11.648  0.0504 -0.1854 -0.0537
21309W        W25609  21.423   6.143   9.620 -0.2657 -0.0923  0.2687
21310W        W25610  14.021   0.505  21.558 -0.0153 -0.0964 -0.0030
21311W        W25611   5.495   7.102  13.743 -0.0961 -0.1035  0.0004
21312W        W25612  15.156   3.558   9.319  0.3167 -0.1020  0.1538
21313W        W25613   7.522   5.801   8.990 -0.2532 -0.0541 -0.0302
21314W        W25614  15.930   2.899   5.792  0.0591 -0.1287  0.0720
21315W        W25615  18.025   4.888  29.980  0.2310 -0.0281 -0.2134
21316W        W25616   2.970   0.459  10.270  0.4057  0.2755 -0.1798
21317W        W25617  22.760   4.559  32.471 -0.0237  0.0827  0.3396
21318W        W25618  22.598   3.285   1.120  0.0440 -0.0831  0.1751
21319W        W25619  23.477   2.652  23.535 -0.3508  0.0406 -0.1504
21320W        W25620   2.653   4.527  29.085  0.1475 -0.3107  0.1444
21321W        W25621   9.353   3.913  21.431 -0.0607  0.1139 -0.0832
21322W        W25622  22.819   4.718   8.503 -0.0592  0.2605  0.2685
21323W        W25623  15.100   4.186  29.636  0.0675  0.2354  0.3763
21324W        W25624   1.297   7.780  17.039  0.1533 -0.2816  0.0138
21325W        W25625  10.772   2.636  25.897  0.0339 -0.0189 -0.3484
21326W        W25626   3.392   4.034  16.494  0.0035 -0.0394  0.0250
21327W        W25627  11.226   2.073   7.338  0.3254  0.0489 -0.0962
21328W        W25628  21.617   4.066  24.306  0.0237 -0.0744  0.2446
21329W        W25629  12.318   6.180  27.789  0.0090  0.0329  0.0104
21330W        W25630   6.552   5.819  17.918 -0.3163  0.0859  0.1852
21331W        W25631  13.176   4.555  22.080  0.0311 -0.0609  0.0346
21332W        W25632  16.506   1.691  31.393  0.2969  0.0349  0.1513
21333W        W25633  11.775   3.461  30.316  0.1005  0.1429  0.2316
21334W        W25634  21.235   5.941  29.404  0.0501  0.2389 -0.2527
21335W        W25635  18.335   3.724   6.190  0.1249 -0.0541 -0.2442
21336W        W25636  16.933   6.904  21.420 -0.1200  0.2025  0.3691
21337W        W25637  15.831   5.095  31.184  0.0059 -0.0066 -0.3245
21338W        W25638  13.799   0.890  18.074 -0.0099 -0.1647  0.0379
21339W        W25639   3.102   4.646   9.221  0.0434  0.1315 -0.0010
21340W        W25640  18.546   4.526   4.989 -0.0207 -0.2496 -0.1284
21341W        W25641  15.672   7.488  32.642  0.0162  0.1612  0.2322
21342W        W25642  22.888   1.874  27.744 -0.0811 -0.0176 -0.3968
21343W        W25643  12.620   4.169   5.619  0.2062 -0.2978 -0.3683
21344W        W25644   2.024   5.566  29.879 -0.1862  0.1802  0.2846
21345W        W25645  15.775   7.499   2.360 -0.1369  0.1674 -0.0212
21346W        W25646  23.520   0.423  12.968 -0.1674  0.2640 -0.0568
21347W        W25647   6.701   3.479  25.602  0.2546 -0.1521 -0.3406
21348W        W25648  23.060   2.197  23.392  0.2563  0.0560 -0.2548
21349W        W25649   5.613   2.822   6.723  0.3018  0.1997  0.2500
21350W        W25650   9.047   3.721  13.685 -0.4227 -0.0899 -0.0459
21351W        W25651  21.358   2.025   4.939 -0.0114  0.0154  0.1588
21352W        W25652  18.147   4.218   6.679 -0.0772  0.1665 -0.0307
21353W        W25653  13.812   2.001  29.229  0.0208  0.1427 -0.0950
21354W        W25654   1.777   0.833   8.349 -0.2983 -0.2436  0.0217
21355W        W25655   4.966   3.969   5.246  0.0926  0.0583  0.2259
21356W        W25656  11.993   6.053   7.844  0.0945 -0.1979  0.0270
21357W        W25657   5.988   7.000  29.262 -0.2875 -0.1105  0.1398
21358W        W25658  15.951   5.364  25.487 -0.2225 -0.0880 -0.1500
21359W        W25659  17.344   5.262  30.761  0.0043  0.2416 -0.2853
21360W        W25660   8.080   4.421  31.016 -0.3158  0.0656 -0.2649
21361W        W25661  16.025   4.751   0.901 -0.0993  0.0071 -0.0605
21362W        W25662  13.416   3.579  31.106  0.1334 -0.2338 -0.1341
21363W        W25663  22.160   2.983   3.118  0.2928 -0.0574  0.2703
21364W        W25664   6.041   2.327  12.913  0.1403  0.0067 -0.1185
21365W        W25665  21.878   7.559   7.531 -0.0253  0.3234  0.1501
21366W        W25666  13.617   3.143   4.134  0.1245  0.1978 -0.0040
21367W        W25667  23.480   1.778  13.613 -0.0262  0.3799  0.2108
21368W        W25668  21.617   7.271  24.126 -0.1477  0.0047 -0.2745
21369W        W25669   0.554   4.290   3.920  0.1085  0.0336  0.0002
21370W        W25670  21.801   7.707   1.416 -0.0275  0.1237  0.1538
21371W        W25671   6.464   3.566   9.961  0.4794 -0.3931  0.2348
21372W        W25672  20.106   4.520   8.871  0.0344 -0.1569 -0.1216
21373W        W25673  24.542   5.061   5.570 -0.2071 -0.1989 -0.0333
21374W        W25674   2.838   4.157  12.381 -0.1955 -0.2332  0.3911
21375W        W25675  22.142   1.709  31.345  0.0521 -0.0448  0.0642
21376W        W25676   2.122   3.572  27.442  0.0556 -0.1661  0.1249
21377W        W25677  18.352   0.484  29.191 -0.0307 -0.0656  0.0031
21378W        W25678   5.172   0.846  11.675 -0.0348 -0.1688  0.2272
21379W        W25679  22.443   1.211  26.396 -0.0354 -0.2773 -0.1686
21380W        W25680  12.876   6.733  19.586 -0.1650 -0.0040 -0.0287
21381W        W25681  18.699   4.885   7.763 -0.1593  0.0539 -0.2179
21382W        W25682   0.064   3.343  27.949 -0.3838 -0.0839  0.1636
21383W        W25683  10.326   6.768   7.518  0.1059 -0.1573  0.0550
21384W        W25684   0.437   4.080  30.153  0.1311  0.3566 -0.2695
21385W        W25685   4.849   6.010  15.692 -0.0013 -0.0831 -0.0894
21386W        W25686   7.716   1.122  13.233  0.0279 -0.0845 -0.0343
21387W        W25687  17.639   3.704   2.188 -0.3793  0.1414 -0.1566
21388W        W25688  15.208   3.621  21.020 -0.1898 -0.2691  0.0458
21389W        W25689  18.146   5.097   7.856  0.1540  0.2405 -0.0358
21390W        W25690  10.127   5.436   1.209 -0.0366 -0.0030  0.0618
21391W        W25691   0.798   4.390  10.355  0.4658  0.2200 -0.0927
21392W        W25692  23.472   2.245  13.521  0.3110  0.6731 -0.3012
21393W        W25693  13.229   5.598  27.094 -0.1032  0.1743 -0.0075
21394W        W25694  13.696   6.810   0.659 -0.2072  0.2330  0.0270
21395W        W25695  21.048   1.341  20.768  0.0802 -0.0818  0.0696
21396W        W25696  22.263   4.110   5.460 -0.1003 -0.2233 -0.0104
21397W        W25697  16.348   0.236  23.329 -0.0676  0.6109 -0.0889
21398W        W25698   1.347   5.428  31.681 -0.0597 -0.0069  0.0976
21399W        W25699   2.529   3.777   3.056  0.1520 -0.3829  0.1229
21400W        W25700  13.884   5.153   5.372 -0.0248 -0.0680 -0.0380
21401W        W25701   6.256   0.410  13.301  0.2137 -0.1986 -0.0000
21402W        W25702   6.356   2.882   2.110 -0.0773 -0.0244 -0.1284
21403W        W25703  16.145   3.301  32.963  0.0358  0.2297  0.0642
21404W        W25704  20.579   4.395  25.828  0.2194 -0.1934 -0.1213
21405W        W25705   1.020   5.938  15.446  0.3705 -0.1074  0.0775
21406W        W25706   6.624   1.924  31.378  0.1909 -0.1585  0.1094
21407W        W25707   1.392   2.886   0.561  0.0937  0.0585  0.2673
21408W        W25708  22.372   6.800  25.157 -0.0467 -0.0055 -0.1545
21409W        W25709  13.913   2.094  10.404 -0.2536 -0.1926  0.1581
21410W        W25710   3.388   5.894  23.377  0.0452 -0.0299  0.1856
21411W        W25711   3.266   5.094  17.483 -0.0567  0.0649 -0.1351
21412W        W25712  19.899   7.035   2.588  0.0303 -0.2120  0.0083
21413W        W25713   7.710   3.568   7.201 -0.0395  0.0727 -0.0517
21414W        W25714   8.225   6.271  31.064  0.0088 -0.1144 -0.0836
21415W        W25715  10.667   5.417   8.009 -0.1898  0.1185 -0.3131
21416W        W25716  16.321   6.532  23.026 -0.5713  0.4506  0.1189
21417W        W25717   2.360   2.618  29.220 -0.4196  0.2229  0.1551
21418W        W25718  22.503   6.501   8.863  0.1694  0.0493 -0.1732
21419W        W25719  18.748   1.057  10.891 -0.3408 -0.0408 -0.0955
21420W        W25720   8.620   4.204  12.000  0.1233 -0.0671 -0.0099
21421W        W25721  17.823   5.911   7.854 -0.1610  0.0375  0.0761
21422W        W25722   4.936   2.096   9.192 -0.0125  0.0122 -0.1033
21423W        W25723   2.032   5.297  25.972 -0.1782  0.1065 -0.0058
21424W        W25724   0.287   1.322  32.265 -0.0822  0.6046  0.3126
21425W        W25725   9.600   6.811  29.817  0.1694  0.3348 -0.0018
21426W        W25726   8.342   3.542   3.539  0.0821  0.1900  0.0715
21427W        W25727  20.752   3.877   7.719  0.1257  0.1333 -0.0963
21428W        W25728  14.236   3.005  20.029  0.1304 -0.1167  0.0325
21429W        W25729   4.834   0.033  24.969 -0.3760  0.0288 -0.0587
21430W        W25730   9.064   7.054  27.563 -0.2464  0.0745  0.3778
21431W        W25731  11.263   2.044  24.095  0.0942  0.0311  0.0156
21432W        W25732   7.422   3.914   0.580 -0.1125 -0.2791 -0.2523
21433W        W25733   9.120   1.197  12.998  0.0437 -0.0367 -0.0608
21434W        W25734   5.844   0.179   1.840  0.2236  0.0455 -0.2411
21435W        W25735   1.646   3.347   1.210 -0.1197 -0.0814  0.2739
21436W        W25736  17.839   4.532  15.389  0.2197 -0.1284 -0.2841
21437W        W25737   6.095   1.734  26.684 -0.1400  0.0839  0.0835
21438W        W25738  18.894   5.870  30.510 -0.1036  0.1322 -0.2144
21439W        W25739   4.193   2.850  15.938 -0.1856 -0.0559 -0.2279
21440W        W25740  12.274   7.032   0.538 -0.0459  0.1012  0.0972
21441W        W25741  22.111   4.053   3.126  0.0612  0.4894 -0.0800
21442W        W25742  18.968   1.813   9.870 -0.2868  0.0490 -0.0479
21443W        W25743   8.650   2.512   8.844  0.0039  0.0333  0.1015
21444W        W25744   1.984   2.788  11.554  0.0232  0.1410 -0.1215
21445W        W25745  21.093   3.897   0.821  0.0382 -0.1941  0.1523
21446W        W25746  21.926   6.059  10.882  0.3798 -0.1751  0.2440
21447W        W25747  21.377   6.882  10.660  0.0654 -0.2341  0.2333
21448W        W25748   2.271   0.849  16.525 -0.1167 -0.0614 -0.0832
21449W        W25749   1.514   2.807  32.465 -0.2626  0.0651 -0.0886
21450W        W25750  18.847   0.586  26.534 -0.0127  0.1574 -0.3157
21451W        W25751   8.982   6.826  10.634 -0.1537  0.0533 -0.3163
21452W        W25752   7.197   5.178  16.455  0.1695  0.0614 -0.0859
21453W        W25753  17.917   6.128  14.765 -0.2844 -0.0801 -0.0315
21454W        W25754   1.154   4.288   6.582  0.2903  0.1502  0.1664
21455W        W25755  11.935   5.337   1.345  0.0370  0.4449  0.0556
21456W        W25756   1.079   2.036  15.070  0.1602 -0.0155  0.0473
21457W        W25757  24.100   6.471  14.972  0.0941  0.1203  0.2066
21458W        W25758  19.919   7.472  19.837 -0.0321  0.2879 -0.0960
21459W        W25759  10.269   5.370  10.172  0.0018  0.2117  0.0078
21460W        W25760  12.436   7.475  29.345 -0.1055 -0.0416  0.2764
21461W        W25761   3.395   7.387  30.759 -0.0803  0.0818  0.4095
21462W        W25762  10.808   6.005  10.048 -0.1983 -0.1047 -0.0800
21463W        W25763  22.478   7.139   2.267 -0.0430 -0.0731  0.0844
21464W        W25764   4.975   6.377  17.498 -0.2237  0.0557  0.0313
21465W        W25765  15.179   6.340  23.480 -0.3098  0.1542 -0.1200
21466W        W25766   0.230   0.832  12.890  0.0501  0.1325  0.0543
21467W        W25767   1.472   2.963  29.799  0.1682  0.0401  0.3609
21468W        W25768  19.832   5.908  17.608  0.2489  0.1198 -0.0790
21469W        W25769  14.435   1.861  27.422  0.0312 -0.0186  0.0219
21470W        W25770  24.517   3.102  27.856  0.2657  0.0954  0.1535
21471W        W25771   9.171   6.110  24.423 -0.2397  0.2019  0.3006
21472W        W25772  12.802   0.368   8.561  0.1739 -0.0769 -0.3854
21473W        W25773  18.665   3.699  17.412 -0.1537 -0.0774 -0.1008
21474W        W25774  22.131   3.794  21.786  0.1222  0.1686  0.0611
21475W        W25775  14.807   1.323   9.127  0.0513 -0.2144  0.0725
21476W        W25776   0.724   2.688  26.091  0.1001  0.1813  0.0754
21477W        W25777  24.252   5.524   9.137 -0.1421 -0.1605 -0.1205
21478W        W25778  16.260   7.665   9.152  0.0940  0.1419 -0.1960
21479W        W25779  15.247   7.145  18.419 -0.1674 -0.0704 -0.3191
21480W        W25780  23.140   2.240  12.076 -0.0366 -0.2000  0.3607
21481W        W25781   8.299   6.617  24.445 -0.0564 -0.0839 -0.3473
21482W        W25782  10.526   6.164   4.283 -0.0781  0.3478  0.0774
21483W        W25783  20.183   4.316  32.924 -0.0196 -0.1392 -0.0728
21484W        W25784   6.221   2.662  11.698 -0.3737  0.2468 -0.2710
21485W        W25785  22.363   7.455   3.476  0.3525  0.0418 -0.1196
21486W        W25786   7.757   7.152  13.339 -0.1884 -0.0916 -0.1286
21487W        W25787  17.162   3.106   5.528 -0.0279  0.1004 -0.1156
21488W        W25788   0.658   2.452   8.387 -0.1421 -0.1409 -0.3116
21489W        W25789  24.910   6.410  14.830 -0.1033 -0.0622  0.2118
21490W        W25790  11.021   5.539   9.939  0.0562 -0.0947 -0.1106
21491W        W25791   8.391   4.073  23.483  0.0522 -0.0361  0.0253
21492W        W25792   1.492   7.513  14.325  0.1102  0.2289 -0.3561
21493W        W25793  17.802   4.796   4.902  0.1098 -0.3155  0.0904
21494W        W25794   6.256   5.711  27.693 -0.1249  0.0850 -0.0719
21495W        W25795   5.080   4.679   4.709  0.2766 -0.2982 -0.1118
21496W        W25796  16.811   0.510  31.164 -0.2287  0.4623  0.3641
21497W        W25797  15.243   1.643  19.060 -0.1650  0.2785 -0.1528
21498W        W25798   8.283   0.228  25.307 -0.1428 -0.0994  0.2485
21499W        W25799   5.279   5.442  30.829 -0.0079  0.0473  0.2492
21500W        W25800   3.469   3.094  11.228  0.0973 -0.0370 -0.1849
21501W        W25801  23.441   7.067  24.768 -0.0677  0.0657 -0.0683
21502W        W25802  21.579   6.083   4.647  0.1882  0.2415 -0.2884
21503W        W25803   2.418   0.781   6.605  0.1652 -0.3465 -0.0209
21504W        W25804  13.991   6.887  20.391 -0.1917 -0.0376 -0.0716
21505W        W25805   7.739   7.278  25.484  0.3690 -0.1367 -0.1109
21506W        W25806  24.316   7.467   1.378  0.0937 -0.0546 -0.5929
21507W        W25807   9.536   0.368  24.491  0.1932  0.1679  0.1601
21508W        W25808   8.265   2.223  27.632  0.0435 -0.0709  0.1314
21509W        W25809  23.943   6.017  13.915 -0.0781  0.0200  0.2699
21510W        W25810  14.421   6.117   5.406  0.2017  0.2407  0.1123
21511W        W25811  10.111   6.838  21.244  0.0833 -0.2384 -0.1354
21512W        W25812   4.070   0.393  13.353 -0.1359  0.2008  0.1347
21513W        W25813  13.736   3.872  23.111  0.2210 -0.3731  0.1862
21514W        W25814   8.433   0.647  11.819  0.1109 -0.2519  0.2473
21515W        W25815   1.905   1.547  23.549  0.1152 -0.2673  0.2162
21516W        W25816  17.632   5.395  32.961 -0.1100 -0.0142  0.0478
21517W        W25817   2.575   0.974   0.774 -0.1050 -0.4402 -0.1134
21518W        W25818   9.619   4.930   2.068 -0.0888  0.0004 -0.2497
21519W        W25819  11.604   6.477  19.325  0.0608  0.0425  0.0259
21520W        W25820  16.498   1.538   3.270  0.1142  0.0043  0.1707
21521W        W25821  24.055   5.044  11.842 -0.3304  0.0657  0.1079
21522W        W25822   9.419   6.533  10.261 -0.0449  0.0545 -0.2465
21523W        W25823   8.210   7.195  31.388 -0.1119  0.0184 -0.3191
21524W        W25824   6.631   7.272  28.264 -0.0772 -0.2818  0.1297
21525W        W25825   6.583   2.848   7.360 -0.1734  0.1898 -0.1523
21526W        W25826  15.067   4.845   2.487 -0.0484 -0.0274 -0.2446
21527W        W25827   3.759   7.232  12.043 -0.1803  0.0637 -0.0770
21528W        W25828  20.494   7.120  26.930 -0.0036  0.2295  0.0029
21529W        W25829   1.620   6.777   4.500 -0.1540  0.2220 -0.1247
21530W        W25830  12.542   5.995  26.498  0.1901  0.0934  0.0629
21531W        W25831   8.282   1.155  13.997 -0.0070 -0.0044  0.0544
21532W        W25832   4.902   1.144   0.520 -0.2557  0.0132 -0.3200
21533W        W25833  10.507   4.534  29.767 -0.0575 -0.4383  0.1819
21534W        W25834  11.041   0.398  28.315  0.1282 -0.0918  0.3010
21535W        W25835   5.102   6.337  10.472 -0.1135 -0.0330  0.0352
21536W        W25836  24.332   2.015  24.163  0.2095  0.1051 -0.0944
21537W        W25837  11.070   6.038   4.324  0.0241  0.2087 -0.1620
21538W        W25838   5.087   3.514   3.744 -0.3887  0.1495 -0.1211
21539W        W25839  12.981   0.540  10.345 -0.1233  0.0948 -0.1344
21540W        W25840  20.725   6.313   9.710 -0.2124  0.0841 -0.1307
21541W        W25841  19.414   4.941  20.228  0.4130 -0.0380  0.0113
21542W        W25842  24.886   6.098   7.348  0.1107 -0.0907  0.0199
21543W        W25843   7.058   6.193  27.692  0.0570  0.6659 -0.0098
21544W        W25844   4.373   7.347  12.994  0.2241  0.1661  0.1035
21545W        W25845   1.415   7.444  29.830 -0.1587  0.1696 -0.5528
21546W        W25846  14.116   2.052  31.443  0.2861 -0.0667 -0.1490
21547W        W25847  21.652   0.005  10.417 -0.1724  0.1600 -0.1297
21548W        W25848  20.349   4.872   9.110  0.2349 -0.1564 -0.1363
21549W        W25849   3.787   6.498  25.726  0.1433  0.3508 -0.3262
21550W        W25850  10.109   1.719   8.627 -0.1224 -0.1098 -0.0020
21551W        W25851   8.282   5.950   0.813 -0.1379  0.2924  0.1534
21552W        W25852   1.813   0.316  13.983  0.0564 -0.0057 -0.0605
21553W        W25853  22.342   6.845  28.867 -0.0269 -0.1129 -0.1781
21554W        W25854  17.106   0.326   8.719 -0.1018 -0.2849  0.3825
21555W        W25855  11.797   3.207  21.686  0.0785  0.1855  0.0736
21556W        W25856   8.730   5.348  12.440  0.1265 -0.2872 -0.1260
21557W        W25857  18.991   4.910   2.643  0.2005 -0.0040 -0.0336
21558W        W25858  15.876   0.988   7.358 -0.1059  0.2682 -0.1193
21559W        W25859   1.716   5.831  14.841 -0.1700 -0.0115  0.2744
21560W        W25860  12.573   7.546   6.002  0.1769  0.0533  0.1584
21561W        W25861   8.037   1.451  27.002  0.0717  0.0193 -0.1412
21562W        W25862  14.131   5.313  31.302  0.0465 -0.2969 -0.4519
21563W        W25863  23.787   4.879  21.129  0.1541 -0.1942  0.1393
21564W        W25864   1.915   2.038  10.283  0.2161  0.1337  0.1384
21565W        W25865   2.513   0.562  31.876 -0.3057 -0.0928  0.2025
21566W        W25866  24.819   7.164  27.855  0.0232  0.0507 -0.3267
21567W        W25867   1.189   5.364   6.174 -0.0150  0.1088  0.0810
21568W        W25868   4.382   3.263  17.788  0.0588  0.1840 -0.0594
21569W        W25869  16.249   3.278   5.834  0.2631 -0.0715  0.1408
21570W        W25870  21.414   2.320  29.871  0.1208  0.0362 -0.2568
21571W        W25871  17.906   6.140  22.920 -0.1663  0.5148  0.2143
21572W        W25872  15.229   6.705  30.924 -0.0316 -0.1467 -0.0557
21573W        W25873  12.177   3.306  26.160 -0.1393 -0.0109 -0.0161
21574W        W25874  12.581   0.103   3.136 -0.2626  0.1591  0.0613
21575W        W25875   1.287   4.655  24.004 -0.1864  0.4044  0.0896
21576W        W25876  24.572   4.960  15.547  0.0688 -0.0837 -0.1057
21577W        W25877  11.504   5.903  26.262  0.1367  0.2626 -0.2474
21578W        W25878   5.429   6.152   1.293  0.0226 -0.2574 -0.2829
21579W        W25879  12.527   0.674   8.971  0.0531 -0.0049 -0.2470
21580W        W25880   4.124   2.641  24.073 -0.1042  0.1623 -0.1020
21581W        W25881  20.399   3.573   8.457 -0.0490  0.0284 -0.1114
21582W        W25882  24.706   5.924  23.886  0.0344  0.0201  0.0416
21583W        W25883   9.414   6.168  28.583  0.0552  0.0479 -0.0218
21584W        W25884  19.217   4.854  10.428 -0.2432 -0.0555  0.0342
21585W        W25885  22.058   5.423  26.851 -0.1529 -0.1005 -0.1167
21586W        W25886  22.913   2.991  32.987 -0.0175 -0.4867  0.2307
21587W        W25887  23.306   2.110  10.643 -0.0170 -0.0910 -0.2730
21588W        W25888   6.295   0.480   5.823 -0.0593  0.1909 -0.0268
21589W        W25889  10.679   5.774   0.096  0.1828  0.0101 -0.2757
21590W        W25890  17.770   2.603   9.870  0.0214 -0.0003 -0.0272
21591W        W25891   8.387   1.331   9.535  0.3583 -0.0791 -0.0603
21592W        W25892   8.188   5.197   2.714 -0.2046 -0.3566  0.0461
21593W        W25893  12.997   7.021  18.102  0.1880 -0.2226 -0.1326
21594W        W25894  19.599   5.867   7.126 -0.2516  0.2420  0.1254
21595W        W25895  18.354   0.890  10.186  0.1302 -0.0151 -0.1487
21596W        W25896  18.485   7.334  16.626 -0.0064  0.1105 -0.0793
21597W        W25897   5.080   6.798   8.670  0.0985 -0.1331 -0.1845
21598W        W25898  12.353   4.113  28.897 -0.1590  0.1633 -0.2810
21599W        W25899  14.457   2.186   0.106  0.0441  0.0586  0.0426
21600W        W25900   4.455   0.377  13.687  0.1419  0.1950  0.1264
21601W        W25901   7.301   6.597   8.719 -0.0982 -0.1746 -0.2703
21602W        W25902  24.391   2.589  13.946 -0.1789 -0.0749  0.1934
21603W        W25903   9.355   0.910  10.115 -0.2323  0.0998  0.2549
21604W        W25904   0.690   5.702   7.026 -0.0766 -0.2178 -0.0632
21605W        W25905  18.257   2.159  25.457 -0.2259 -0.0316  0.2172
21606W        W25906   0.896   1.547  32.871 -0.0945 -0.1217  0.1194
21607W        W25907  14.348   0.570  30.759  0.0873 -0.0441 -0.1893
21608W        W25908  11.674   2.331   7.092  0.2363 -0.1533  0.0513
21609W        W25909  17.993   0.280  20.004 -0.0220 -0.2286  0.1850
21610W        W25910   9.732   1.938  14.193 -0.0301  0.1007 -0.0957
21611W        W25911  11.433   1.058  30.742 -0.1120 -0.0716  0.1717
21612W        W25912  11.971   0.316  24.625 -0.0460 -0.3239  0.0988
21613W        W25913  19.134   0.627  24.505 -0.2580 -0.0638 -0.1332
21614W        W25914  22.891   1.972   6.228  0.1512  0.0838  0.0576
21615W        W25915   6.748   3.118  16.281  0.1539 -0.1062  0.2817
21616W        W25916  21.855   6.871  10.324  0.1385  0.1724 -0.0680
21617W        W25917   0.741   3.635  26.325 -0.0382 -0.0180  0.4382
21618W        W25918  11.829   1.675   0.433 -0.2250 -0.0510 -0.2149
21619W        W25919   9.980   5.582  21.270  0.1781  0.1865 -0.1867
21620W        W25920  16.542   7.126  21.143 -0.1004 -0.0655  0.3026
21621W        W25921   6.676   4.523   8.895  0.0255  0.2950 -0.0498
21622W        W25922  11.657   7.119   2.320  0.0348 -0.0631 -0.0237
21623W        W25923  23.138   0.503   7.837  0.0096 -0.2343  0.2307
21624W        W25924  18.230   1.392   9.332  0.0981  0.1057 -0.1296
21625W        W25925  21.363   6.918   1.626 -0.2782 -0.1409 -0.1038
21626W        W25926  12.227   4.944   9.379  0.1498 -0.2192  0.1460
21627W        W25927  10.336   7.251  24.190 -0.0599 -0.3194 -0.0878
21628W        W25928  19.609   5.241   3.836  0.0052  0.1455 -0.2439
21629W        W25929   6.462   3.876  32.001 -0.0183 -0.0401 -0.0231
21630W        W25930  17.690   7.574  21.949 -0.0709 -0.0053 -0.1425
21631W        W25931  20.900   6.569  25.806 -0.0552 -0.0272 -0.1100
21632W        W25932   0.728   6.784   8.131 -0.2448 -0.2934 -0.2077
21633W        W25933   6.639   1.530   3.114 -0.1412 -0.1237 -0.1487
21634W        W25934  15.793   3.909  32.284 -0.1791 -0.1768 -0.0067
21635W        W25935  15.665   1.037   5.640  0.0814  0.2079  0.2398
21636W        W25936  24.195   4.082  27.730 -0.0672 -0.2039  0.0381
21637W        W25937   6.066   6.409  29.899 -0.0341 -0.0323 -0.0003
21638W        W25938   3.252   1.100   1.504  0.1634  0.1597  0.0541
21639W        W25939  20.844   0.373   3.516  0.0928 -0.1540 -0.1707
21640W        W25940  13.833   5.444  32.409 -0.1520 -0.0841  0.0544
21641W        W25941  23.596   0.267  31.182 -0.1790  0.0698 -0.1128
21642W        W25942  11.332   4.577   4.097 -0.0229  0.1135 -0.0176
21643W        W25943  10.896   2.924  26.248 -0.0934 -0.2423 -0.4290
21644W        W25944  15.531   1.250  19.109 -0.1637  0.2464  0.6677
21645W        W25945  19.089   2.291  25.384 -0.3050 -0.2277 -0.0013
21646W        W25946   0.551   7.343  29.772 -0.2007  0.0154 -0.0957
21647W        W25947   2.679   1.705   1.028 -0.0315  0.0176 -0.4196
21648W        W25948   9.713   1.856  20.729  0.5171 -0.0662  0.0389
21649W        W25949   2.805   5.651  13.591  0.2758 -0.0483 -0.3465
21650W        W25950  14.080   4.231  23.192 -0.0095  0.1838  0.0637
21651W        W25951   8.364   3.668  23.117 -0.2151  0.1458 -0.2318
21652W        W25952  16.674   2.563  23.487 -0.1979 -0.0583 -0.0694
21653W        W25953  22.653   4.279   7.120 -0.0214  0.0127  0.4931
21654W        W25954   1.150   7.483  10.565 -0.2070  0.1463 -0.0402
21655W        W25955  18.789   3.205  25.812  0.3206 -0.0357  0.2606
21656W        W25956  21.739   7.225   5.286 -0.0138 -0.0991  0.2572
21657W        W25957  20.726   4.961  21.338 -0.0590 -0.0102 -0.2251
21658W        W25958   3.143   5.987  17.527  0.2649 -0.0012  0.0343
21659W        W25959   2.235   1.788  14.122  0.1247 -0.0935 -0.1054
21660W        W25960  12.457   4.741  19.291 -0.2508 -0.1662  0.0795
21661W        W25961  23.210   7.776   9.379 -0.1561  0.1842 -0.0552
21662W        W25962  12.334   4.211   7.841 -0.0891  0.0163  0.1943
21663W        W25963  19.629   6.166   8.107  0.3928  0.0055 -0.0278
21664W        W25964   1.597   5.959  17.059 -0.1468 -0.1427  0.1656
21665W        W25965  11.321   0.360   3.009  0.1347 -0.0610 -0.2142
21666W        W25966   1.453   0.961   6.344 -0.1043  0.0308  0.2192
21667W        W25967  10.085   2.634  25.257  0.1187  0.1189  0.0424
21668W        W25968   6.929   4.072  23.382 -0.0003 -0.0269 -0.2265
21669W        W25969  15.759   0.995  32.462  0.0934  0.0199  0.1412
21670W        W25970  11.596   3.256  19.646 -0.2808  0.0447  0.1290
21671W        W25971   2.547   1.995   7.500 -0.1268 -0.3036 -0.2642
21672W        W25972   3.798   7.218   4.027 -0.1879 -0.1479  0.0566
21673W        W25973  22.425   1.126  25.471 -0.2842  0.1027 -0.0972
21674W        W25974  20.054   7.447  24.265 -0.0168  0.0386  0.1667
21675W        W25975  19.756   7.027  24.333  0.0078  0.0790 -0.1455
21676W        W25976   1.685   1.192  29.600 -0.1027  0.0285  0.2741
21677W        W25977  18.495   5.004  27.248 -0.0473 -0.1488  0.1258
21678W        W25978   6.055   4.845  12.229 -0.1455 -0.2500  0.0662
21679W        W25979  24.874   4.791  29.798 -0.0670  0.1603  0.1954
21680W        W25980  10.842   7.132  29.006  0.1939  0.1649  0.0091
21681W        W25981  21.025   6.053   3.458 -0.4076  0.1667 -0.0789
21682W        W25982  19.189   2.021  28.415 -0.2799  0.4211 -0.2895
21683W        W25983   9.310   0.759   2.662  0.2041  0.1887 -0.0191
21684W        W25984  13.779   3.401  20.035 -0.1843  0.1578  0.1441
21685W        W25985  14.221   4.660   1.255 -0.2215  0.2641 -0.3552
21686W        W25986   5.315   1.673  10.249 -0.3127  0.0056 -0.2934
21687W        W25987  18.122   5.456  25.608 -0.3129  0.1443 -0.0763
21688W        W25988  18.188   3.768  15.237 -0.0217  0.1608 -0.1684
21689W        W25989  21.849   6.782  22.492 -0.2962 -0.0582 -0.2026
21690W        W25990   3.146   1.960   0.213  0.1124  0.2943 -0.0426
21691W        W25991  19.003   3.138  28.539 -0.0930  0.0528  0.3305
21692W        W25992  22.479   4.511  23.660 -0.2490  0.0759  0.0218
21693W        W25993   7.991   2.276  25.675  0.2633  0.0825 -0.1532
21694W        W25994  11.526   5.888   3.111  0.0616 -0.2828 -0.2811
21695W        W25995  12.435   2.006  28.117  0.0349 -0.0977  0.1064
21696W        W25996  21.786   7.467  20.738  0.0135  0.3705  0.1156
21697W        W25997  20.660   2.621  21.555  0.1228  0.0059 -0.0099
21698W        W25998  16.442   4.156   2.680  0.1664 -0.1392  0.1600
21699W        W25999  11.237   3.152  11.164  0.2029 -0.2036 -0.0814
21700W        W26000  13.458   6.254  30.114 -0.0665  0.3781 -0.1650
21701W        W26001  23.733   7.297  28.918 -0.1871 -0.2309  0.3227
21702W        W26002  14.803   5.016  32.524 -0.1636  0.0889  0.1783
21703W        W26003  18.056   6.740  25.580 -0.0198 -0.3533 -0.1018
21704W        W26004  12.756   4.039  19.760 -0.0158  0.0983  0.0650
21705W        W26005   3.759   1.454  12.839 -0.4749 -0.0026 -0.2827
21706W        W26006  13.600   3.751  22.256 -0.2736 -0.0318  0.0330
21707W        W26007  13.575   1.550  26.896  0.2557  0.1860  0.0678
21708W        W26008  17.892   7.088  17.486 -0.0100  0.0262 -0.0407
21709W        W26009  23.525   3.342  10.929  0.0170 -0.1360 -0.0201
21710W        W26010  11.000   5.222  24.388 -0.0049 -0.0273  0.2806
21711W        W26011  16.388   4.316   1.130 -0.3127 -0.0035 -0.0184
21712W        W26012   1.866   7.264  14.098 -0.0152 -0.1076 -0.1428
21713W        W26013   3.714   3.864   4.293  0.1704  0.4372 -0.0874
21714W        W26014   9.513   3.712  30.666  0.1511  0.0663  0.1123
21715W        W26015   4.358   0.672  11.200  0.1274  0.3414 -0.1922
21716W        W26016  15.591   1.890   8.600  0.0155  0.1264  0.2519
21717W        W26017   8.340   2.863   4.284  0.2491 -0.4958 -0.0505
21718W        W26018   4.213   2.253   4.417 -0.0344  0.0904  0.0311
21719W        W26019   3.614   2.270  23.260 -0.0635  0.1924  0.1252
21720W        W26020   3.240   4.592   4.349 -0.0620 -0.2602 -0.1660
21721W        W26021  16.360   0.765   2.768  0.2487  0.5106  0.0026
21722W        W26022  17.866   6.764   1.121 -0.0856 -0.0381  0.0657
21723W        W26023   9.913   2.544  28.633  0.1465  0.2627 -0.2335
21724W        W26024  20.415   3.790  30.777  0.3874  0.1213 -0.2347
21725W        W26025   3.951   3.127   9.190  0.3718 -0.0690  0.0062
21726W        W26026   3.340   0.688  13.141  0.2108  0.3831  0.0779
21727W        W26027  13.725   4.693  31.038  0.3368  0.1193 -0.0501
21728W        W26028  20.922   1.239  18.559  0.0445  0.0182 -0.1555
21729W        W26029  15.917   1.111  27.114  0.0973 -0.0075  0.1354
21730W        W26030  22.323   3.252  18.725  0.0178 -0.2811  0.0918
21731W        W26031  19.893   2.694   5.571  0.0886 -0.1326 -0.0049
21732W        W26032  18.328   4.311   0.452 -0.1058  0.0136 -0.3006
21733W        W26033  12.714   7.749  22.837 -0.3269  0.0184 -0.1999
21734W        W26034  13.616   1.208  18.794  0.0428  0.1593  0.3524
21735W        W26035  15.796   0.124  26.869  0.3229  0.0678 -0.1469
21736W        W26036   2.591   6.266  25.944 -0.2383  0.1423 -0.0199
21737W        W26037   0.540   1.515   9.990  0.2091  0.2120  0.1204
21738W        W26038  12.298   6.455   5.083 -0.3577 -0.0351  0.2184
21739W        W26039  19.245   1.694   0.562 -0.0371 -0.3349 -0.2402
21740W        W26040   2.670   6.456  15.826  0.0219 -0.3733  0.3958
21741W        W26041   6.300   1.034   9.783  0.2222 -0.1341  0.0665
21742W        W26042  11.235   2.705  21.820 -0.3585  0.1607  0.2250
21743W        W26043  24.897   2.975  28.355  0.1841 -0.0288 -0.1029
21744W        W26044  14.583   5.812  15.494  0.2567  0.1516 -0.0641
21745W        W26045   5.592   3.732  26.453 -0.0389 -0.1122 -0.1478
21746W        W26046   2.745   4.462  30.463 -0.1408  0.0652 -0.2242
21747W        W26047  15.809   2.558  32.607 -0.0790  0.1433  0.2370
21748W        W26048  14.207   7.730   7.711 -0.1043  0.2983  0.0563
21749W        W26049   3.715   0.431   9.042 -0.3007 -0.4302 -0.1159
21750W        W26050   7.245   2.145  24.870 -0.0175  0.0455 -0.0341
21751W        W26051  22.489   3.744  24.083 -0.0154 -0.2038 -0.0111
21752W        W26052   0.461   5.597   1.514  0.0135  0.2207 -0.2344
21753W        W26053  22.024   0.431  26.850  0.1770 -0.1036  0.0500
21754W        W26054  21.273   7.692   5.353  0.1568  0.1551  0.0946
21755W        W26055  17.235   2.207  17.880  0.0247 -0.1424 -0.0209
21756W        W26056  20.117   1.785  20.120 -0.1544  0.2857 -0.1688
21757W        W26057  10.129   5.159  28.895 -0.0197  0.3932  0.2772
21758W        W26058   2.056   3.678  11.324  0.5633 -0.1027 -0.0957
21759W        W26059  15.361   1.509   2.846 -0.1960 -0.0582  0.0114
21760W        W26060  13.252   6.491   9.200 -0.0348  0.0800 -0.0162
21761W        W26061  18.137   7.482  22.246  0.3354 -0.0356 -0.0077
21762W        W26062   2.247   3.565   8.919 -0.0951 -0.0905  0.1831
21763W        W26063  19.519   5.401   2.051  0.2299 -0.2488 -0.0191
21764W        W26064  12.465   2.402  29.367  0.3340  0.0512  0.0241
21765W        W26065  17.327   7.040  30.109 -0.4070 -0.0008  0.0631
21766W        W26066   1.266   3.715  12.981  0.1843 -0.1246  0.0175
21767W        W26067  21.266   2.989  25.685 -0.0631 -0.1416 -0.1496
21768W        W26068  13.465   5.175  20.998  0.1302  0.2321  0.2918
21769W        W26069  14.146   5.137  29.352 -0.2031  0.0826  0.0463
21770W        W26070   4.276   3.786  12.985  0.1160 -0.0245  0.2932
21771W        W26071   5.799   6.529   3.032 -0.0053  0.0999  0.1059
21772W        W26072  12.890   4.653   6.695 -0.2199 -0.1311 -0.2538
21773W        W26073  13.969   1.631  18.064 -0.1861  0.0970 -0.2218
21774W        W26074   8.334   2.617  32.030 -0.0562 -0.0839  0.2989
21775W        W26075   1.211   4.128  15.578 -0.0863  0.0886  0.1140
21776W        W26076  18.540   7.003   0.448  0.0628 -0.2176 -0.2009
21777W        W26077   8.461   6.771  27.660  0.2431  0.1842 -0.0094
21778W        W26078  21.746   7.738   8.008  0.1600 -0.4116  0.0708
21779W        W26079  23.631   2.975  31.844 -0.2167  0.2980 -0.0112
21780W        W26080  15.461   5.732  19.524 -0.0766 -0.1457  0.1101
21781W        W26081  19.272   0.982  30.788  0.1359 -0.1609  0.3073
21782W        W26082  16.677   2.782  26.401  0.0986 -0.1359  0.0927
21783W        W26083  15.885   6.796  32.713  0.0857 -0.2491  0.1595
21784W        W26084  14.667   3.528   6.830 -0.3152  0.1211  0.1295
21785W        W26085  21.761   1.754  25.887  0.0876 -0.0543 -0.3301
21786W        W26086  24.371   5.691  14.736 -0.0179  0.1077 -0.2645
21787W        W26087  23.628   1.996   1.547 -0.1007  0.0601 -0.1221
21788W        W26088  20.758   6.361   7.859  0.0357 -0.1224 -0.0072
21789W        W26089  22.556   4.147   3.428 -0.0355 -0.0376  0.0293
21790W        W26090   3.911   0.342   3.805 -0.0108  0.3142 -0.1173
21791W        W26091  24.521   3.101  32.701  0.0982  0.2236 -0.0394
21792W        W26092   3.926   5.623  17.745  0.1240  0.0238  0.0151
21793W        W26093  12.071   6.342   9.838 -0.0007 -0.1192  0.0571
21794W        W26094  23.743   1.289  30.678 -0.1391 -0.2146  0.0492
21795W        W26095   1.134   6.194   2.893  0.0930  0.1254 -0.0762
21796W        W26096  19.591   0.744  32.152  0.2144 -0.0469  0.0436
21797W        W26097  16.099   5.331  30.696 -0.1168  0.0138  0.2371
21798W        W26098   9.599   4.462   6.258  0.1335 -0.3982 -0.0671
21799W        W26099  19.125   0.166   0.206 -0.0993  0.0959  0.1901
21800W        W26100  23.599   4.053   6.847 -0.1826 -0.0250  0.0431
21801W        W26101   5.406   4.700  27.177  0.4562 -0.1416 -0.0289
21802W        W26102  17.674   0.820   4.195 -0.1633 -0.1569  0.0561
21803W        W26103  23.317   3.758  29.784 -0.0876 -0.1831  0.1400
21804W        W26104  17.423   2.236  27.967  0.2241 -0.0091  0.1302
21805W        W26105  23.226   3.856   6.130 -0.0381  0.0232 -0.3328
21806W        W26106  17.814   1.282   9.591  0.0923 -0.1953  0.1553
21807W        W26107  18.452   7.327  31.815  0.0602 -0.3071  0.2652
21808W        W26108   3.480   2.530   2.510 -0.0511  0.4083 -0.1532
21809W        W26109   6.886   1.596   9.392 -0.1579  0.0127 -0.0099
21810W        W26110   8.549   0.309   2.780 -0.0195  0.0473  0.0220
21811W        W26111  19.525   5.347  10.389 -0.0041  0.1158  0.4621
21812W        W26112  18.392   2.240  24.305  0.1275  0.4609  0.1417
21813W        W26113  23.047   6.234  28.527 -0.1382  0.2607 -0.2564
21814W        W26114  12.964   6.967  32.093  0.2977 -0.0803 -0.3980
21815W        W26115   6.805   7.328   7.250 -0.1696  0.0156  0.2695
21816W        W26116   5.593   1.188  23.209 -0.1070  0.3030  0.1579
21817W        W26117  20.331   6.559   0.722  0.3026  0.0306 -0.3139
21818W        W26118  13.042   1.441  10.210  0.0023  0.1088  0.2528
21819W        W26119  22.322   1.229  10.153 -0.1959  0.0382  0.1433
21820W        W26120   9.415   5.864   0.357  0.2919 -0.0342  0.0505
21821W        W26121  18.839   1.993  19.427  0.0727  0.2572 -0.3056
21822W        W26122  13.465   5.079  17.685 -0.1627 -0.2427 -0.0960
21823W        W26123  19.688   0.332   8.997  0.1535 -0.0319  0.3008
21824W        W26124   0.500   3.376  11.966  0.0262 -0.1387  0.1527
21825W        W26125   3.367   2.536  25.902  0.2997  0.1304 -0.0863
21826W        W26126   6.962   6.130  11.860 -0.0313  0.0502  0.0222
21827W        W26127  12.783   6.427  22.500  0.2571  0.0893 -0.1963
21828W        W26128  22.705   6.565   4.620 -0.1591  0.0074 -0.1915
21829W        W26129  24.956   4.105  20.757  0.0016 -0.1347 -0.1401
21830W        W26130   9.936   1.291  31.132  0.0998  0.0406  0.2220
21831W        W26131   4.013   3.249   2.118 -0.0259 -0.4192  0.0697
21832W        W26132   7.908   5.042  26.909 -0.2468  0.1478  0.1602
21833W        W26133   3.379   5.086  10.289  0.1790 -0.2410  0.6030
21834W        W26134  20.296   2.512   1.428  0.0655 -0.0307  0.0306
21835W        W26135  24.503   5.307  31.977 -0.0367 -0.0084 -0.0992
21836W        W26136   7.146   2.604  27.189  0.1515  0.0291 -0.4558
21837W        W26137   1.086   7.194   1.950  0.1539 -0.3287  0.0411
21838W        W26138  19.466   3.262  30.868 -0.1591 -0.0340  0.0115
21839W        W26139  13.486   1.547  22.981 -0.0646 -0.1030  0.0699
21840W        W26140   4.200   7.010  13.888  0.0162 -0.1927 -0.1609
21841W        W26141  20.257   0.244   2.044  0.1173  0.2066 -0.0724
21842W        W26142  16.617   0.469  17.823 -0.4461 -0.4001  0.1735
21843W        W26143  23.367   7.315  27.436 -0.1591  0.1029 -0.1755
21844W        W26144   1.386   2.865  16.048  0.1691 -0.2147  0.0256
21845W        W26145  14.038   1.875  20.702 -0.2727  0.1007 -0.1364
21846W        W26146  24.585   3.910  13.799 -0.2700  0.0817  0.0411
21847W        W26147   8.965   2.418  10.964 -0.0848  0.1142 -0.0357
21848W        W26148  14.543   0.670  21.506 -0.1086 -0.1456 -0.1265
21849W        W26149  15.102   0.082  28.622  0.1996  0.1668 -0.0137
21850W        W26150  20.190   2.295  21.814 -0.0160  0.1532 -0.1143
21851W        W26151  13.140   1.984  20.932 -0.1886 -0.0668 -0.0861
21852W        W26152   6.771   2.648   0.097 -0.1389 -0.0097  0.0034
21853W        W26153  15.590   3.302   5.889 -0.1123  0.2204  0.1508
21854W        W26154  21.974   1.581  23.669  0.0681 -0.2673  0.1702
21855W        W26155   3.570   6.415  31.484 -0.4014 -0.2199 -0.3388
21856W        W26156   9.258   4.507   9.829  0.1466 -0.2357 -0.1426
21857W        W26157  15.540   0.925  22.351 -0.1069 -0.2070  0.1048
21858W        W26158   2.131   4.038  15.345  0.0419 -0.1938  0.1998
21859W        W26159  20.240   5.730   9.428 -0.1380 -0.2061  0.3216
21860W        W26160   7.354   1.461   6.435 -0.2819 -0.2924  0.0089
21861W        W26161   2.505   4.477  24.912 -0.0741 -0.1748 -0.1286
21862W        W26162  14.235   5.463  26.420 -0.1212 -0.2178  0.0406
21863W        W26163   3.445   0.231  32.145 -0.3681  0.1575 -0.3618
21864W        W26164  18.819   3.565  23.511  0.0231  0.0002 -0.2378
21865W        W26165   4.538   1.038   9.097  0.6296  0.2990 -0.0861
21866W        W26166   7.575   1.929   3.077  0.0209 -0.5804  0.1707
21867W        W26167  19.004   2.599  23.649  0.0028 -0.0574  0.2941
21868W        W26168   4.790   0.248  17.954 -0.0535 -0.0051 -0.1008
21869W        W26169  24.931   1.050   1.162  0.0195  0.2119  0.0079
21870W        W26170  24.276   3.796   3.261  0.0318  0.1359 -0.0446
21871W        W26171  18.253   1.357  28.920 -0.0113 -0.4428  0.1137
21872W        W26172  23.935   5.983   6.161 -0.2679  0.0130 -0.1938
21873W        W26173  24.327   7.377  13.778  0.1430  0.1834  0.0115
21874W        W26174  17.510   3.320  28.661 -0.0618 -0.4808 -0.1048
21875W        W26175   7.316   6.207  28.235  0.0324 -0.0821  0.3036
21876W        W26176   5.094   2.941  30.118 -0.0805  0.2310 -0.0698
21877W        W26177  10.810   2.627  21.002 -0.2409 -0.1383 -0.4127
21878W        W26178   3.205   1.507  16.807  0.0113  0.1819 -0.1767
21879W        W26179  10.053   1.346  14.025 -0.1024  0.0277  0.0896
21880W        W26180   2.450   7.111   2.935  0.1499 -0.0542  0.1251
21881W        W26181  13.212   4.776   7.705  0.4077  0.1961  0.3405
21882W        W26182  23.754   5.635   9.723  0.1083 -0.5650 -0.1031
21883W        W26183  12.173   3.725   9.757 -0.0740 -0.1924 -0.0110
21884W        W26184   9.477   6.612   2.600 -0.1592  0.1209 -0.2261
21885W        W26185  18.964   3.757  31.064  0.2912  0.4392  0.0464
21886W        W26186   8.811   5.429  23.216 -0.2356 -0.0866  0.2311
21887W        W26187  16.286   6.913  20.747  0.2495  0.1424 -0.3155
21888W        W26188  20.469   1.548   1.557 -0.1626  0.4580  0.1825
21889W        W26189   1.055   7.345  15.340 -0.3110 -0.2101 -0.3109
21890W        W26190  11.636   7.045  28.550 -0.2623 -0.1880  0.0058
21891W        W26191   9.092   5.732  13.120  0.0498 -0.3878 -0.1722
21892W        W26192  23.597   4.391   9.589 -0.2084 -0.1866  0.1873
21893W        W26193  20.923   4.371   0.691 -0.1949  0.0793  0.3493
21894W        W26194   4.062   5.521  28.790  0.0740  0.0225  0.1503
21895W        W26195  18.583   3.391   8.309  0.0097  0.1559 -0.1337
21896W        W26196  12.345   2.077  25.396  0.0897  0.3278 -0.1307
21897W        W26197  20.721   2.539   7.662 -0.1118 -0.0366  0.0914
21898W        W26198  13.796   3.996  25.059  0.0604 -0.0754  0.1766
21899W        W26199  18.891   4.737  23.582  0.0845  0.0043  0.2143
21900W        W26200  21.728   1.546  30.350 -0.2633 -0.0865  0.1727
21901W        W26201  16.807   5.206   6.723 -0.1417 -0.1512 -0.0440
21902W        W26202  12.991   3.859  17.758  0.0669 -0.1688  0.2490
21903W        W26203  13.595   4.277  17.367  0.0802  0.0832 -0.2232
21904W        W26204   0.002   5.589  29.105  0.1572  0.0258  0.0267
21905W        W26205   6.950   5.337  23.880  0.3754 -0.1918 -0.0569
21906W        W26206  14.388   4.228  31.837  0.0110  0.0465  0.0352
21907W        W26207   8.069   2.064  15.120 -0.2466 -0.1512 -0.1716
21908W        W26208  10.102   5.742  26.786  0.1002  0.1277  0.2220
21909W        W26209  13.405   3.401   1.347 -0.1119 -0.0187 -0.1687
21910W        W26210  21.528   2.084  11.242 -0.1827  0.3421 -0.0143
21911W        W26211   2.806   0.743   2.767 -0.0225 -0.1538 -0.0885
21912W        W26212  12.912   2.944  23.939  0.0988  0.0337 -0.0996
21913W        W26213  16.365   4.491  25.808  0.0971 -0.0905 -0.0905
21914W        W26214  16.617   0.062  31.050 -0.5171  0.1986 -0.3332
21915W        W26215   7.654   6.693   4.866  0.0004 -0.1918  0.0798
21916W        W26216  14.398   6.044   0.993 -0.1025  0.0480 -0.0312
21917W        W26217   2.868   3.606  28.708  0.1884  0.0305  0.1869
21918W        W26218  18.671   5.815   6.852 -0.1218  0.0898 -0.0758
21919W        W26219  20.873   3.611  26.683 -0.1072 -0.1934  0.0861
21920W        W26220   1.382   7.110   6.845  0.0356  0.0625  0.0384
21921W        W26221   1.096   4.528  32.946 -0.1560 -0.2478  0.1638
21922W        W26222  16.052   4.739  32.410 -0.0566 -0.1581  0.0669
21923W        W26223   2.680   6.895  31.057 -0.1064 -0.0503  0.0772
21924W        W26224   2.307   3.513  27.959 -0.2303 -0.3332  0.4768
21925W        W26225   7.823   1.276   6.472  0.0201  0.2112 -0.2005
21926W        W26226   7.750   3.619  32.850  0.0658 -0.1877  0.2152
21927W        W26227   1.002   1.752   0.266  0.0346  0.0688 -0.0199
21928W        W26228  21.304   0.744  17.908 -0.1463  0.2070  0.2679
21929W        W26229  12.544   2.256  27.642  0.0031 -0.1691  0.0115
21930W        W26230  12.490   2.721   7.552  0.2259  0.2411 -0.2216
21931W        W26231  12.606   6.719   6.263 -0.0211  0.1480  0.4131
21932W        W26232   4.454   0.707  25.052 -0.0565 -0.3204 -0.1318
21933W        W26233   5.408   5.611  22.787  0.1783 -0.0524 -0.0613
21934W        W26234  20.575   1.660  11.548  0.1811 -0.0771  0.0511
21935W        W26235  16.250   6.453  20.405 -0.1815 -0.0117  0.1159
21936W        W26236  19.005   5.477  26.767 -0.1501 -0.1207  0.1135
21937W        W26237  16.666   7.592  25.581 -0.0037 -0.1099  0.0377
21938W        W26238  21.984   1.793  31.800 -0.4033 -0.1816  0.4576
21939W        W26239  22.581   5.308   8.118  0.1116 -0.1903 -0.0207
21940W        W26240   1.333   3.185  10.167 -0.1461  0.3411  0.2319
21941W        W26241  12.789   5.019  18.913  0.1161  0.1949  0.2106
21942W        W26242  17.469   7.530  29.467  0.0545 -0.1880  0.5094
21943W        W26243   5.387   7.468  12.944 -0.0536  0.2371  0.0571
21944W        W26244   4.970   7.485  15.599  0.3600 -0.0716 -0.1587
21945W        W26245   6.001   6.181  13.428  0.2306  0.0442  0.0811
21946W        W26246  10.852   1.188  24.951 -0.1501 -0.0764 -0.1146
21947W        W26247  24.008   0.707  11.701 -0.1314 -0.1745 -0.1180
21948W        W26248  22.888   7.052  25.919 -0.1938  0.2097  0.1073
21949W        W26249  19.357   0.328  17.794 -0.1973  0.2527 -0.3782
21950W        W26250  24.036   3.546   8.071  0.2529 -0.2651 -0.1576
21951W        W26251   6.576   3.058   9.046 -0.0436  0.2291 -0.1924
21952W        W26252   3.286   5.232   8.449  0.0480  0.1016 -0.1350
21953W        W26253   4.760   6.222  27.729  0.0481  0.2335 -0.1815
21954W        W26254  24.228   6.921   2.862 -0.1816 -0.4398 -0.2731
21955W        W26255   4.261   2.587   5.190  0.4210 -0.2628  0.2699
21956W        W26256  14.828   1.753  17.223  0.1633 -0.3434  0.1548
21957W        W26257  14.081   5.674  25.422  0.0067 -0.0009  0.1101
21958W        W26258   7.289   4.480   3.320  0.4091  0.0626 -0.2615
21959W        W26259  21.109   2.841  20.581  0.0030  0.0438 -0.1620
21960W        W26260  13.445   5.931  17.531  0.1184 -0.0291 -0.0202
21961W        W26261   4.390   5.911   1.440 -0.0966 -0.1631 -0.1412
21962W        W26262  16.859   2.851  29.173  0.2022 -0.1401 -0.1667
21963W        W26263   7.476   4.858   1.941 -0.2481 -0.0052  0.1358
21964W        W26264   3.377   1.680  29.864 -0.2073  0.2083  0.1019
21965W        W26265  20.294   2.309  21.337 -0.3049 -0.1467 -0.2427
21966W        W26266   4.015   6.133  17.578  0.0691  0.1590  0.0676
21967W        W26267  12.294   4.075  32.367 -0.0130 -0.1091  0.0993
21968W        W26268   1.206   3.598  12.535 -0.2530  0.3328 -0.1216
21969W        W26269  13.278   1.828   5.335 -0.1549 -0.0204  0.1317
21970W        W26270  23.419   0.876  13.115  0.0249  0.0955 -0.1438
21971W        W26271  13.820   3.920   6.123 -0.0617 -0.1075  0.0456
21972W        W26272  15.128   3.021  21.525  0.1486  0.0772  0.0530
21973W        W26273  21.304   5.670  21.651  0.0695  0.0669 -0.0514
21974W        W26274   0.924   6.804  24.940  0.0590 -0.4217  0.2171
21975W        W26275  12.299   5.057   3.888  0.0532  0.2607  0.3101
21976W        W26276  12.993   6.508  32.252  0.3753  0.0012  0.0910
21977W        W26277  21.710   2.494   9.407  0.0721 -0.1731  0.1685
21978W        W26278  19.559   6.017  10.918  0.0453  0.0092 -0.0842
21979W        W26279  17.983   1.016  22.249  0.0271  0.2345 -0.0335
21980W        W26280  19.196   6.336  16.917  0.3864 -0.1638  0.2567
21981W        W26281  24.850   0.052  12.440  0.2352 -0.0406  0.2597
21982W        W26282  22.787   7.213   6.045 -0.2019 -0.0478  0.1241
21983W        W26283   0.034   7.059   5.959  0.0845 -0.2820  0.0208
21984W        W26284   3.555   4.287  31.272 -0.4048  0.1628 -0.2312
21985W        W26285  16.058   2.722  30.255  0.2145 -0.1639 -0.0567
21986W        W26286  23.873   3.482   7.101 -0.2419 -0.0188  0.0171
21987W        W26287  13.691   2.056   5.459  0.0561  0.1216  0.0899
21988W        W26288  19.527   0.624  31.134  0.1186  0.1714 -0.3262
21989W        W26289   0.247   4.649  32.854  0.0224  0.0167  0.0873
21990W        W26290   7.775   0.340   0.979 -0.3648  0.0831 -0.1152
21991W        W26291  19.472   4.818   9.551 -0.1385 -0.2282 -0.2583
21992W        W26292  20.645   6.894  23.152  0.2309  0.1747  0.2029
21993W        W26293  18.265   2.088   1.887 -0.2190  0.2180  0.1952
21994W        W26294  11.550   2.932   3.486  0.2372  0.1148 -0.0095
21995W        W26295  14.454   3.206  26.538 -0.3042  0.0194  0.0890
21996W        W26296  21.016   0.634   2.396 -0.0132 -0.1157  0.0411
21997W        W26297  18.302   4.702   2.651  0.1238 -0.3572  0.1482
21998W        W26298   0.977   5.073   2.898 -0.0041  0.1028 -0.0895
21999W        W26299  14.237   6.780  17.341  0.2497  0.0375  0.1953
22000W        W26300  17.381   4.759  16.127  0.0204 -0.0580 -0.1679
22001W        W26301   4.527   5.394  15.109 -0.3052 -0.0654 -0.3291
22002W        W26302   7.344   0.693   4.315  0.0507 -0.2598 -0.0126
22003W        W26303  12.517   7.257   7.494 -0.0418  0.2909 -0.1197
22004W        W26304   0.788   6.448  11.641  0.0310  0.0715  0.0511
22005W        W26305  23.100   2.075  26.930  0.0359 -0.1216  0.0528
22006W        W26306   2.171   5.974  25.147  0.2179 -0.5139 -0.0488
22007W        W26307   9.837   2.038  24.636  0.1328 -0.1052 -0.1335
22008W        W26308  15.296   3.919  10.504 -0.0821 -0.2066  0.1237
22009W        W26309   1.547   0.573  26.621 -0.0993 -0.0182 -0.2346
22010W        W26310   6.764   7.636  23.390  0.0444  0.2572 -0.1637
22011W        W26311   5.953   4.501   0.941  0.1899 -0.1024 -0.0775
22012W        W26312  12.519   3.631  26.895 -0.0575  0.0687  0.0384
22013W        W26313   9.555   6.412  13.579 -0.1721  0.0195 -0.4524
22014W        W26314   4.357   2.995  25.261  0.1224 -0.2278 -0.0256
22015W        W26315  22.562   1.615  11.283  0.1239 -0.2671  0.3786
22016W        W26316  13.498   4.217   2.754  0.0606 -0.0283 -0.2207
22017W        W26317  10.734   4.372  24.898 -0.1088 -0.2129  0.1755
22018W        W26318   4.523   2.202  28.975  0.2004 -0.1923 -0.2791
22019W        W26319   4.732   7.382  13.309 -0.0030 -0.0450 -0.0057
22020W        W26320   4.424   4.723  12.818 -0.0209  0.2716 -0.0869
22021W        W26321   1.342   2.883   2.598 -0.0220  0.0931  0.2606
22022W        W26322   5.563   4.952  16.762  0.1481 -0.5716 -0.1660
22023W        W26323   7.087   0.648  11.745 -0.1621 -0.0689  0.1848
22024W        W26324  20.744   1.535  28.937  0.1562  0.1516  0.1581
22025W        W26325   1.105   2.785  13.820 -0.3044  0.0243  0.2466
22026W        W26326  17.886   4.366  29.951  0.1274  0.4421 -0.1703
22027W        W26327  20.461   6.159   5.879 -0.1758  0.1055 -0.2992
22028W        W26328  22.880   0.908  25.549 -0.2399  0.4508 -0.2532
22029W        W26329   0.444   0.352  11.222  0.4114  0.1037 -0.2106
22030W        W26330   6.089   0.885  24.257  0.3738  0.0993 -0.0004
22031W        W26331  23.395   1.479   7.086  0.0186  0.2121 -0.1880
22032W        W26332  16.462   0.768  25.210 -0.0092  0.0292  0.1280
22033W        W26333   1.584   6.843  30.272 -0.0973  0.1312  0.2522
22034W        W26334  13.908   1.302  22.956 -0.1806  0.0680 -0.5147
22035W        W26335  18.587   2.333  20.455  0.1472  0.4002 -0.0239
22036W        W26336  21.892   4.347  23.341 -0.2979  0.0098 -0.0014
22037W        W26337  21.884   1.019   3.414 -0.0329 -0.0863  0.3435
22038W        W26338  21.124   2.145   0.521 -0.0324  0.1200 -0.2535
22039W        W26339  17.700   3.705  28.189  0.1648 -0.4446  0.3402
22040W        W26340  12.987   1.964  10.155  0.2133 -0.1829 -0.0146
22041W        W26341  21.100   3.505   1.352 -0.0946  0.1514 -0.0326
22042W        W26342   2.023   3.605   4.699  0.1403 -0.2155  0.0419
22043W        W26343   4.027   4.318   0.557  0.0576 -0.0229  0.0110
22044W        W26344  17.337   3.697   2.599 -0.2955 -0.0691  0.1776
22045W        W26345  11.046   0.292   5.986 -0.1611  0.0652 -0.1327
22046W        W26346  21.519   2.620  26.333 -0.1166 -0.1327 -0.0881
22047W        W26347  20.196   4.218   7.220  0.1204 -0.1420 -0.0452
22048W        W26348  17.066   3.195   6.293 -0.1416  0.0813 -0.0576
22049W        W26349  24.399   3.738   0.375 -0.0515  0.1200 -0.0618
22050W        W26350   9.534   7.506  25.103  0.2881 -0.4068 -0.1992
22051W        W26351   8.524   1.912  24.282 -0.1712 -0.0926 -0.1277
22052W        W26352   0.731   7.228  27.519 -0.2487 -0.0902  0.3245
22053W        W26353  24.765   1.546  15.992 -0.1849  0.1925 -0.2974
22054W        W26354   0.187   3.454  13.996  0.0155 -0.0262  0.1464
22055W        W26355   4.576   6.691   7.698  0.0509 -0.2098  0.1801
22056W        W26356   0.948   0.565  30.643  0.0381 -0.1596  0.1041
22057W        W26357   8.767   6.789   4.534  0.2387 -0.0243 -0.2050
22058W        W26358   1.302   7.334  32.061  0.0602  0.2485  0.1810
22059W        W26359  21.682   2.791  12.409 -0.1087  0.1631  0.1418
22060W        W26360  10.710   1.143   9.876 -0.1581 -0.0031  0.1277
22061W        W26361  17.537   2.473   4.539 -0.3416 -0.0498 -0.0648
22062W        W26362  23.174   1.213  30.307 -0.1823  0.0097  0.2271
22063W        W26363  13.869   4.404  31.442 -0.0020 -0.1980  0.1146
22064W        W26364   6.167   4.373   9.044  0.2832  0.1431 -0.2197
22065W        W26365   3.005   4.053   2.404  0.0128  0.3620  0.1157
22066W        W26366  13.759   7.211   1.587 -0.1034 -0.1237 -0.0449
22067W        W26367  14.824   1.044  21.207  0.0289 -0.1723  0.0516
22068W        W26368  16.818   5.477   5.326 -0.0208  0.0809 -0.1545
22069W        W26369  20.280   0.534   7.478 -0.0122  0.0482  0.2159
22070W        W26370  18.363   6.520  10.882  0.1213  0.1519 -0.0680
22071W        W26371  19.603   2.328   7.014 -0.1233  0.2274 -0.2809
22072W        W26372  10.657   3.997  23.281 -0.0262  0.0662  0.2867
22073W        W26373   9.519   1.176  11.593  0.0271 -0.2576  0.0908
22074W        W26374  21.787   5.254  32.409  0.0107 -0.0407  0.1141
22075W        W26375  19.570   0.851  23.087  0.1292  0.2872 -0.0170
22076W        W26376  16.316   6.832  23.415 -0.0157  0.1010 -0.0313
22077W        W26377  21.560   7.189   2.573 -0.0303  0.0973  0.1387
22078W        W26378  19.080   7.555   1.719 -0.0295  0.1526 -0.0410
22079W        W26379  12.246   7.789  10.449  0.4316  0.2769 -0.0819
22080W        W26380   3.962   5.983   3.303 -0.1845  0.2202  0.1665
22081W        W26381  19.051   7.203  28.547  0.1978  0.0597  0.0103
22082W        W26382  18.017   1.964  32.561  0.0911 -0.0626  0.0587
22083W        W26383   8.648   3.369  22.804  0.0998  0.1332 -0.0289
22084W        W26384  19.752   7.278  22.760  0.3415 -0.2148  0.2659
22085W        W26385  24.330   5.517   1.040 -0.1649  0.1231 -0.1626
22086W        W26386   5.660   4.133  14.452 -0.5145 -0.1507 -0.0578
22087W        W26387   9.596   1.757   9.577 -0.0522 -0.0349  0.0203
22088W        W26388  19.475   3.364   6.704 -0.2622  0.0924  0.2255
22089W        W26389  19.759   0.250  16.298  0.2586  0.0237  0.2388
22090W        W26390  20.520   5.212   0.249 -0.3193 -0.3201 -0.1170
22091W        W26391   2.122   3.048  27.772  0.0295  0.0788 -0.0777
22092W        W26392  12.391   2.734   5.746  0.0123 -0.4827 -0.0672
22093W        W26393  15.136   3.813   6.461 -0.5153  0.0170  0.2412
22094W        W26394  24.730   6.584  14.333 -0.1537 -0.3491 -0.1052
22095W        W26395  15.080   3.459  29.937 -0.1510  0.1174  0.0633
22096W        W26396   3.132   7.207  25.163  0.1035 -0.1296  0.0137
22097W        W26397  10.522   7.594   9.929 -0.2563  0.1504 -0.0050
22098W        W26398  12.177   0.737  21.081 -0.1356 -0.1360  0.0160
22099W        W26399   9.309   5.086  25.793 -0.1844 -0.0661 -0.0663
22100W        W26400   7.916   5.544  25.727 -0.3535  0.0572 -0.2873
22101W        W26401  15.488   4.819  23.022  0.1450 -0.0102 -0.0557
22102W        W26402   9.898   4.547  27.810 -0.0295 -0.1206  0.0428
22103W        W26403  10.644   1.056   7.794  0.0682 -0.0738  0.0638
22104W        W26404   9.381   7.231   9.652 -0.0355  0.0603 -0.0211
22105W        W26405  14.267   3.452  21.125 -0.4149  0.1696 -0.0950
22106W        W26406  13.034   3.431  26.127 -0.1708  0.0664 -0.0622
22107W        W26407  10.928   5.160  29.293  0.0521  0.4059 -0.2838
22108W        W26408  22.538   1.586  24.212  0.0795  0.0544  0.0482
22109W        W26409   4.377   1.662  17.958  0.0204  0.2646  0.2442
22110W        W26410  14.304   0.608  25.937  0.2025  0.0364 -0.0088
22111W        W26411   8.179   2.605  10.541 -0.0497  0.3184 -0.0692
22112W        W26412  10.425   5.324  25.165 -0.0538 -0.4072  0.1205
22113W        W26413  20.971   1.752  18.797  0.1948  0.1967  0.0187
22114W        W26414  24.212   4.541  28.866 -0.0343 -0.2045 -0.0390
22115W        W26415  23.931   6.449  25.267 -0.1254 -0.0021 -0.1909
22116W        W26416   9.702   1.997   2.595 -0.1710 -0.4459 -0.1357
22117W        W26417   6.596   3.585  29.558 -0.0651 -0.0178 -0.0109
22118W        W26418   2.206   7.150   7.035  0.1199 -0.0539 -0.1183
22119W        W26419   1.979   5.311   5.608 -0.1290  0.1369 -0.0119
22120W        W26420   3.334   5.944  16.104  0.3895 -0.1778 -0.1692
22121W        W26421  15.810   6.065  27.459 -0.0487  0.0694 -0.1643
22122W        W26422  12.402   0.536   0.049 -0.1880  0.4894  0.1596
22123W        W26423  12.814   3.022  28.234  0.0623  0.1143 -0.0931
22124W        W26424   1.742   6.929   6.275  0.1692 -0.0837 -0.1684
22125W        W26425   3.943   0.251  12.467 -0.0614  0.0168 -0.0287
22126W        W26426  20.928   6.048   5.960  0.1248  0.0015  0.0763
22127W        W26427  24.189   0.662   9.279  0.0587  0.2074 -0.0330
22128W        W26428  14.593   6.162   8.068 -0.0172  0.0304 -0.0122
22129W        W26429   2.442   0.835  14.900  0.1600 -0.0805  0.1307
22130W        W26430  17.379   2.570   7.163  0.5137  0.1343  0.2526
22131W        W26431  21.090   1.935  29.686  0.1205  0.0909 -0.0807
22132W        W26432  11.947   4.241   1.007 -0.1012  0.0995  0.2705
22133W        W26433   4.139   1.856  23.591 -0.1360  0.3141 -0.0061
22134W        W26434   0.018   3.706   4.782  0.0811  0.1753  0.3352
22135W        W26435  23.151   4.746   6.355  0.0842 -0.0505 -0.1608
22136W        W26436  18.148   7.675  19.135 -0.0647 -0.3704 -0.0013
22137W        W26437   2.324   7.515  25.430  0.4827  0.0580  0.1083
22138W        W26438  19.796   0.580   7.304 -0.1523 -0.2102  0.0065
22139W        W26439  12.129   1.252  24.510 -0.0079 -0.0168  0.2044
22140W        W26440   0.933   1.943  22.566  0.1832  0.3665 -0.0287
22141W        W26441   6.499   5.526   7.752 -0.0951 -0.3163  0.3131
22142W        W26442  21.213   2.878   4.358 -0.0118 -0.0084  0.1082
22143W        W26443   8.381   7.352  21.428  0.0811  0.1994  0.2592
22144W        W26444   9.092   0.381   3.539 -0.2439  0.0549  0.0824
22145W        W26445  12.677   4.979  22.858  0.1084  0.1324  0.0881
22146W        W26446  14.237   6.029  16.265 -0.0487 -0.1273 -0.1060
22147W        W26447  19.143   0.493  22.752  0.2263 -0.1840 -0.0096
22148W        W26448   3.468   5.753  15.665  0.0575  0.0056 -0.0774
22149W        W26449   0.988   0.701  29.590  0.1869 -0.3075  0.1454
22150W        W26450   2.653   0.553   4.656  0.0256  0.2038 -0.0708
22151W        W26451   1.502   1.807  28.002 -0.0041  0.2513  0.0673
22152W        W26452   7.527   0.689  14.369 -0.0649  0.0392  0.1901
22153W        W26453   4.479   7.097   2.398 -0.0387 -0.1886 -0.0241
22154W        W26454   4.310   4.544  24.947 -0.1922 -0.1094  0.2291
22155W        W26455   3.614   6.403   8.384  0.3525 -0.1140  0.0388
22156W        W26456  19.052   3.229   1.810 -0.1717  0.0611 -0.0855
22157W        W26457   4.065   6.232   8.389  0.1132 -0.4607  0.0214
22158W        W26458   9.080   2.442  12.730  0.0315 -0.1251 -0.0756
22159W        W26459  22.601   2.760   3.294 -0.2054  0.0074  0.0727
22160W        W26460  21.909   0.521  11.300  0.3400  0.3148 -0.1957
22161W        W26461  14.301   1.227  28.290 -0.0980  0.0172  0.2413
22162W        W26462  13.913   5.808  22.882 -0.0707 -0.0392 -0.1590
22163W        W26463   4.433   3.685   4.404  0.1436 -0.2410  0.0950
22164W        W26464  12.302   6.130  27.309  0.0523  0.1877  0.0602
22165W        W26465  24.271   2.944   1.372  0.2184 -0.2121  0.0094
22166W        W26466  21.466   5.455  23.581  0.1027  0.5385 -0.0744
22167W        W26467  10.465   0.173  21.268 -0.1100 -0.2354 -0.0577
22168W        W26468   2.494   4.412  22.615 -0.3643  0.0047  0.0094
22169W        W26469   3.828   6.687   9.428 -0.1808 -0.0953 -0.0124
22170W        W26470   4.079   0.648  31.086  0.1192  0.2827  0.0679
22171W        W26471   7.720   2.499  23.599  0.0254 -0.0596  0.1482
22172W        W26472  11.005   0.185  29.799 -0.1517 -0.0687 -0.1686
22173W        W26473   2.121   5.510   0.938  0.5243  0.1898 -0.1253
22174W        W26474  12.467   2.487  32.479 -0.0976  0.1397 -0.2253
22175W        W26475  20.977   4.456  18.665  0.0383  0.2430  0.3243
22176W        W26476  19.710   7.443  32.135 -0.3337 -0.3130 -0.0272
22177W        W26477  22.506   1.890  30.390 -0.0328  0.0729  0.0479
22178W        W26478  17.132   5.385   0.580 -0.1221 -0.2268  0.0674
22179W        W26479  10.986   7.500  26.860  0.2213  0.0131 -0.0728
22180W        W26480  19.992   4.282   5.508 -0.0715  0.0478 -0.0808
22181W        W26481   9.072   1.454  26.353  0.0834 -0.0326 -0.0031
22182W        W26482  15.659   3.968  22.814  0.0406 -0.0163 -0.1305
22183W        W26483  11.296   6.875   3.159 -0.0189  0.1320 -0.2349
22184W        W26484   0.629   2.330  22.721 -0.0400 -0.0994  0.0997
22185W        W26485  24.885   5.743   2.332 -0.1429  0.0318 -0.0427
22186W        W26486  16.124   1.271  31.367  0.3365  0.2056 -0.0684
22187W        W26487  16.669   2.881   6.173  0.0955  0.2751 -0.0984
22188W        W26488  20.213   3.610   3.586 -0.0841 -0.0841 -0.0492
22189W        W26489   3.725   6.042   5.852  0.2331 -0.0755 -0.3772
22190W        W26490  11.988   2.424  19.068  0.3083 -0.2248  0.3745
22191W        W26491   9.692   2.630  32.884  0.1325  0.0554  0.1258
22192W        W26492   8.791   1.668  14.211  0.0692  0.2924 -0.2248
22193W        W26493  19.872   2.345   9.754 -0.3950 -0.1298  0.2407
22194W        W26494  19.059   3.542  32.401  0.1743  0.4804  0.2396
22195W        W26495   2.157   7.335  24.997 -0.0036 -0.1524 -0.0708
22196W        W26496  21.214   5.841  31.366  0.0827 -0.2236 -0.0087
22197W        W26497  17.290   4.501  20.203  0.1919 -0.1914  0.1144
22198W        W26498  18.696   7.739   7.740  0.2133  0.5011  0.2000
22199W        W26499  23.064   2.824  22.046 -0.0579 -0.0048 -0.2272
22200W        W26500  14.211   2.537   8.683 -0.2301  0.0442 -0.1315
22201W        W26501  10.682   5.717  26.877 -0.4959 -0.1150 -0.0139
22202W        W26502   8.019   5.964   4.371 -0.1765  0.1468  0.3747
22203W        W26503  22.262   5.523  12.054 -0.1890 -0.1054 -0.1424
22204W        W26504   1.147   3.122  29.206  0.1959 -0.0927 -0.2995
22205W        W26505  24.639   1.288   2.333  0.0605 -0.2508  0.0959
22206W        W26506  16.527   4.027  15.758  0.0611 -0.3603 -0.2076
22207W        W26507  20.518   0.467   7.911 -0.3197  0.0147  0.0336
22208W        W26508   4.846   3.706  31.730  0.1047  0.2475  0.0414
22209W        W26509  19.842   7.144   0.858  0.1078  0.0406 -0.3253
22210W        W26510   9.116   7.076  22.547  0.2897  0.3914  0.2460
22211W        W26511  14.888   1.324   8.151  0.0857  0.1903 -0.0246
22212W        W26512  12.556   5.438  20.952 -0.3018  0.0732 -0.0428
22213W        W26513   9.634   6.008  23.425  0.0782 -0.1215 -0.2672
22214W        W26514  18.568   1.762  28.804  0.0709  0.2327 -0.0832
22215W        W26515   5.436   4.450  26.645 -0.1087  0.1124 -0.2559
22216W        W26516   8.904   3.115  10.283 -0.3714  0.2447  0.1371
22217W        W26517   3.567   6.203  12.798 -0.0656  0.0249  0.1885
22218W        W26518   3.979   1.145  30.936 -0.1495  0.0420 -0.2634
22219W        W26519   1.813   7.215   5.116 -0.2312  0.0460  0.0569
22220W        W26520   3.977   1.003  13.972  0.1515 -0.2421 -0.4015
22221W        W26521  15.913   5.610  28.011  0.1881  0.0865  0.2601
22222W        W26522  10.393   4.944   0.405 -0.0733 -0.0148 -0.2541
22223W        W26523  12.084   6.967  25.554  0.0107 -0.0932  0.1629
22224W        W26524   5.723   4.691  14.236 -0.0192 -0.0356 -0.2456
22225W        W26525   6.118   2.592  31.802 -0.1061 -0.3125  0.2634
22226W        W26526   2.502   7.289   1.380 -0.1080 -0.0788 -0.0694
22227W        W26527   3.254   5.404   3.329  0.0411  0.0294  0.2419
22228W        W26528  17.387   2.603   2.727  0.1446  0.1366 -0.0133
22229W        W26529   4.090   3.318  31.327 -0.2226 -0.1484 -0.0245
22230W        W26530   2.262   2.382   0.676  0.0937 -0.1475 -0.1540
22231W        W26531  14.158   4.895  27.025  0.4237 -0.0453  0.0317
22232W        W26532  19.089   0.945  28.838  0.0076 -0.0323 -0.2523
22233W        W26533   1.937   0.923  32.654 -0.1172  0.0683 -0.3721
22234W        W26534   4.885   3.921  32.761  0.1586  0.0579 -0.2379
22235W        W26535   6.877   5.323  13.865  0.1155 -0.0088  0.0007
22236W        W26536   3.845   1.509   9.640  0.1509  0.3446 -0.3552
22237W        W26537   9.839   7.670  29.863 -0.0758  0.0156 -0.0078
22238W        W26538  24.551   7.547   5.859  0.0190  0.0023 -0.1145
22239W        W26539   4.270   6.836   1.423 -0.4530 -0.0770  0.0650
22240W        W26540  22.747   5.230  24.097 -0.2008  0.1014  0.0060
22241W        W26541  10.859   3.832   7.048  0.0685  0.1342  0.0556
22242W        W26542  10.505   1.358   6.886  0.3185  0.4127 -0.2794
22243W        W26543   6.918   6.500  30.417  0.2399  0.1468 -0.0100
22244W        W26544   9.012   4.386  10.606  0.1943 -0.1762  0.0590
22245W        W26545  21.052   6.626  12.046  0.1026  0.0298  0.3088
22246W        W26546   3.061   3.540  24.880 -0.2176  0.1927 -0.0985
22247W        W26547   2.972   0.394  22.187 -0.1425 -0.0001  0.1595
22248W        W26548  11.002   4.884   9.762 -0.3183  0.3204  0.0247
22249W        W26549  19.016   4.399  32.285  0.0660 -0.6099  0.1962
22250W        W26550   0.653   0.898   4.935  0.3297  0.2008  0.2256
22251W        W26551  16.770   6.026   8.905 -0.0157 -0.1338  0.0771
22252W        W26552   0.733   6.537  16.117 -0.0570 -0.0537  0.3821
22253W        W26553  12.724   5.692   4.734  0.1049 -0.1538 -0.1381
22254W        W26554  20.482   4.489   9.397  0.0718 -0.2248 -0.2663
22255W        W26555  12.143   3.327  25.462  0.4936 -0.2018 -0.0659
22256W        W26556  21.573   3.559   1.190  0.0536  0.1315  0.1461
22257W        W26557   7.548   0.958  32.750  0.1351  0.1603  0.1801
22258W        W26558  17.226   5.420  23.528  0.0911 -0.2053  0.1810
22259W        W26559  17.148   0.665  32.825  0.3053  0.2676  0.1425
22260W        W26560  19.252   1.432  10.080 -0.0911 -0.2053  0.0824
22261W        W26561  15.153   5.495  15.303 -0.1380  0.0794  0.2542
22262W        W26562  21.115   5.457  30.999 -0.1284 -0.3854  0.1271
22263W        W26563   7.174   1.801  15.936  0.0846  0.0421 -0.0444
22264W        W26564  15.786   4.509  23.679  0.0565  0.0197  0.0400
22265W        W26565  19.433   0.802   1.247 -0.0125 -0.1820 -0.0130
22266W        W26566  16.537   0.288   7.438  0.0152 -0.4585 -0.0441
22267W        W26567  13.980   3.332  19.590  0.0761  0.0840 -0.0858
22268W        W26568   7.006   2.076  12.680  0.0410  0.0349  0.1165
22269W        W26569  16.458   0.771  28.266  0.1641 -0.2496 -0.1069
22270W        W26570   6.012   6.617   1.679  0.0316 -0.0988  0.2144
22271W        W26571   2.228   7.002  12.381 -0.1822 -0.1612  0.3457
22272W        W26572  12.723   4.538  23.897  0.0547  0.0278  0.1801
22273W        W26573  14.915   7.048  31.897  0.1769 -0.0252 -0.3235
22274W        W26574   1.948   4.465   1.913 -0.3494 -0.0278 -0.0993
22275W        W26575   9.145   4.303   5.699  0.0433  0.4351  0.2157
22276W        W26576   9.435   3.619   8.827  0.1306 -0.0388  0.0215
22277W        W26577  24.941   2.255   3.483  0.2264  0.2482 -0.0612
22278W        W26578   4.464   6.471  28.541  0.1341 -0.3243 -0.0325
22279W        W26579  18.640   6.151   3.587  0.0387 -0.0504 -0.1351
22280W        W26580   9.336   0.473   9.607  0.1052 -0.0187 -0.0785
22281W        W26581   9.713   4.620  10.124  0.2940  0.2708 -0.0881
22282W        W26582  13.985   7.184   6.975  0.0789  0.0934  0.3470
22283W        W26583  20.310   7.493  31.220  0.2181 -0.1177 -0.0911
22284W        W26584  18.290   4.523  29.646 -0.1163 -0.2066 -0.0360
22285W        W26585  22.527   4.189  29.370 -0.2721  0.1402  0.1201
22286W        W26586  18.470   0.969   9.173 -0.3842  0.4977 -0.2991
22287W        W26587   5.148   4.061   6.674 -0.2222  0.1712  0.3149
22288W        W26588  17.411   0.417  32.031 -0.0773  0.1502  0.3654
22289W        W26589  19.007   5.321   2.077 -0.3380 -0.3934  0.2444
22290W        W26590   6.396   0.070  11.111 -0.1383 -0.1728 -0.1124
22291W        W26591   1.561   3.116   8.457  0.0943 -0.0573  0.1304
22292W        W26592   3.772   7.045  15.565 -0.0832  0.0215 -0.0045
22293W        W26593  21.500   4.347   6.866 -0.1028 -0.0235  0.3546
22294W        W26594   4.516   4.952  24.720  0.2489  0.0454 -0.0988
22295W        W26595  15.162   3.082  18.087 -0.2101 -0.1511  0.2829
22296W        W26596   7.391   0.170  26.642  0.0106 -0.0337  0.2335
22297W        W26597  17.102   0.655  18.976 -0.1075 -0.2522  0.0920
22298W        W26598  11.055   5.459  26.424 -0.0399 -0.1153  0.0452
22299W        W26599   4.694   2.253   6.448  0.0304 -0.1573 -0.1963
22300W        W26600  24.078   5.545  14.065  0.2235 -0.2433 -0.1646
22301W        W26601  12.863   6.484  22.005 -0.2372  0.2575 -0.0517
22302W        W26602  24.473   4.121   9.183  0.0224  0.1371 -0.0835
22303W        W26603  13.075   2.288  21.304  0.3224 -0.0054  0.0480
22304W        W26604   1.527   0.189   8.036  0.0644 -0.2656  0.2332
22305W        W26605  16.809   1.864   0.016 -0.2938 -0.0208  0.1709
22306W        W26606  23.253   2.772  32.667  0.1938  0.2034 -0.3338
22307W        W26607  20.254   2.248   2.703 -0.2955 -0.0140  0.1671
22308W        W26608   8.830   5.737  29.797  0.0152  0.0086  0.1239
22309W        W26609  21.850   2.702   5.553  0.0662 -0.1110 -0.0694
22310W        W26610   4.106   7.578  27.775 -0.1447 -0.1341  0.0944
22311W        W26611  12.447   0.806  30.553 -0.0213  0.1346 -0.0458
22312W        W26612   0.107   5.221   6.308  0.1218 -0.1185  0.1837
22313W        W26613   7.011   7.431   8.638 -0.1536 -0.1944  0.1040
22314W        W26614  17.048   1.531  30.825 -0.1940 -0.1661  0.0528
22315W        W26615  12.786   0.082  29.037  0.1640  0.2734 -0.2363
22316W        W26616  20.998   7.600   6.158 -0.1793 -0.2225  0.1683
22317W        W26617  11.632   0.687  26.115  0.1492  0.2057 -0.0808
22318W        W26618  22.037   0.545   8.682 -0.1336  0.2325 -0.2315
22319W        W26619  16.992   2.633  26.768 -0.2693  0.1736  0.3343
22320W        W26620  21.058   3.236  23.753  0.0550  0.0359 -0.3625
22321W        W26621  14.277   6.229  16.760 -0.0542  0.2025  0.4385
22322W        W26622   2.671   0.844   3.430 -0.0838 -0.0273 -0.0520
22323W        W26623   5.136   1.097  22.903 -0.1369  0.0679 -0.1878
22324W        W26624  10.238   4.115  29.855  0.4030 -0.0614  0.3957
22325W        W26625  14.757   0.728  18.548  0.0283  0.2821 -0.0943
22326W        W26626  11.068   1.840  10.672  0.2900 -0.0338 -0.1431
22327W        W26627   4.754   1.458  11.041 -0.0289  0.0033  0.0168
22328W        W26628  23.694   3.099  26.287  0.1840 -0.1155 -0.2355
22329W        W26629  23.495   4.831   5.396  0.1599  0.0663  0.2511
22330W        W26630  16.956   3.074  27.099 -0.2105  0.1376  0.0611
22331W        W26631  16.424   4.344  18.959  0.2374 -0.0502  0.2064
22332W        W26632  22.326   1.591  12.738  0.0358 -0.0641  0.2372
22333W        W26633  19.266   1.479   6.177  0.0125 -0.0409  0.1024
22334W        W26634  16.434   3.591   9.955 -0.2310 -0.1507 -0.4838
22335W        W26635   8.058   2.734   7.181 -0.0702 -0.1314 -0.0958
22336W        W26636  21.977   3.082  29.848  0.2505  0.1615  0.3299
22337W        W26637   4.648   3.515   1.351  0.0027  0.2491 -0.1409
22338W        W26638  23.733   5.974  23.459 -0.0831  0.0515  0.4410
22339W        W26639  15.659   7.432   0.096  0.1863 -0.0004 -0.3214
22340W        W26640  22.678   3.792  30.563  0.0086  0.2426  0.3287
22341W        W26641   0.951   0.059  24.706 -0.0728 -0.4449 -0.1963
22342W        W26642  19.647   6.797   4.396  0.0455  0.0834 -0.0685
22343W        W26643  10.441   0.014  22.281  0.0876  0.0277  0.1479
22344W        W26644  16.283   1.030   1.202  0.0021  0.1185 -0.2938
22345W        W26645  24.810   5.589  10.728  0.2067 -0.0328  0.0821
22346W        W26646  10.349   1.071   2.030 -0.3535  0.0105  0.4753
22347W        W26647   3.054   7.686  13.392 -0.1123 -0.0979 -0.0150
22348W        W26648  12.753   1.698   0.081  0.2531 -0.2009 -0.2026
22349W        W26649  19.608   1.359  24.638 -0.0058 -0.2334 -0.0252
22350W        W26650  12.702   4.396  27.665  0.4655 -0.2995 -0.0445
22351W        W26651  14.667   0.710  26.643 -0.2866  0.0715  0.1245
22352W        W26652  21.420   5.160  21.989 -0.2647  0.1302  0.3368
22353W        W26653  18.914   5.776  32.973  0.4705 -0.0063  0.2924
22354W        W26654   8.574   3.904  24.455 -0.1961 -0.0976 -0.2705
22355W        W26655   9.315   5.232   7.949 -0.0247 -0.1195 -0.0347
22356W        W26656  16.395   5.457  24.705  0.0269  0.1573  0.1184
22357W        W26657   9.064   3.232   2.002  0.0361 -0.3713  0.3047
22358W        W26658   0.358   6.368   3.770  0.0058 -0.0900 -0.0383
22359W        W26659  24.925   1.380   6.156 -0.2811 -0.0518 -0.3136
22360W        W26660  12.157   1.676   1.137 -0.2676 -0.2350 -0.0563
22361W        W26661   8.748   7.466   7.749  0.1377 -0.0972  0.2856
22362W        W26662   8.066   5.564   7.743  0.1274  0.1298  0.3094
22363W        W26663  24.925   2.359  12.894 -0.0109 -0.4007 -0.1241
22364W        W26664   7.546   1.876   6.031 -0.0480  0.0548  0.0115
22365W        W26665   1.222   6.684  22.955 -0.0782  0.2206  0.2507
22366W        W26666   7.170   6.122   8.863 -0.0047  0.1598  0.3370
22367W        W26667  22.966   0.593  29.887 -0.0930 -0.0191  0.1955
22368W        W26668   7.638   3.199  10.672 -0.0167  0.0625 -0.0384
22369W        W26669  20.429   0.840  27.635  0.2782 -0.0874 -0.0453
22370W        W26670   5.260   6.475  15.085 -0.2679 -0.1683  0.2237
22371W        W26671  21.525   3.692  30.210 -0.0568 -0.0162  0.1048
22372W        W26672   2.543   6.487  32.321 -0.1016 -0.1839 -0.2079
22373W        W26673  13.425   2.267  16.643  0.2177 -0.0459  0.0607
22374W        W26674   0.485   4.513  31.490 -0.1464  0.0730  0.1083
22375W        W26675  10.447   0.607   3.778  0.3136  0.2012  0.3177
22376W        W26676  13.267   6.639  18.404  0.0883 -0.1712  0.1008
22377W        W26677  13.292   6.125   3.331 -0.2273 -0.2553  0.1426
22378W        W26678   9.911   2.117  27.788 -0.0238 -0.0706  0.2533
22379W        W26679  10.133   1.908  28.169  0.1238  0.4133 -0.0356
22380W        W26680   9.603   7.026  24.875 -0.1500 -0.3248 -0.0755
22381W        W26681   1.764   4.750   3.282  0.1530 -0.0452 -0.2056
22382W        W26682   5.653   3.781  29.239 -0.0720 -0.0881  0.1079
22383W        W26683  18.877   0.767  16.680 -0.0927 -0.1370  0.1448
22384W        W26684  17.001   2.721   2.472  0.1072 -0.1467  0.3792
22385W        W26685   3.882   3.261  25.263 -0.1981 -0.0874 -0.0981
22386W        W26686  21.741   0.490  22.904 -0.1512  0.0904  0.0977
22387W        W26687   5.217   5.592  29.841  0.2695  0.0068 -0.0062
22388W        W26688  23.708   2.267  20.007  0.0346  0.1940 -0.0826
22389W        W26689  23.257   2.573  24.588  0.2637 -0.0753  0.1314
22390W        W26690  14.136   4.570  25.154  0.2018  0.2699 -0.0033
22391W        W26691  11.955   3.837  22.196  0.2523 -0.0905  0.1459
22392W        W26692  19.246   0.983   9.891 -0.1032 -0.1246 -0.1568
22393W        W26693   9.147   7.234   0.120 -0.1245  0.1776  0.1546
22394W        W26694   0.866   4.926   0.686 -0.2626  0.0811 -0.0224
22395W        W26695  18.451   1.872   6.964 -0.0415 -0.0196 -0.1394
22396W        W26696  23.642   2.234   9.870 -0.0828  0.2343  0.0797
22397W        W26697   3.305   2.031   2.490  0.0780  0.0654 -0.1534
22398W        W26698  16.085   5.821  10.049  0.2676  0.0999 -0.0476
22399W        W26699  19.905   4.165  20.712 -0.1221  0.1658  0.1525
22400W        W26700   2.272   2.511  17.959  0.3658  0.0853 -0.1733
22401W        W26701   4.570   2.618  31.645  0.0282  0.2395 -0.0115
22402W        W26702  17.567   5.444   2.494 -0.0219 -0.0748 -0.0135
22403W        W26703  10.057   1.176   2.727 -0.0478  0.0098  0.0227
22404W        W26704   4.208   2.400   3.196 -0.1067 -0.0054 -0.0267
22405W        W26705  18.888   7.567   9.508  0.0754 -0.2146  0.0408
22406W        W26706  17.485   2.130  32.250 -0.0952 -0.0511 -0.2298
22407W        W26707  14.743   5.115  25.685  0.0220 -0.3201 -0.0864
22408W        W26708   9.166   4.610  26.001  0.0581  0.1409  0.0833
22409W        W26709  24.878   0.900   8.672  0.2368 -0.2242  0.0896
22410W        W26710  16.825   1.964  31.165 -0.2359  0.0261  0.0143
22411W        W26711   1.607   7.421  10.479 -0.1126  0.4962  0.0648
22412W        W26712  13.607   7.694  28.495 -0.0899  0.0296  0.0752
22413W        W26713   1.374   0.209  28.379  0.1194 -0.2202  0.3841
22414W        W26714   8.515   4.058   3.804  0.0614  0.2999  0.2918
22415W        W26715   3.277   7.762  23.924 -0.1502  0.1330  0.2766
22416W        W26716  13.355   3.663   6.107  0.2270 -0.1907 -0.1156
22417W        W26717   0.230   0.405  13.316 -0.1220 -0.0988 -0.0711
22418W        W26718  14.367   7.733  30.394 -0.0016  0.3785  0.0365
22419W        W26719  10.187   0.107   9.702 -0.2699 -0.1637  0.0370
22420W        W26720   9.411   6.039   3.349 -0.0322 -0.0069  0.2397
22421W        W26721   4.732   0.433  30.653 -0.3992  0.1797  0.2796
22422W        W26722   6.534   6.267   6.532  0.3419  0.0304 -0.0194
22423W        W26723   8.156   6.684  16.605  0.1486 -0.2454 -0.1059
22424W        W26724  21.123   6.630   5.065  0.1473  0.0408  0.2312
22425W        W26725  13.196   4.682  16.235 -0.0851  0.0126 -0.0171
22426W        W26726  24.256   2.722  12.045 -0.0917  0.2051  0.2150
22427W        W26727  10.106   5.264  31.078 -0.0360 -0.2795 -0.1703
22428W        W26728   6.339   6.980  32.665 -0.2466 -0.0451 -0.0102
22429W        W26729  13.586   6.240  24.824  0.0223  0.2560  0.1843
22430W        W26730   8.934   4.901   6.831  0.2978  0.0695  0.0118
22431W        W26731   8.798   5.943  23.075  0.1369  0.0526  0.1037
22432W        W26732   9.163   7.432  12.873 -0.1954 -0.0974 -0.1215
22433W        W26733  23.836   4.573   0.444  0.4234 -0.1520  0.1383
22434W        W26734  13.878   1.184  16.308 -0.1739  0.2875 -0.1816
22435W        W26735  21.034   5.936  19.612 -0.0220  0.0858  0.1298
22436W        W26736  17.687   0.083   6.526 -0.0211  0.0772  0.1216
22437W        W26737  19.907   3.756  29.511  0.1749 -0.1507  0.0254
22438W        W26738   8.642   6.280  12.528  0.0571 -0.0017 -0.3067
22439W        W26739  17.260   0.861   7.375  0.3045  0.1390  0.2212
22440W        W26740  17.122   0.344  29.967  0.2623  0.1129  0.1788
22441W        W26741   4.603   1.497   6.408 -0.1472 -0.0225 -0.0515
22442W        W26742  22.154   5.005   2.201  0.1360 -0.2024 -0.2151
22443W        W26743  15.539   2.961  29.580  0.1195 -0.3002  0.2550
22444W        W26744  20.215   3.881  18.692 -0.4050 -0.3358  0.0571
22445W        W26745   4.184   5.194   4.838 -0.0160 -0.2571 -0.3657
22446W        W26746  18.520   3.971  20.166  0.1221  0.1170 -0.1517
22447W        W26747   8.671   3.135   8.087  0.2162  0.0846 -0.0666
22448W        W26748  20.566   0.902   3.509  0.2148  0.4003 -0.0308
22449W        W26749  16.329   1.803  19.650 -0.4588 -0.0095 -0.1417
22450W        W26750  12.821   6.277  32.666  0.2231 -0.0086 -0.1617
22451W        W26751  16.756   4.950   4.687 -0.2777  0.0210 -0.0556
22452W        W26752  13.485   2.831  26.626 -0.1310  0.2824  0.1221
22453W        W26753  19.424   0.968   7.973  0.0221 -0.0101  0.0881
22454W        W26754   2.935   6.670  13.547 -0.1335  0.0491  0.1325
22455W        W26755  13.335   6.830   6.040 -0.1590  0.2302 -0.2568
22456W        W26756  18.055   4.470  21.821  0.1793  0.1761 -0.1237
22457W        W26757  16.231   0.103  14.216 -0.1106 -0.1772 -0.2935
22458W        W26758   5.736   0.528  13.675 -0.3044 -0.1263  0.0637
22459W        W26759  19.019   4.528   6.214 -0.3333 -0.2175  0.3000
22460W        W26760  11.083   6.055   6.290  0.1571  0.2550  0.2583
22461W        W26761  24.845   4.082  13.394 -0.3705 -0.3463 -0.0622
22462W        W26762   2.911   6.234  27.666  0.1403 -0.1059  0.1192
22463W        W26763  19.717   6.617  28.534  0.0458  0.1057 -0.1757
22464W        W26764  12.054   3.638   8.622 -0.2444  0.0588 -0.0571
22465W        W26765  14.682   4.483  32.685  0.1285 -0.1033  0.2243
22466W        W26766   7.364   5.380   8.199 -0.1636  0.1236  0.1768
22467W        W26767  17.841   2.022  23.107 -0.0477  0.0737  0.0532
22468W        W26768  17.257   1.621   2.737  0.3457 -0.4238  0.2439
22469W        W26769   2.217   1.654  16.549 -0.1468  0.0795  0.0869
22470W        W26770  18.861   2.335  32.426 -0.1030 -0.0082  0.0083
22471W        W26771   2.560   6.986   8.292 -0.3733  0.0597 -0.1681
22472W        W26772  23.368   3.469  31.141 -0.1530 -0.0199 -0.0688
22473W        W26773  19.309   7.528  29.925 -0.0099 -0.1801  0.1905
22474W        W26774  20.648   0.598   3.115  0.0681 -0.0435 -0.3154
22475W        W26775  21.384   3.868   8.553 -0.0727 -0.2859 -0.0965
22476W        W26776  15.517   5.440  17.177 -0.0180 -0.1139  0.0201
22477W        W26777  17.063   5.738   8.622  0.2011 -0.0313  0.0380
22478W        W26778  20.342   3.634   1.504 -0.2953 -0.2163  0.0660
22479W        W26779  11.618   6.840  20.987 -0.1771  0.0339 -0.0133
22480W        W26780  14.105   4.039   4.976  0.1735 -0.3928  0.0163
22481W        W26781  18.675   1.525  17.041 -0.2457 -0.0006  0.0363
22482W        W26782  24.867   0.294  15.095 -0.2265 -0.1947  0.1646
22483W        W26783  15.995   2.885   4.473 -0.1262 -0.0584  0.0732
22484W        W26784  17.963   5.765  18.921  0.1426 -0.0341  0.2243
22485W        W26785   9.467   5.476   8.901 -0.0325 -0.0451 -0.0149
22486W        W26786  11.747   7.708  32.052 -0.1378  0.0228  0.3062
22487W        W26787   9.429   0.692  10.572  0.1294 -0.2027  0.0175
22488W        W26788  24.924   0.775  24.636 -0.1102 -0.1572 -0.2872
22489W        W26789   1.474   7.175   7.331  0.0158 -0.0639 -0.1265
22490W        W26790   3.950   5.794  29.240  0.3291 -0.0561  0.0712
22491W        W26791  15.962   2.592  17.243 -0.1758  0.0689 -0.1915
22492W        W26792  24.116   4.777  12.623 -0.1845 -0.0801  0.0568
22493W        W26793  17.858   2.913   3.540  0.1094  0.1173  0.2261
22494W        W26794  16.604   2.063  27.521 -0.0755 -0.0690 -0.1158
22495W        W26795  17.587   4.693   6.480  0.1300  0.1903  0.0461
22496W        W26796   1.740   3.909  10.495  0.3076  0.0819  0.2576
22497W        W26797  22.816   4.850   2.726  0.0042  0.0558 -0.0710
22498W        W26798  16.107   5.725  14.815  0.2301  0.1623  0.0831
22499W        W26799   9.987   2.532  19.841  0.1033  0.1296 -0.0287
22500W        W26800   0.047   5.647  25.464 -0.2744 -0.0745  0.0065
22501W        W26801   6.448   0.065  32.549  0.1709  0.0383  0.3055
22502W        W26802   2.376   0.172  31.628 -0.2912  0.0767 -0.0869
22503W        W26803   8.147   0.008   5.058 -0.1071 -0.0837  0.0241
22504W        W26804  13.976   2.029   4.059 -0.1448  0.0346  0.2063
22505W        W26805   4.757   0.971  28.189 -0.0325  0.1400  0.0486
22506W        W26806  19.454   6.567  30.535  0.1173  0.1673 -0.2432
22507W        W26807   8.639   2.258  28.511  0.0121 -0.4226  0.2057
22508W        W26808  17.757   6.172   5.257 -0.0227 -0.1540 -0.2296
22509W        W26809  20.043   0.438  11.360  0.0478 -0.1205  0.2032
22510W        W26810  12.614   1.980   7.058 -0.0368  0.1923  0.1986
22511W        W26811  23.869   1.024   4.675 -0.0502 -0.0764  0.1928
22512W        W26812   8.870   1.640   9.223  0.1135 -0.0321 -0.1346
22513W        W26813   4.753   3.408  14.426 -0.4350  0.0965  0.1725
22514W        W26814   4.465   0.951  23.661 -0.0601 -0.2764  0.0832
22515W        W26815  17.561   6.487   8.888 -0.3306  0.0048 -0.0016
22516W        W26816  10.558   0.105  27.485 -0.0090 -0.1856  0.0174
22517W        W26817  21.023   0.797  10.972  0.0622  0.1148  0.0654
22518W        W26818  13.306   7.317   0.208 -0.0596 -0.1494 -0.2696
22519W        W26819   1.569   5.978  30.763 -0.1260 -0.0610  0.0085
22520W        W26820  16.480   3.448  20.966 -0.0786  0.0152  0.1527
22521W        W26821   9.368   0.362  28.699 -0.0414 -0.0146 -0.1098
22522W        W26822   1.229   0.435   9.877  0.1634  0.2161  0.5755
22523W        W26823   3.440   1.011  29.008 -0.2330 -0.3819 -0.0484
22524W        W26824  16.414   0.423   3.996 -0.1257 -0.1971 -0.2291
22525W        W26825  16.972   3.875  20.655 -0.4210 -0.1432  0.1246
22526W        W26826   7.129   5.034  17.755 -0.2881  0.2438  0.3280
22527W        W26827  17.457   1.973   1.530  0.0581  0.6156 -0.2360
22528W        W26828  17.372   5.227   2.935 -0.0826 -0.3404 -0.1132
22529W        W26829   3.565   4.300   0.346 -0.0865 -0.0485  0.1618
22530W        W26830   8.867   0.153  21.655 -0.3509 -0.2475  0.1596
22531W        W26831   3.155   1.628   2.783 -0.1220 -0.1556 -0.0712
22532W        W26832  21.278   2.490  24.940  0.0957  0.0042 -0.1883
22533W        W26833  21.396   5.683  10.642  0.0729 -0.3255  0.0031
22534W        W26834   2.204   2.812  12.089  0.1788 -0.3349  0.0009
22535W        W26835  14.036   6.017  18.552  0.0781 -0.0821 -0.2555
22536W        W26836  10.557   3.234  28.423  0.0011  0.1933 -0.0446
22537W        W26837  15.919   4.069  17.718  0.0207 -0.0781 -0.2698
22538W        W26838   7.108   3.588   1.946 -0.0722  0.2854  0.1191
22539W        W26839  19.977   1.266  30.434  0.1206 -0.2749  0.1086
22540W        W26840  11.289   5.710  30.801  0.0618 -0.2224 -0.1295
22541W        W26841  11.866   4.730  23.587  0.3631  0.2930  0.0871
22542W        W26842   6.460   6.103  27.942  0.0407 -0.0333  0.0123
22543W        W26843  15.806   2.444  31.145 -0.0233  0.1244 -0.0332
22544W        W26844  21.387   6.011  28.894 -0.1478 -0.1828 -0.0645
22545W        W26845   0.398   3.006  24.170  0.3133 -0.2263  0.0837
22546W        W26846   5.840   7.219  26.995 -0.0069 -0.1288 -0.0976
22547W        W26847  17.798   2.801  32.120  0.0552  0.1521  0.1954
22548W        W26848  19.126   6.691   7.253  0.1245  0.1786 -0.3022
22549W        W26849  10.902   4.886  10.639  0.0291 -0.0695 -0.3620
22550W        W26850   2.054   0.079  25.681 -0.1584  0.1416  0.0388
22551W        W26851   4.724   3.420  28.395  0.1850 -0.2418  0.0453
22552W        W26852   2.800   1.905  24.434 -0.1696 -0.0609 -0.0992
22553W        W26853   8.042   3.510   2.718 -0.0840 -0.0901  0.0975
22554W        W26854   1.963   2.824  29.918  0.3814  0.1283  0.0661
22555W        W26855   7.552   2.504   2.418  0.2526  0.2409 -0.1470
22556W        W26856  16.415   5.097   7.281  0.1640 -0.0254  0.3707
22557W        W26857  15.289   4.957  21.875  0.1841 -0.1051  0.0521
22558W        W26858  12.708   7.236  19.165 -0.0600  0.2038  0.1440
22559W        W26859  19.838   1.691  30.176  0.0200 -0.0190  0.1953
22560W        W26860  19.544   6.785   8.983  0.1046  0.0601 -0.2580
22561W        W26861  15.170   2.258   6.744 -0.1740 -0.2042  0.0604
22562W        W26862  20.083   6.568  24.287  0.1229 -0.0166  0.0050
22563W        W26863   8.580   6.555  32.478 -0.1183  0.0662 -0.2732
22564W        W26864   1.265   3.860  22.405 -0.1843 -0.2370 -0.0310
22565W        W26865   8.433   5.019  29.423 -0.1452 -0.3252  0.1194
22566W        W26866  23.453   6.529  28.640  0.0916  0.3873  0.0208
22567W        W26867  24.652   4.355   3.851 -0.0994 -0.1851 -0.1385
22568W        W26868  17.625   4.488   8.460  0.1492 -0.1542 -0.2545
22569W        W26869  10.602   6.364   7.534 -0.2296 -0.4036 -0.0357
22570W        W26870  24.486   6.987   9.871 -0.2548  0.1860  0.3969
22571W        W26871   3.025   0.473  24.351 -0.0058 -0.1226 -0.0879
22572W        W26872  14.308   2.186  26.971  0.2118 -0.1007 -0.3956
22573W        W26873  17.535   2.269  27.380  0.0552 -0.0730  0.2932
22574W        W26874  15.504   5.811  17.557 -0.0094  0.0601 -0.0046
22575W        W26875  16.197   2.473   2.354 -0.1335 -0.0782 -0.0444
22576W        W26876  20.710   1.777  23.345  0.1275 -0.1050 -0.2236
22577W        W26877   5.175   2.411  27.211 -0.0202  0.1736  0.1461
22578W        W26878   0.408   5.860  27.113  0.0246 -0.1571 -0.2459
22579W        W26879  13.709   3.262  28.867  0.5542 -0.2050 -0.1026
22580W        W26880  20.805   4.524  28.232  0.1694  0.0564 -0.0750
22581W        W26881  17.743   1.933   7.679 -0.0151  0.1424 -0.0792
22582W        W26882   6.530   6.577  31.861  0.0131  0.2443  0.1792
22583W        W26883   0.247   3.280   2.451  0.1371 -0.1462  0.3974
22584W        W26884   7.200   0.994  10.454 -0.1143  0.1920  0.3005
22585W        W26885  24.641   6.866   1.587 -0.4242 -0.0548 -0.3528
22586W        W26886   2.999   3.690   6.573  0.1851  0.1956 -0.0627
22587W        W26887  17.237   1.691  30.430  0.1163 -0.0107 -0.2144
22588W        W26888   1.732   7.294   2.236  0.2744  0.0018  0.1028
22589W        W26889   8.450   7.107  12.027 -0.1055  0.1866 -0.0479
22590W        W26890  19.794   4.872  23.950 -0.0960 -0.2559  0.0561
22591W        W26891  16.737   4.406  27.714 -0.1393 -0.0039 -0.1290
22592W        W26892  22.357   4.450  27.536  0.0181  0.0448  0.0052
22593W        W26893  22.258   0.542   1.074  0.3878  0.0663  0.1999
22594W        W26894  11.949   6.641  10.805 -0.0347  0.0070 -0.2653
22595W        W26895   5.727   3.539  12.324 -0.0593 -0.1567  0.0175
22596W        W26896  21.792   4.587   2.872 -0.0475  0.2909 -0.0120
22597W        W26897  24.626   7.156  15.016 -0.2748  0.1265 -0.0892
22598W        W26898  17.880   0.040  23.288  0.1344  0.4026  0.0065
22599W        W26899   3.244   7.293  12.141  0.0765 -0.1987 -0.2220
22600W        W26900  17.210   0.434  17.545  0.2315  0.1235 -0.1665
22601W        W26901   8.034   3.518  32.379  0.3196 -0.2891  0.1780
22602W        W26902  11.143   3.768  11.199 -0.0940 -0.1266  0.1486
22603W        W26903  17.632   4.170  16.219 -0.1513 -0.4245  0.0534
22604W        W26904  17.047   5.154  19.147 -0.1337  0.0770 -0.2054
22605W        W26905  24.062   4.277  14.431  0.1486 -0.0270  0.0337
22606W        W26906  15.455   4.839  28.900 -0.0307 -0.0193 -0.3276
22607W        W26907   7.165   2.713  29.593 -0.1021  0.0633 -0.5568
22608W        W26908  12.245   0.761  32.088  0.0493  0.3171 -0.2119
22609W        W26909   9.004   0.141   9.340  0.0387 -0.1291 -0.4577
22610W        W26910  17.408   6.035  21.206 -0.0681 -0.1503  0.1365
22611W        W26911  14.526   6.805   7.472  0.0300 -0.1481  0.2772
22612W        W26912   0.383   1.968  15.334 -0.1190  0.0335  0.0165
22613W        W26913  11.466   3.767  19.767  0.2392 -0.3195 -0.0601
22614W        W26914  12.301   4.764   2.637  0.0090  0.2715  0.0883
22615W        W26915  18.181   7.326  29.096 -0.1999 -0.1676 -0.2087
22616W        W26916   2.082   7.592  24.472 -0.1810  0.0474 -0.1166
22617W        W26917   5.275   4.739  18.052 -0.2586  0.0680  0.1135
22618W        W26918   9.540   2.521  29.059 -0.1319 -0.1349 -0.0612
22619W        W26919  22.117   6.777  11.253 -0.1166 -0.1631  0.3588
22620W        W26920   9.063   2.762  24.838  0.1446  0.0551 -0.3722
22621W        W26921   1.074   6.792  23.724  0.4398 -0.1393 -0.1445
22622W        W26922  17.876   3.148   4.051 -0.2873  0.2274 -0.0813
22623W        W26923  17.400   5.747  18.752 -0.1070  0.0326 -0.2543
22624W        W26924   0.172   6.910  10.984  0.2933 -0.0397 -0.2615
22625W        W26925  13.143   3.264  21.483 -0.0250 -0.0545  0.1099
22626W        W26926  22.768   0.525  30.595 -0.0229 -0.3335 -0.2099
22627W        W26927   9.817   1.376  10.972  0.0184  0.3170  0.0563
22628W        W26928   9.457   0.188  24.968 -0.0430 -0.0131  0.0309
22629W        W26929  16.699   0.167   9.003  0.0161 -0.5558  0.1046
22630W        W26930   2.825   2.534   1.354  0.0157  0.0484  0.1788
22631W        W26931   0.661   5.655   7.526 -0.1315 -0.0924 -0.0720
22632W        W26932   7.156   4.424  32.966 -0.1028  0.1050  0.1557
22633W        W26933   2.879   2.621  17.407 -0.2218 -0.3065  0.1330
22634W        W26934  21.007   0.889  26.195 -0.3863  0.1295  0.1032
22635W        W26935   3.517   6.393  14.887  0.3186  0.5660  0.2520
22636W        W26936  23.332   6.624   1.031 -0.1254 -0.0161 -0.3457
22637W        W26937  10.895   3.544  31.122 -0.0625 -0.0422  0.0699
22638W        W26938   4.620   1.046  32.626  0.3228 -0.0919  0.0740
22639W        W26939  20.481   5.710  22.247 -0.1542  0.0386 -0.0716
22640W        W26940  20.433   1.801  25.296  0.0277  0.2077  0.0223
22641W        W26941  18.076   3.975  21.132  0.0363 -0.0003  0.0866
22642W        W26942  11.971   0.224   1.916  0.1914  0.0710  0.0289
22643W        W26943  21.785   3.774  11.792  0.0314 -0.2214 -0.1782
22644W        W26944  18.818   7.414  28.039 -0.1527 -0.0144  0.1037
22645W        W26945  12.724   0.953   5.501 -0.0877 -0.1862 -0.2494
22646W        W26946  24.193   3.803   1.434 -0.2469 -0.3501 -0.1683
22647W        W26947  22.029   3.617  21.290  0.4845 -0.2481 -0.0236
22648W        W26948  18.672   1.498  17.984  0.4755 -0.2150  0.1259
22649W        W26949   2.675   7.766  22.837 -0.1293  0.1274  0.0766
22650W        W26950  22.091   7.778  29.046 -0.0534 -0.3177 -0.1235
22651W        W26951  22.720   3.864   6.013  0.1474 -0.2618 -0.2141
22652W        W26952  12.240   0.913  27.336 -0.1511  0.2715 -0.0163
22653W        W26953   7.642   6.952  23.274 -0.0721 -0.0413  0.0354
22654W        W26954   9.758   7.503   7.741  0.0862 -0.1456  0.0362
22655W        W26955   7.522   1.211   3.091  0.2344 -0.2001  0.1334
22656W        W26956   6.535   4.116  14.120 -0.2087 -0.0374 -0.1804
22657W        W26957  10.485   6.768  20.919 -0.2226  0.0250  0.1302
22658W        W26958   4.093   6.218  30.761  0.0166  0.2754  0.1463
22659W        W26959  24.238   1.098  31.504 -0.3539  0.2093  0.1284
22660W        W26960  23.056   0.886   9.295  0.1958  0.1613  0.1986
22661W        W26961  12.664   7.295  24.896  0.0661  0.1383  0.3145
22662W        W26962  16.753   1.694   3.862 -0.1409 -0.0339  0.1563
22663W        W26963   8.139   2.606   8.842  0.0604 -0.0904 -0.0592
22664W        W26964   9.115   0.915  31.468 -0.0538 -0.2130 -0.3560
22665W        W26965  16.597   6.182  16.903 -0.1123  0.0045  0.2447
22666W        W26966  16.841   4.094  29.958  0.2066  0.1339 -0.1500
22667W        W26967  11.620   1.169   5.481 -0.2598 -0.0725 -0.0398
22668W        W26968  21.645   1.726   7.643 -0.0819 -0.2393  0.1549
22669W        W26969  15.206   3.032  24.544 -0.0814  0.1095  0.2965
22670W        W26970   8.614   5.521  32.226  0.1753 -0.2919 -0.1359
22671W        W26971  12.650   3.650   5.512  0.1052  0.0708 -0.1097
22672W        W26972  10.697   0.399  11.419  0.1001  0.0362 -0.3205
22673W        W26973   8.390   3.848  28.501  0.1935 -0.0217  0.1616
22674W        W26974   2.931   5.865   1.027  0.2483  0.1085  0.1231
22675W        W26975  24.017   1.744  14.931 -0.1555 -0.4413 -0.3216
22676W        W26976  22.823   4.603  25.439  0.1064  0.2025  0.2169
22677W        W26977   1.254   6.639   2.668 -0.1654 -0.2336 -0.3551
22678W        W26978  20.117   5.007   8.597 -0.0959  0.2383  0.2629
22679W        W26979  18.471   6.284   4.924 -0.4858 -0.0579 -0.0910
22680W        W26980  13.064   6.613  25.486  0.0474 -0.0869  0.0308
22681W        W26981   5.488   4.955  24.619 -0.1797  0.0656 -0.1660
22682W        W26982  14.783   5.478  21.145  0.1717 -0.1946 -0.0198
22683W        W26983   5.804   7.771  23.168 -0.0384  0.1808  0.0775
22684W        W26984  23.853   5.267  27.477  0.1726 -0.3851 -0.1966
22685W        W26985   4.201   4.378  23.026  0.0181 -0.1343 -0.0096
22686W        W26986   7.795   0.258  32.081  0.1722 -0.3132 -0.1199
22687W        W26987   4.695   1.930   7.381  0.1101 -0.0521  0.1530
22688W        W26988  17.753   2.584  31.403  0.2676  0.1188 -0.0572
22689W        W26989  12.973   7.480  11.187 -0.2997  0.0156  0.3452
22690W        W26990   4.736   0.363  16.965  0.2198  0.2649  0.0942
22691W        W26991  22.873   0.836   0.360 -0.0792  0.1728 -0.0990
22692W        W26992   5.086   0.070   8.366  0.0114  0.0540  0.1434
22693W        W26993  13.074   3.232  25.068 -0.0120 -0.0282  0.0839
22694W        W26994  24.046   5.325  22.780  0.1575  0.0012 -0.1523
22695W        W26995   4.148   7.331  16.001  0.0332  0.0294  0.2733
22696W        W26996   0.146   3.673  11.021 -0.1477  0.0029  0.2507
22697W        W26997  11.297   6.223  27.958  0.2293  0.1494  0.2349
22698W        W26998   3.861   2.563  30.607  0.0177 -0.1850 -0.0425
22699W        W26999  19.730   6.260  29.046 -0.1410  0.1460  0.4152
22700W        W27000  24.916   2.239  32.941  0.1348  0.4503 -0.0578
22701W        W27001  21.942   1.950  32.690  0.3522 -0.0651  0.0362
22702W        W27002  19.954   1.455  29.237  0.1050  0.0595  0.1117
22703W        W27003  14.176   7.358  24.745 -0.3143 -0.0597 -0.0493
22704W        W27004   6.687   3.338  27.265  0.0262  0.1353 -0.3741
22705W        W27005   2.820   1.606  17.179  0.0326 -0.3031 -0.2090
22706W        W27006   9.174   0.241   0.917  0.1144  0.1805  0.0910
22707W        W27007  20.991   4.394   9.749 -0.2511 -0.1687 -0.0584
22708W        W27008  12.873   5.591  23.671 -0.1429 -0.2165  0.3276
22709W        W27009   6.452   6.132   9.169  0.1002  0.0152 -0.1173
22710W        W27010  19.110   7.400   4.266  0.0237 -0.3045 -0.0355
22711W        W27011   9.927   5.857   0.355 -0.0464  0.1547  0.0885
22712W        W27012  24.499   7.015  11.071 -0.1540  0.0154  0.2525
22713W        W27013   1.110   2.100   9.210 -0.0072 -0.0185  0.1532
22714W        W27014  16.191   7.354  17.334 -0.2166  0.1154 -0.0240
22715W        W27015  22.988   0.672  21.393 -0.3013 -0.3338 -0.0207
22716W        W27016   2.363   4.079  27.803  0.2534  0.2267  0.2873
22717W        W27017   6.233   2.451   5.547  0.0263  0.0601 -0.0780
22718W        W27018  15.264   2.190  16.482 -0.0203 -0.1276  0.1848
22719W        W27019   0.401   7.547  25.741  0.2594 -0.0682  0.2773
22720W        W27020  21.671   0.254   5.607 -0.3485  0.0955 -0.1000
22721W        W27021   2.217   5.415  15.869 -0.1231 -0.1685  0.0726
22722W        W27022  23.401   4.696  23.719 -0.1091 -0.0211  0.2997
22723W        W27023  19.181   4.507  28.573  0.0257 -0.3291  0.1979
22724W        W27024  16.836   4.492  17.068 -0.2119 -0.2937 -0.1823
22725W        W27025  14.981   3.579  22.309  0.0773  0.2444  0.2210
22726W        W27026   5.963   7.614  12.131 -0.0285 -0.0070  0.0478
22727W        W27027  22.884   0.307   4.442  0.2779 -0.0812  0.0056
22728W        W27028   9.128   4.022  23.485  0.0732  0.2277 -0.0865
22729W        W27029  19.488   6.497  32.156  0.4808 -0.0662  0.0420
22730W        W27030   6.300   2.253  14.612 -0.0048 -0.0421 -0.1647
22731W        W27031   7.704   6.848   6.016 -0.1990 -0.0987 -0.0068
22732W        W27032  12.595   3.810   1.368 -0.0130  0.0138  0.0290
22733W        W27033  14.447   1.800   0.897  0.0614  0.0971 -0.0133
22734W        W27034   7.830   0.131  30.403 -0.1262  0.0897  0.0593
22735W        W27035  21.657   4.446   6.107 -0.2593  0.0285 -0.3470
22736W        W27036  21.119   7.150   5.272  0.1216  0.1109 -0.0788
22737W        W27037  24.285   5.602   5.348  0.0863  0.2313  0.4819
22738W        W27038  22.418   7.659   6.257 -0.0195  0.1411  0.0405
22739W        W27039   1.546   7.799  24.198 -0.0839 -0.1728 -0.0989
22740W        W27040  21.220   7.403  31.737  0.0861 -0.0760  0.1529
22741W        W27041  13.271   3.199   4.748 -0.0099 -0.1910 -0.2910
22742W        W27042  19.277   5.888   2.472 -0.0265 -0.2742  0.1891
22743W        W27043  18.271   0.550  25.429  0.3549  0.1168 -0.1154
22744W        W27044  21.112   2.689   0.241 -0.2499 -0.3680 -0.1750
22745W        W27045  11.986   7.376  27.719 -0.1487 -0.1562  0.0898
22746W        W27046  15.428   7.195  18.866  0.0842 -0.0344  0.2434
22747W        W27047  22.742   5.482  11.748  0.2374 -0.1652 -0.0055
22748W        W27048   3.767   0.638  32.297 -0.0024  0.2046  0.2378
22749W        W27049  17.860   1.132  17.426 -0.0138  0.2365  0.1561
22750W        W27050  17.174   2.498  25.735  0.0401 -0.2105 -0.3079
22751W        W27051  17.121   3.803   1.423  0.1839 -0.1528 -0.1285
22752W        W27052   5.806   2.451  26.708  0.2109  0.1213 -0.5015
22753W        W27053  23.703   4.529   8.031  0.0400 -0.0089 -0.1563
22754W        W27054  11.171   6.506  29.111 -0.0379  0.1829  0.3351
22755W        W27055  14.027   4.842   7.124  0.3416  0.1894 -0.3272
22756W        W27056  10.783   5.399  21.521  0.1546 -0.1382  0.0201
22757W        W27057  19.291   0.637  23.607 -0.1498  0.0028  0.1898
22758W        W27058  20.549   5.511  23.581  0.1326  0.3502  0.1779
22759W        W27059  16.862   0.627   3.914 -0.4978 -0.3579 -0.0084
22760W        W27060  23.843   3.593  13.115  0.2340 -0.3659 -0.1110
22761W        W27061   7.824   3.137   7.015 -0.1503 -0.0171  0.0399
22762W        W27062   2.120   4.270   2.383  0.1450  0.0676  0.0363
22763W        W27063   0.270   0.400   6.186  0.2642  0.1678 -0.1706
22764W        W27064  20.837   0.366  21.216 -0.3590 -0.3370  0.3062
22765W        W27065  24.519   5.529   2.639 -0.1831  0.1543 -0.2385
22766W        W27066  15.807   3.732  16.340  0.2082 -0.2789  0.1164
22767W        W27067   3.355   2.182  28.636 -0.0113  0.0361  0.2296
22768W        W27068   1.065   5.899  13.451  0.0033  0.2574  0.1394
22769W        W27069  17.739   4.714  28.300  0.1088  0.0897  0.0293
22770W        W27070   1.982   1.690  31.111  0.2613  0.0257 -0.1148
22771W        W27071  23.295   5.564  24.411  0.1941  0.0728 -0.2501
22772W        W27072   4.771   4.460  12.608 -0.1453 -0.1568 -0.0486
22773W        W27073  10.912   3.376  19.224 -0.1134 -0.1543 -0.2237
22774W        W27074   9.466   4.969  13.703 -0.1380 -0.3238 -0.4962
22775W        W27075  21.985   5.167  30.602  0.0445  0.1740 -0.1949
22776W        W27076  24.177   6.443  30.025 -0.0582 -0.2530 -0.3291
22777W        W27077  11.561   7.059   4.237 -0.1678  0.1995  0.1821
22778W        W27078  16.892   4.172  25.337 -0.1836  0.0577  0.0915
22779W        W27079  11.150   3.401  23.595 -0.0980  0.0850  0.0020
22780W        W27080   8.660   5.523  11.692 -0.0323 -0.1130  0.0033
22781W        W27081   5.043   5.278  31.674 -0.1817 -0.3763  0.0414
22782W        W27082   5.340   6.154  22.701 -0.0354 -0.0780 -0.1011
22783W        W27083  16.339   7.704   0.621  0.1944 -0.1055 -0.1463
22784W        W27084   5.086   0.039  15.269 -0.0293 -0.4940  0.0156
22785W        W27085  19.908   4.001   4.418  0.0203 -0.0414 -0.0399
22786W        W27086  15.144   2.755   2.311  0.0564 -0.1496  0.0074
22787W        W27087  13.065   1.437   0.454  0.1666  0.0718  0.0577
22788W        W27088   1.901   2.048  27.685 -0.1446 -0.1054 -0.0626
22789W        W27089  11.039   1.208   1.342 -0.1387  0.1196  0.0599
22790W        W27090   9.843   3.160   4.477 -0.0908  0.0570 -0.0307
22791W        W27091  17.433   1.150   9.907 -0.0904 -0.1266 -0.3742
22792W        W27092   0.225   6.215   5.218 -0.1974 -0.0756  0.0803
22793W        W27093  12.145   5.599   0.370  0.1211 -0.1462  0.1621
22794W        W27094   0.904   0.000   9.611  0.3717 -0.2178 -0.0915
22795W        W27095  10.791   7.543  12.061 -0.1339  0.0541  0.0728
22796W        W27096  14.169   5.966  23.624  0.0968 -0.2307  0.2008
22797W        W27097   9.214   2.150  25.087  0.2012 -0.1329 -0.1598
22798W        W27098  21.384   6.089   0.387  0.0070 -0.0040 -0.0451
22799W        W27099  19.138   1.429  17.466  0.1375  0.4021  0.2448
22800W        W27100   3.376   6.319  30.460 -0.1275  0.1369  0.0336
22801W        W27101   8.971   5.034   4.981  0.1171  0.1291 -0.0040
22802W        W27102  13.365   0.073  26.454 -0.0748  0.0199 -0.0181
22803W        W27103  21.364   3.566   8.151 -0.0622 -0.1857  0.0831
22804W        W27104   9.545   4.078  22.327 -0.0287 -0.0337 -0.0063
22805W        W27105  10.888   1.980   9.471 -0.2540  0.1293 -0.2082
22806W        W27106  12.355   5.934  25.333 -0.1946 -0.1240 -0.0511
22807W        W27107   6.620   2.482  32.136  0.2330  0.1529 -0.0635
22808W        W27108  11.096   4.597  26.613  0.0559  0.1693 -0.0370
22809W        W27109   6.081   6.040   3.658  0.2719 -0.3414  0.1450
22810W        W27110  15.708   5.121  25.123 -0.2744 -0.1047  0.0178
22811W        W27111  15.944   1.220   2.928 -0.2358 -0.3284 -0.0736
22812W        W27112   9.470   2.647  25.924 -0.1287  0.0729 -0.0220
22813W        W27113   4.113   7.037   5.795  0.2561  0.0913  0.1849
22814W        W27114   1.125   3.858  14.629 -0.1371 -0.2910  0.0823
22815W        W27115   0.511   4.132  10.842 -0.3661  0.3986  0.4767
22816W        W27116  23.387   3.226   3.835 -0.3243  0.0778  0.2206
22817W        W27117  16.138   4.134  31.948  0.5528 -0.2802 -0.0472
22818W        W27118   4.148   1.998  17.529  0.3852 -0.1929 -0.2210
22819W        W27119  17.367   6.098  10.204  0.0676  0.3141 -0.1211
22820W        W27120   7.606   4.541  12.548  0.1831 -0.2205 -0.2542
22821W        W27121   0.169   4.568  22.525  0.0490 -0.0561  0.4597
22822W        W27122  13.471   6.297   1.336 -0.0352 -0.1168  0.1606
22823W        W27123  17.387   6.904   9.751 -0.1168 -0.1954  0.1660
22824W        W27124  20.734   7.202  27.803  0.0667 -0.1858  0.1910
22825W        W27125  19.651   1.671  11.748 -0.0402 -0.0040 -0.2822
22826W        W27126  10.405   2.599  20.184  0.1014  0.2306 -0.3189
22827W        W27127  16.816   1.769   8.068 -0.0635  0.1250 -0.3274
22828W        W27128   5.522   3.399  27.846  0.0991  0.0287  0.3098
22829W        W27129   3.312   2.305  14.327 -0.1329 -0.3585  0.2558
22830W        W27130  21.389   3.415  27.335  0.0039 -0.5398  0.0655
22831W        W27131   8.295   7.707  28.548 -0.1382 -0.0988  0.1125
22832W        W27132   9.385   5.619   9.992  0.0466  0.3090  0.0815
22833W        W27133  12.927   1.710  29.041  0.3467 -0.2324 -0.1534
22834W        W27134  12.928   5.585  25.570 -0.1696 -0.0762 -0.2235
22835W        W27135  16.517   1.741  19.193 -0.1016 -0.2260  0.1509
22836W        W27136   5.465   0.111  31.233 -0.1980  0.3638  0.0947
22837W        W27137  11.199   0.478   8.255 -0.0314 -0.0573 -0.0272
22838W        W27138  14.595   5.701  28.138 -0.0936  0.4330 -0.0640
22839W        W27139   8.353   1.678  29.341  0.1236  0.3059  0.3251
22840W        W27140  18.765   1.014   3.132  0.1511 -0.2495  0.0278
22841W        W27141  19.182   0.117  31.722  0.0989  0.0647  0.0169
22842W        W27142  20.655   3.010   3.854  0.1206  0.2115 -0.0077
22843W        W27143  11.262   7.023  24.473  0.0621 -0.2687  0.1000
22844W        W27144  19.083   4.358  24.101 -0.0312 -0.0864 -0.2460
22845W        W27145  23.960   6.297   6.504  0.0452  0.0570 -0.1723
22846W        W27146   4.413   4.566  23.863 -0.0664  0.1507 -0.2518
22847W        W27147   1.030   5.464  23.745 -0.1232 -0.1422 -0.0753
22848W        W27148  14.650   2.744   2.168 -0.0708  0.1293 -0.0254
22849W        W27149  10.515   3.414   4.094 -0.2169  0.4049 -0.1351
22850W        W27150   4.139   1.956  16.999 -0.2375 -0.2524 -0.2121
22851W        W27151   1.296   2.884  11.988  0.0043  0.0979  0.0210
22852W        W27152   0.908   5.739  25.989 -0.2478 -0.1142  0.1374
22853W        W27153  13.352   2.454   5.474  0.0748 -0.1280  0.4246
22854W        W27154  11.509   0.800   9.737  0.1051 -0.1193  0.1746
22855W        W27155   9.005   3.501   8.152 -0.0234  0.2502  0.0238
22856W        W27156  20.098   0.787   4.376  0.3202  0.1953  0.2511
22857W        W27157   8.958   3.480   1.574 -0.0463 -0.0649  0.1004
22858W        W27158  21.961   1.429  32.663  0.0314 -0.2662 -0.0871
22859W        W27159   6.802   1.793  29.622 -0.3588 -0.2411  0.0478
22860W        W27160  10.392   2.659  28.607  0.0841 -0.0417 -0.2311
22861W        W27161   7.910   6.787  16.140  0.0024  0.0159  0.1114
22862W        W27162   1.043   3.871   1.833  0.0289 -0.0742  0.1049
22863W        W27163  12.524   6.291  19.048 -0.1690 -0.0536  0.1566
22864W        W27164  19.522   5.955   4.568  0.0790 -0.1978  0.0137
22865W        W27165   3.375   7.244  31.284  0.2140 -0.0444 -0.1114
22866W        W27166   8.097   2.312   8.295 -0.2881 -0.0344 -0.0822
22867W        W27167   5.591   4.912  22.305 -0.1855  0.3297 -0.0957
22868W        W27168   7.459   4.295  15.315 -0.1721 -0.0013  0.0605
22869W        W27169  18.668   4.995   9.783 -0.0429 -0.0375  0.1906
22870W        W27170  11.184   7.099   3.789  0.0698 -0.0044 -0.1155
22871W        W27171   6.721   2.973  15.807  0.1629  0.2497 -0.0839
22872W        W27172  22.034   5.626  25.695  0.1702 -0.1368 -0.2654
22873W        W27173  15.409   2.502   6.109  0.0768 -0.0269  0.3800
22874W        W27174  16.556   7.096  26.335  0.0972 -0.1400 -0.2000
22875W        W27175   1.922   3.332  30.191  0.2278 -0.0367 -0.0758
22876W        W27176  16.752   5.802   2.079  0.2309 -0.2343  0.0873
22877W        W27177  16.575   0.664  33.012  0.2469 -0.0966 -0.0184
22878W        W27178   8.500   2.452  24.359 -0.3547  0.1361 -0.3700
22879W        W27179  17.541   4.145  19.958 -0.2849  0.0214 -0.0247
22880W        W27180   4.270   5.122  16.592 -0.1955 -0.3551  0.0481
22881W        W27181  18.845   4.378   7.593  0.1015 -0.1391  0.0002
22882W        W27182   8.223   5.098  11.775  0.1544 -0.1853 -0.2012
22883W        W27183   7.041   5.868   3.442 -0.1904 -0.1270 -0.2833
22884W        W27184   0.955   0.180   8.714  0.1905  0.0506  0.0996
22885W        W27185  11.368   5.591  19.145 -0.0807 -0.0462 -0.2218
22886W        W27186  15.237   0.864  14.321 -0.3036 -0.1351  0.3036
22887W        W27187   2.114   2.912  28.850 -0.2559 -0.0306 -0.0211
22888W        W27188   1.352   4.062   0.126 -0.2864  0.0672  0.0948
22889W        W27189  19.752   3.451   5.094 -0.1748 -0.0774  0.0591
22890W        W27190  20.629   4.832  25.539  0.1188  0.0025 -0.1249
22891W        W27191  14.404   2.922   4.118  0.0108 -0.0039 -0.1696
22892W        W27192  16.201   6.455  27.565  0.1045  0.0898 -0.0651
22893W        W27193  19.084   7.484   5.970 -0.1258 -0.0183 -0.1783
22894W        W27194   0.168   6.714  23.998  0.0273 -0.2645  0.2410
22895W        W27195  15.151   3.788  26.240  0.2659  0.2022  0.1210
22896W        W27196   1.762   4.882  15.337  0.2127  0.0865 -0.0243
22897W        W27197  12.094   6.305  28.926  0.0829 -0.1974 -0.0768
22898W        W27198   9.876   5.322  27.093  0.3172  0.1511  0.0816
22899W        W27199  16.627   2.187   7.045 -0.3607  0.0308  0.2748
22900W        W27200   8.118   5.115  31.691  0.3324  0.0777  0.0876
22901W        W27201  21.017   5.142  10.086  0.0513  0.0300  0.1395
22902W        W27202   0.027   0.569  11.375  0.2830 -0.1418 -0.1636
22903W        W27203   4.326   4.821  26.217  0.0941 -0.0518 -0.0256
22904W        W27204   9.940   2.510   1.281 -0.1580 -0.1515 -0.2267
22905W        W27205  11.498   3.340   1.056 -0.0904  0.0581 -0.1502
22906W        W27206  12.417   0.367   2.269 -0.0447 -0.1214  0.2161
22907W        W27207   3.532   2.071  31.382 -0.0856 -0.3936 -0.0054
22908W        W27208  16.683   5.028   4.176  0.1615  0.1334 -0.0975
22909W        W27209  22.172   4.076  30.372  0.1094  0.0914  0.0945
22910W        W27210   4.535   0.572  24.049 -0.0534 -0.1126 -0.0313
22911W        W27211  21.479   2.078  20.367 -0.0722  0.0366 -0.0395
22912W        W27212   8.230   6.768  11.297  0.0545  0.0211  0.1100
22913W        W27213  22.017   3.205   5.747  0.3316 -0.3085 -0.2651
22914W        W27214   2.780   6.193  28.377  0.1983  0.2184 -0.0703
22915W        W27215   9.362   1.926   7.885  0.0332  0.1152  0.0330
22916W        W27216  20.473   7.657   9.220 -0.1456  0.1385  0.4892
22917W        W27217  24.122   6.453  27.605 -0.0317 -0.2813  0.1355
22918W        W27218   5.476   7.474  24.133 -0.1142  0.1058  0.0296
22919W        W27219  24.659   4.591  31.174 -0.1544  0.0288 -0.0866
22920W        W27220  20.073   7.559  27.485 -0.0172  0.1153 -0.1123
22921W        W27221   7.708   1.656   0.231  0.1376 -0.1518  0.0007
22922W        W27222   3.926   4.937  12.844 -0.2652  0.1391  0.0186
22923W        W27223  13.633   4.117   5.145 -0.0964 -0.0498  0.3389
22924W        W27224  15.453   7.452   0.558  0.0767  0.0884 -0.1605
22925W        W27225   3.183   4.907  13.334  0.3823 -0.1098  0.2435
22926W        W27226  18.225   4.518  31.833 -0.2344  0.2295  0.1669
22927W        W27227   4.561   7.516  28.086 -0.0741  0.0893 -0.1012
22928W        W27228  15.071   5.391   6.624  0.3533  0.0302 -0.3586
22929W        W27229   4.665   4.559  26.045 -0.1304 -0.0346 -0.1370
22930W        W27230   7.291   6.383  29.665  0.0897  0.1208  0.1001
22931W        W27231   2.464   4.717  29.533  0.2177  0.0205 -0.4289
22932W        W27232  24.535   4.497  32.160 -0.0692 -0.0191 -0.0090
22933W        W27233   0.195   7.028  25.306 -0.3434  0.0462  0.3229
22934W        W27234  17.923   5.412   5.600  0.0278 -0.1522  0.2296
22935W        W27235  14.220   2.778  16.085 -0.0838  0.0561  0.0780
22936W        W27236   5.135   6.079  29.717 -0.1224 -0.2043 -0.3051
22937W        W27237   3.476   4.593   6.325  0.1784  0.2908  0.0201
22938W        W27238  23.946   7.682  30.422  0.3369 -0.0449 -0.0552
22939W        W27239  16.511   6.928  30.577 -0.0163  0.0831 -0.0177
22940W        W27240  11.148   6.109  24.670 -0.1765  0.4204  0.1140
22941W        W27241  10.898   1.384   3.823 -0.0900  0.0430  0.1951
22942W        W27242   4.330   5.413  23.483  0.1128 -0.0378 -0.3817
22943W        W27243  17.893   7.107  30.219  0.0802 -0.1344  0.1498
22944W        W27244   5.901   4.560  11.758 -0.0555  0.0846 -0.2950
22945W        W27245  13.280   7.138   3.559  0.1241 -0.2772 -0.0306
22946W        W27246   8.810   4.537  32.685 -0.0146 -0.1961 -0.0618
22947W        W27247  11.802   6.814   9.923  0.2756 -0.1247  0.0906
22948W        W27248   1.522   3.068  26.183 -0.0950 -0.0554 -0.1230
22949W        W27249  21.416   5.882   3.140  0.0045 -0.1222  0.2489
22950W        W27250  24.213   5.802  31.189  0.0594  0.0074  0.1050
22951W        W27251   7.660   0.541  13.841  0.0978 -0.3767  0.2216
22952W        W27252  18.089   3.133   6.917 -0.1039 -0.1037  0.0099
22953W        W27253   2.317   3.223  17.125 -0.0704 -0.0294  0.1420
22954W        W27254  15.319   0.652  26.046 -0.2273  0.1291 -0.0887
22955W        W27255   2.323   0.958   8.348  0.2249 -0.0350  0.3184
22956W        W27256  24.906   3.777   0.264 -0.1483  0.0737 -0.0925
22957W        W27257  13.652   6.540   2.342 -0.0228  0.0050 -0.2355
22958W        W27258   1.194   5.356  10.943  0.0283 -0.0225  0.2258
22959W        W27259   5.668   1.745   8.045 -0.3157  0.0778  0.4099
22960W        W27260   6.485   0.422   0.962  0.0711 -0.0187  0.2225
22961W        W27261  17.698   7.284  32.967  0.2580  0.0526 -0.0429
22962W        W27262  15.219   1.956   1.863 -0.0569 -0.2054  0.0422
22963W        W27263   1.237   4.345  17.345  0.2068 -0.1845 -0.1666
22964W        W27264  12.930   7.550  32.905  0.3549  0.0115  0.1048
22965W        W27265  20.859   0.546  28.141 -0.2811  0.1059  0.0348
22966W        W27266  21.890   6.449  22.925 -0.1054 -0.3196 -0.0254
22967W        W27267  14.792   5.401   0.816  0.0859  0.2657  0.1387
22968W        W27268  20.960   7.263   7.784  0.5710 -0.0804  0.2693
22969W        W27269  17.079   3.454  15.211  0.1459  0.2006 -0.0743
22970W        W27270   9.834   4.281   3.232  0.0962  0.1159 -0.0948
22971W        W27271   9.123   3.480  32.920 -0.2964 -0.0720  0.1495
22972W        W27272   8.895   4.051   9.669  0.0690  0.2799  0.2457
22973W        W27273  14.741   6.875  19.384 -0.1789 -0.0162  0.1234
22974W        W27274  11.613   4.783  24.072 -0.1435 -0.0458 -0.2281
22975W        W27275   0.038   3.039  29.244 -0.0439 -0.1077  0.1029
22976W        W27276   7.372   3.304   5.699 -0.1033 -0.1914 -0.0669
22977W        W27277  10.054   1.064   3.754 -0.2234  0.0992 -0.0357
22978W        W27278  11.120   6.506   8.208  0.5550 -0.0725 -0.0865
22979W        W27279   4.988   7.669   4.902 -0.2184 -0.0609  0.1386
22980W        W27280  22.303   5.630  18.962  0.0581  0.1526 -0.2974
22981W        W27281  16.952   0.787  25.286  0.3081  0.0398 -0.0338
22982W        W27282  19.141   3.287  26.883  0.0362  0.1524  0.1270
22983W        W27283  22.134   2.636  12.129 -0.2947 -0.2769  0.1931
22984W        W27284  12.180   5.215  20.688  0.1397 -0.0064  0.1196
22985W        W27285  21.786   1.356   7.283 -0.1687 -0.0999 -0.0860
22986W        W27286   5.888   1.167  26.968 -0.0606  0.0264 -0.0175
22987W        W27287  11.152   0.596  21.885  0.2395 -0.4174  0.2300
22988W        W27288   7.570   7.005  25.917 -0.1103 -0.1979  0.2067
22989W        W27289  12.757   0.931   4.359  0.0760  0.2372 -0.0413
22990W        W27290  18.543   6.904  27.238  0.3382 -0.0711  0.1758
22991W        W27291  10.270   2.784   0.289  0.0378  0.4356  0.0646
22992W        W27292  18.977   6.552  11.646  0.1138 -0.1798  0.2474
22993W        W27293  21.318   7.125   4.468  0.0461 -0.1044  0.1654
22994W        W27294  14.272   7.782  32.902  0.3547 -0.0780  0.0153
22995W        W27295  17.789   0.536  16.532 -0.1150 -0.2111  0.1489
22996W        W27296  19.725   5.341   6.519  0.0795  0.2482  0.1149
22997W        W27297  21.708   6.415   6.452  0.0745  0.0083 -0.0269
22998W        W27298  12.266   6.242  20.112 -0.1052 -0.1052  0.0140
22999W        W27299  15.296   3.154  21.087  0.1740 -0.3904 -0.1434
23000W        W27300  17.082   6.876  19.056  0.0081  0.2514  0.2971
23001W        W27301  15.370   6.735  23.839 -0.0017 -0.1258 -0.0762
23002W        W27302   5.280   5.884  26.591  0.0818  0.4095 -0.0711
23003W        W27303   1.089   0.487   5.747 -0.2223  0.0228 -0.0900
23004W        W27304   2.503   7.799   8.169  0.3658 -0.0549 -0.1697
23005W        W27305   7.578   7.731  15.008  0.0849  0.3749 -0.3498
23006W        W27306  12.218   1.173  30.133 -0.2270  0.0043 -0.2392
23007W        W27307  20.844   5.693   5.055 -0.0551 -0.2179 -0.2339
23008W        W27308   8.121   2.424   0.269  0.1950  0.1340 -0.0185
23009W        W27309  12.275   2.084  32.158 -0.2086 -0.0007  0.3027
23010W        W27310   1.849   7.128  32.134  0.0700 -0.1198  0.0154
23011W        W27311   5.940   5.352  14.564  0.3161 -0.0176 -0.2952
23012W        W27312   8.842   1.094  26.568 -0.0049 -0.1866 -0.0276
23013W        W27313  22.603   6.531   6.691  0.4146 -0.2052 -0.1513
23014W        W27314  23.584   7.003   2.065 -0.0935  0.1659  0.3194
23015W        W27315   5.172   0.110  17.546  0.2356  0.0776 -0.0355
23016W        W27316  17.937   0.857  23.276 -0.1606  0.2005  0.0972
23017W        W27317  14.707   3.990  15.280  0.1882  0.2515 -0.2170
23018W        W27318  24.939   5.070   7.498 -0.0989  0.2746  0.0570
23019W        W27319   0.115   6.983  11.868  0.3128 -0.3968  0.0935
23020W        W27320  12.250   1.454   7.709  0.1540  0.1490  0.0277
23021W        W27321  12.825   1.418  23.622  0.2136  0.0100  0.1826
23022W        W27322  20.289   1.743  27.975 -0.3064  0.2531  0.1097
23023W        W27323   2.745   4.128  13.353 -0.0981  0.1532 -0.1314
23024W        W27324  21.767   4.154  12.101  0.0038 -0.0740  0.0595
23025W        W27325  15.174   1.323  31.395 -0.0190  0.4076  0.0796
23026W        W27326   7.642   1.058   7.782  0.2437  0.3171 -0.0469
23027W        W27327   2.135   4.225   6.568  0.0615 -0.3015  0.0923
23028W        W27328  20.567   5.255   9.392  0.1906 -0.0358 -0.1136
23029W        W27329   0.865   6.679   3.004 -0.0654 -0.1756 -0.2867
23030W        W27330   0.820   5.378   0.417  0.1013  0.2837  0.0405
23031W        W27331  13.074   2.563   0.451 -0.2949 -0.0658 -0.2062
23032W        W27332   4.552   4.033  13.803 -0.0165 -0.0764  0.1966
23033W        W27333   6.516   3.053  28.254 -0.1882 -0.1817  0.0070
23034W        W27334   3.831   1.319  29.239 -0.2944 -0.1556  0.1539
23035W        W27335  19.078   4.564   1.202  0.1983  0.0976 -0.0288
23036W        W27336  14.028   0.227  22.719 -0.0605 -0.0649  0.1656
23037W        W27337   5.226   3.272  13.108  0.0787  0.0524  0.0427
23038W        W27338  18.147   6.253  18.987  0.0160 -0.0220  0.0224
23039W        W27339  15.766   4.938   3.983 -0.2451  0.0011  0.1628
23040W        W27340  17.750   5.113  17.767 -0.1795 -0.1433 -0.1074
23041W        W27341   6.968   6.920  11.400  0.1872 -0.2668 -0.0280
23042W        W27342  20.649   5.331   0.754  0.2407  0.1312 -0.3178
23043W        W27343   4.084   5.207  31.180 -0.0826 -0.0055 -0.0319
23044W        W27344  24.945   4.108  22.759 -0.0735 -0.1869  0.1610
23045W        W27345  13.938   1.273   8.379 -0.0963  0.2405  0.1051
23046W        W27346  19.932   3.965  30.722  0.0205 -0.0795  0.1147
23047W        W27347   3.470   6.123   6.811  0.2189  0.1230 -0.0058
23048W        W27348   5.853   2.174  24.516 -0.1635  0.2517  0.0676
23049W        W27349  22.691   3.052   0.449 -0.2155  0.2006  0.1933
23050W        W27350   4.117   5.732  30.890 -0.1497  0.1011  0.0420
23051W        W27351   2.414   6.681   1.308 -0.3135  0.3522 -0.0293
23052W        W27352  16.397   4.210  32.915  0.2663  0.0499 -0.0018
23053W        W27353  23.085   6.520   2.685 -0.2249  0.1327 -0.0842
23054W        W27354  19.902   7.666  25.139  0.0813  0.2414 -0.0299
23055W        W27355  17.717   6.099   3.823 -0.0571 -0.1036  0.1009
23056W        W27356  19.111   2.799  26.945  0.1143 -0.0361  0.4241
23057W        W27357  21.166   2.162  26.849 -0.1416  0.1982 -0.1824
23058W        W27358   7.984   4.927  22.990  0.0519 -0.1461  0.0642
23059W        W27359   7.927   2.114  28.155 -0.1416 -0.1701  0.2376
23060W        W27360  15.344   0.952  22.852  0.1527  0.2708 -0.0003
23061W        W27361  19.911   7.347   0.411  0.0538  0.1628 -0.3427
23062W        W27362  23.172   4.519  13.454  0.1081  0.2519 -0.0596
23063W        W27363   7.408   1.727   2.332  0.1282 -0.1662  0.2841
23064W        W27364  11.240   5.774  32.939  0.3363  0.1659 -0.1464
23065W        W27365   9.223   6.215   1.032 -0.1572 -0.0103 -0.2971
23066W        W27366   2.133   2.683   3.683  0.2522 -0.2205 -0.0768
23067W        W27367   1.110   7.745  22.207 -0.0236  0.1842 -0.1329
23068W        W27368  21.451   7.105  22.617  0.2100  0.2210 -0.0093
23069W        W27369  24.156   5.103  10.513  0.1524  0.0702  0.0233
23070W        W27370  12.873   5.891   3.727 -0.0654 -0.1220 -0.0800
23071W        W27371  23.710   5.802  25.319  0.3623 -0.0928 -0.3707
23072W        W27372  16.324   4.303  31.520 -0.2324 -0.3507  0.0144
23073W        W27373  22.378   7.612   2.119 -0.2155 -0.4639 -0.1905
23074W        W27374   1.036   1.801   1.218 -0.1160  0.1040  0.1379
23075W        W27375  23.478   0.024  28.252  0.0499 -0.0603 -0.0437
23076W        W27376  15.877   1.582  21.319 -0.1670 -0.1385 -0.0567
23077W        W27377   2.469   2.160  32.203 -0.1615 -0.0327 -0.0326
23078W        W27378  11.029   1.849  30.498 -0.2957 -0.0944  0.3126
23079W        W27379  13.650   5.534  27.579  0.0732 -0.0653  0.1419
23080W        W27380  10.358   4.815  27.212  0.0209  0.1373  0.0625
23081W        W27381  19.592   0.036   6.139  0.0620 -0.0517  0.0091
23082W        W27382   2.278   4.349   6.074  0.2833  0.1236 -0.1837
23083W        W27383   3.364   3.647   2.507  0.1591  0.1799  0.0858
23084W        W27384   7.342   3.619  28.596 -0.0892 -0.1475 -0.0639
23085W        W27385  11.751   4.123  18.433 -0.1637 -0.1012 -0.1804
23086W        W27386  20.492   6.671  24.017 -0.0119  0.2404 -0.1672
23087W        W27387  20.289   3.161   6.633 -0.5241 -0.0525 -0.1577
23088W        W27388  24.740   4.738   9.362 -0.2195  0.0705 -0.2131
23089W        W27389  21.634   6.274  25.227 -0.1226  0.0465  0.0731
23090W        W27390  19.741   7.655   0.886 -0.3099 -0.0994 -0.1389
23091W        W27391  24.380   2.197   9.408  0.3111 -0.1650  0.1129
23092W        W27392  22.865   0.218  12.288 -0.0011  0.0674  0.0816
23093W        W27393  19.583   6.577   6.081 -0.1545  0.0494  0.2123
23094W        W27394  18.978   2.413  28.236 -0.1856  0.1258  0.0114
23095W        W27395   4.475   3.665  13.438 -0.0335  0.1193 -0.1456
23096W        W27396  22.655   0.659  24.811  0.1634 -0.1977 -0.0005
23097W        W27397  11.915   7.484   0.587 -0.0015  0.1536  0.1841
23098W        W27398  15.343   1.713  29.534 -0.0374 -0.1334  0.0302
23099W        W27399  21.418   0.715  30.619 -0.0455 -0.3303  0.1533
23100W        W27400   6.642   1.400   9.985  0.2185 -0.1753 -0.1021
23101W        W27401  19.132   1.597   6.623  0.2083  0.0001  0.0071
23102W        W27402  20.616   3.230  32.616 -0.3376 -0.0845  0.1602
23103W        W27403  19.136   1.683   7.740 -0.0227 -0.0751 -0.1726
23104W        W27404  12.283   3.145   4.081  0.0014  0.0447 -0.0005
23105W        W27405   0.680   4.595  28.220 -0.0334  0.0445 -0.0888
23106W        W27406   5.510   6.686   9.520 -0.1970  0.0669 -0.2737
23107W        W27407   3.443   5.949  15.218  0.1887 -0.2741  0.1607
23108W        W27408  12.048   0.870   9.203  0.1010  0.0081 -0.0657
23109W        W27409  19.626   4.355   5.060  0.0588  0.0236  0.1031
23110W        W27410   3.379   2.907  10.813  0.0030  0.0325 -0.0889
23111W        W27411  19.434   5.604   6.172 -0.1440  0.2176 -0.0206
23112W        W27412  14.094   7.621   7.177 -0.2717 -0.1454  0.1086
23113W        W27413   2.941   1.479  14.556  0.0274  0.0334  0.0131
23114W        W27414   5.231   2.136   3.443  0.0505 -0.1037  0.0470
23115W        W27415  19.763   0.696   8.267 -0.1594  0.4031 -0.2069
23116W        W27416   0.892   2.838  27.334  0.0223 -0.1951  0.4936
23117W        W27417   1.554   5.143   3.056 -0.2115  0.1680  0.1310
23118W        W27418  14.695   2.584   8.530 -0.0343 -0.0263  0.2305
23119W        W27419   4.294   0.830  32.916  0.1134 -0.3087 -0.0783
23120W        W27420  23.284   4.480  21.787 -0.3437 -0.5172 -0.1713
23121W        W27421   5.347   7.739  32.815 -0.0833  0.0191 -0.3517
23122W        W27422  20.528   4.238   6.886  0.0246 -0.0191  0.3695
23123W        W27423   0.085   0.162  28.456  0.0546  0.1856  0.0439
23124W        W27424   7.192   6.042  13.884  0.1921 -0.2546 -0.0699
23125W        W27425  19.744   7.081  19.472  0.0368 -0.1875 -0.1167
23126W        W27426   9.328   0.807   4.869  0.3146  0.0205  0.0298
23127W        W27427  18.479   2.114   5.918 -0.1652 -0.2679  0.0804
23128W        W27428  16.763   1.608  21.204  0.1177 -0.0838 -0.0445
23129W        W27429   0.521   6.385  32.309 -0.0840  0.1054 -0.0444
23130W        W27430  18.882   7.449  16.990 -0.0559  0.2269 -0.0877
23131W        W27431  17.358   3.121  27.468  0.2389 -0.0388 -0.0978
23132W        W27432  18.822   4.786  22.076  0.0873 -0.0252  0.0245
23133W        W27433   8.932   3.091  32.479  0.5694  0.0992  0.2356
23134W        W27434   9.845   1.003  13.723  0.4871 -0.0734  0.4815
23135W        W27435  24.912   2.063  24.314  0.0910  0.3758 -0.0495
23136W        W27436  24.875   7.406  14.566 -0.1129  0.0527  0.0235
23137W        W27437  13.930   0.536   2.933  0.2367  0.1591  0.2880
23138W        W27438   1.717   5.864  30.208 -0.2604 -0.1000  0.0788
23139W        W27439   9.600   3.428   6.232 -0.1850 -0.2203 -0.3118
23140W        W27440   4.297   2.012  18.340  0.0381 -0.1543 -0.1171
23141W        W27441   1.156   4.906  26.402 -0.2076  0.1685  0.0663
23142W        W27442  15.976   1.269  14.186  0.1435 -0.0384  0.2657
23143W        W27443  20.635   5.203   7.431 -0.0004  0.0072 -0.2557
23144W        W27444   4.772   6.993   3.890  0.0710  0.2207 -0.1323
23145W        W27445  14.441   2.086  20.906  0.3535  0.0695  0.1026
23146W        W27446   3.311   3.320  12.559  0.1899  0.0432 -0.2347
23147W        W27447   3.729   4.559   7.824  0.2097 -0.1930 -0.1267
23148W        W27448  23.445   7.153  26.391 -0.3002 -0.1059  0.0130
23149W        W27449   7.999   1.955  21.973  0.1225 -0.0875  0.2133
23150W        W27450  24.753   5.766  28.089 -0.0064 -0.2226  0.3850
23151W        W27451  16.982   4.638   4.349 -0.1516 -0.0683  0.0188
23152W        W27452  18.279   5.840   8.390  0.2307 -0.1156 -0.2536
23153W        W27453  17.568   4.627  16.578 -0.3715 -0.1056  0.0388
23154W        W27454  13.574   3.097  30.943  0.0554 -0.0888 -0.2684
23155W        W27455  19.604   6.468   9.337 -0.1946 -0.1360 -0.0100
23156W        W27456  14.793   6.529   5.736 -0.1266 -0.4310 -0.0684
23157W        W27457  10.038   3.590  32.324 -0.1555 -0.2070  0.1294
23158W        W27458  22.183   1.039  11.959  0.0660 -0.0127 -0.1208
23159W        W27459  16.128   5.464   7.496  0.0205  0.1608 -0.0460
23160W        W27460  20.480   6.782   6.493  0.1164  0.1505 -0.0597
23161W        W27461  18.660   2.501   9.468  0.2534 -0.1779 -0.2083
23162W        W27462  11.286   1.641  17.829  0.1554 -0.1990 -0.0425
23163W        W27463  12.568   7.236  30.822 -0.0506  0.3041 -0.0620
23164W        W27464   0.546   6.091  22.296 -0.1794 -0.0326  0.1069
23165W        W27465  13.967   0.160  15.991 -0.0387 -0.1481 -0.0399
23166W        W27466  24.074   1.659  28.943  0.1444 -0.2127 -0.0429
23167W        W27467   9.929   2.213  32.896 -0.2340  0.2435  0.2295
23168W        W27468   4.539   1.064   3.663 -0.0729 -0.4147  0.0212
23169W        W27469  14.592   2.350  18.282 -0.0772  0.5168 -0.0492
23170W        W27470  14.470   4.474  17.683  0.1299 -0.2693  0.3192
23171W        W27471   2.726   5.915  29.312  0.3994 -0.1839  0.2029
23172W        W27472   5.161   4.779   1.152  0.0619  0.1531  0.3450
23173W        W27473  19.829   2.863   0.685  0.1949 -0.0238  0.0860
23174W        W27474   0.299   5.905  26.642 -0.0555  0.0396 -0.0793
23175W        W27475   8.172   1.827  22.439 -0.1966 -0.0468  0.3216
23176W        W27476  18.458   3.462   6.627 -0.2019 -0.0535 -0.0502
23177W        W27477  15.598   0.446   9.605 -0.0094 -0.1872 -0.0153
23178W        W27478  13.358   2.413  23.241 -0.2431  0.1580  0.0204
23179W        W27479  20.417   2.807  27.588  0.1554 -0.2111 -0.0719
23180W        W27480  19.190   4.350  23.574  0.1051  0.0822  0.2209
23181W        W27481  19.909   2.095  28.165 -0.3441 -0.2920  0.0832
23182W        W27482  18.524   1.220  27.756 -0.1826  0.1520  0.2582
23183W        W27483  11.417   6.537   9.609 -0.0471  0.2132 -0.0531
23184W        W27484  22.230   2.012  21.204 -0.0669  0.1692 -0.1630
23185W        W27485  20.840   1.951   4.243  0.2449 -0.2284  0.0437
23186W        W27486  21.382   0.348   4.426 -0.1050 -0.0809 -0.1062
23187W        W27487  20.317   3.881  23.491 -0.1811  0.0341  0.0704
23188W        W27488   1.564   0.260   0.175 -0.0436 -0.0260 -0.1821
23189W        W27489  24.269   5.689  21.438  0.0618  0.0062 -0.0735
23190W        W27490  20.378   5.218  21.004  0.1065 -0.0566 -0.1714
23191W        W27491  15.157   0.015   7.834  0.1680  0.1803 -0.0602
23192W        W27492   7.248   0.872  30.114  0.1475  0.2941  0.1097
23193W        W27493   0.326   1.600  28.472  0.0115 -0.1767  0.2279
23194W        W27494   4.534   2.876  30.643  0.1336  0.3273  0.0260
23195W        W27495  19.898   4.826   3.056 -0.2222 -0.0257  0.0504
23196W        W27496   1.681   4.645  29.442 -0.2646 -0.0505  0.2991
23197W        W27497   1.943   5.491  31.378  0.0056  0.0182 -0.1401
23198W        W27498  10.957   5.536   0.520 -0.0502  0.1400 -0.1920
23199W        W27499  18.529   6.676  21.479 -0.0617  0.4768  0.0460
23200W        W27500  17.133   7.311  20.381 -0.0009  0.0645  0.1309
23201W        W27501   7.900   3.829  23.363 -0.0134  0.0984 -0.0814
23202W        W27502  22.770   7.391  27.920 -0.1688 -0.1884 -0.2069
23203W        W27503   1.983   5.637  28.823 -0.2681  0.2473 -0.1220
23204W        W27504   2.987   7.487   7.253  0.0263  0.3161  0.0352
23205W        W27505  15.587   5.843   1.755  0.0309 -0.1221  0.0986
23206W        W27506   6.018   3.304  10.154  0.1590 -0.2293  0.0047
23207W        W27507  23.883   5.395  31.211  0.0730  0.0955 -0.0725
23208W        W27508  16.539   4.566   0.199 -0.0924 -0.0262  0.3810
23209W        W27509   4.710   7.248  24.242 -0.1548 -0.1227  0.3240
23210W        W27510  12.436   6.388  30.528 -0.0787 -0.1568 -0.2617
23211W        W27511   5.118   4.794  12.471  0.2079  0.0784 -0.2544
23212W        W27512  22.904   1.170  32.981 -0.2760  0.1761  0.0833
23213W        W27513  19.713   1.391   2.215 -0.0481 -0.0856  0.1644
23214W        W27514  24.157   6.329  26.171  0.0560  0.1080  0.2534
23215W        W27515  13.444   5.167   2.189 -0.0210  0.0023 -0.0729
23216W        W27516   7.213   3.155   7.795  0.1827 -0.0761 -0.0391
23217W        W27517   6.539   7.338   2.138  0.2482 -0.1514 -0.0252
23218W        W27518  20.288   6.576  11.315  0.2861 -0.0571 -0.0863
23219W        W27519   6.665   1.753   0.664 -0.1038  0.1981 -0.1547
23220W        W27520  20.918   1.534  25.473 -0.0505  0.1613 -0.0801
23221W        W27521   7.472   1.450  27.903 -0.0004  0.1830 -0.1364
23222W        W27522   8.575   6.683  10.916  0.0361  0.1820 -0.2878
23223W        W27523  22.035   3.018  10.503  0.3615  0.2456 -0.0144
23224W        W27524  22.589   0.153   3.333 -0.3542  0.2195 -0.3839
23225W        W27525  21.121   3.105  26.690 -0.2499 -0.5274 -0.0528
23226W        W27526   6.130   7.574   4.061 -0.1429  0.0167  0.1248
23227W        W27527  17.653   4.128   2.520 -0.1311 -0.0487 -0.0223
23228W        W27528  17.042   1.779   5.804 -0.2303  0.0832 -0.0588
23229W        W27529  19.203   0.180   5.751  0.0954 -0.1212 -0.2863
23230W        W27530   7.946   6.316   0.145 -0.2849 -0.2053  0.0950
23231W        W27531   0.176   1.342  29.280  0.2358  0.0567 -0.0181
23232W        W27532  21.928   4.049  20.572 -0.1579 -0.0016  0.1520
23233W        W27533  20.806   5.879  27.552  0.2748 -0.3214  0.2328
23234W        W27534   9.975   5.378  32.825  0.3054  0.4244 -0.0887
23235W        W27535   7.784   7.721  28.819  0.1126 -0.1229  0.3152
23236W        W27536  12.879   4.207   9.557 -0.0191  0.0195  0.1410
23237W        W27537   5.452   3.574  12.788 -0.2432 -0.1925 -0.0066
23238W        W27538   7.227   3.635  24.720  0.0816 -0.0698 -0.3367
23239W        W27539  10.933   6.385  28.697  0.3256  0.2189  0.0358
23240W        W27540   3.703   4.221  13.599  0.2036 -0.0037 -0.3050
23241W        W27541   1.248   7.214   0.449 -0.3347  0.2954  0.0374
23242W        W27542  15.301   3.168   9.892  0.2066  0.1745 -0.4040
23243W        W27543  19.183   6.957  17.144 -0.0848 -0.1544 -0.0286
23244W        W27544   3.827   1.512   1.651  0.2429  0.2400 -0.0404
23245W        W27545   3.661   3.102   7.463  0.2275 -0.2003  0.2342
23246W        W27546  24.786   0.143  26.766  0.1176 -0.3118 -0.1297
23247W        W27547   2.374   5.968  10.100 -0.1324 -0.2071 -0.1997
23248W        W27548  24.536   3.098  23.225 -0.0377 -0.1665  0.0111
23249W        W27549  14.893   1.790   2.141 -0.1817 -0.1666  0.0644
23250W        W27550  19.270   2.732   7.339  0.3035 -0.0530 -0.1672
23251W        W27551  11.767   2.727  21.958  0.0025 -0.2407 -0.3149
23252W        W27552  24.713   1.699  13.503 -0.1967 -0.1604  0.2966
23253W        W27553  18.122   1.304   8.318  0.1534  0.0922  0.0007
23254W        W27554  16.804   6.796  31.619  0.1052 -0.0601  0.0949
23255W        W27555   7.605   5.195  12.845 -0.0568 -0.2880 -0.2217
23256W        W27556  10.728   0.794   2.411 -0.1346  0.0035 -0.0886
23257W        W27557   0.021   5.859  24.651 -0.0305 -0.1475  0.2657
23258W        W27558  12.432   7.396  20.954  0.1198 -0.0521  0.1579
23259W        W27559   4.358   3.377  29.830  0.1243 -0.0899 -0.0224
23260W        W27560  18.468   1.754  23.431 -0.1394  0.1024  0.1369
23261W        W27561  18.996   1.224   2.670 -0.1726  0.2457 -0.0561
23262W        W27562  11.899   1.907  21.649 -0.0723  0.0419  0.4916
23263W        W27563   4.661   0.616   8.301  0.3575 -0.1251  0.1677
23264W        W27564  18.628   1.728   3.872 -0.0624 -0.0006 -0.1083
23265W        W27565  10.284   4.478  11.035  0.1813  0.0129  0.0039
23266W        W27566  12.625   5.102  27.643 -0.2066  0.2742 -0.1859
23267W        W27567   5.924   3.753   0.464 -0.3053  0.1823  0.0337
23268W        W27568   3.154   4.928   0.858  0.1318 -0.3935 -0.0260
23269W        W27569  15.591   2.359   8.550 -0.0721  0.0781 -0.1875
23270W        W27570  23.708   1.335  29.331  0.0311  0.1987 -0.2024
23271W        W27571   1.088   2.485   2.914  0.1687 -0.2104 -0.1150
23272W        W27572   9.046   0.201  23.677 -0.3405 -0.0659  0.2591
23273W        W27573   5.022   4.242  23.278 -0.4953  0.0177 -0.0584
23274W        W27574   2.441   1.998  10.902  0.2556  0.3199  0.0357
23275W        W27575   4.152   3.437   8.226 -0.0069  0.1787 -0.1675
23276W        W27576   3.360   1.690  10.895  0.1704 -0.0387 -0.0734
23277W        W27577   7.962   6.421  31.436  0.3529  0.4206  0.2215
23278W        W27578  23.927   5.124  13.306  0.1626 -0.0721 -0.0860
23279W        W27579  22.153   2.906  27.482  0.0107 -0.0907  0.1431
23280W        W27580  24.114   2.609  11.191  0.1609  0.0988 -0.2309
23281W        W27581   8.791   3.653  26.550  0.0527 -0.0053 -0.1998
23282W        W27582   9.845   1.016  32.682  0.0387  0.1903  0.0733
23283W        W27583  20.937   4.032  19.809 -0.0628  0.1787 -0.2106
23284W        W27584   0.157   4.044  14.943 -0.0487  0.0275  0.1258
23285W        W27585   4.286   3.912  16.733  0.0923  0.2073  0.3717
23286W        W27586   6.988   1.160   9.077  0.0215  0.2818 -0.0168
23287W        W27587   6.252   3.822  13.764  0.0468 -0.1182  0.0960
23288W        W27588  20.502   6.171   9.278 -0.1242  0.2532  0.2955
23289W        W27589  20.815   7.432  10.151  0.0906 -0.2070 -0.0403
23290W        W27590  10.705   4.097  32.864  0.1830 -0.1677  0.3353
23291W        W27591   5.285   2.408  25.537  0.0215 -0.0143 -0.2585
23292W        W27592  11.668   2.948  23.040 -0.0496  0.0734 -0.0054
23293W        W27593  24.271   6.374  24.274 -0.0806 -0.0573 -0.3740
23294W        W27594   1.997   4.117   0.924  0.2754 -0.1778 -0.3311
23295W        W27595  13.224   2.159  21.763 -0.0896 -0.0679  0.3226
23296W        W27596  16.736   1.179  10.688 -0.1122  0.0735  0.2268
23297W        W27597   2.802   0.360  25.995 -0.0292  0.2027  0.3491
23298W        W27598   6.853   6.144  24.448 -0.2379 -0.1889  0.0081
23299W        W27599   6.938   4.067  16.288 -0.1064 -0.1887 -0.2422
23300W        W27600  21.043   4.461  25.549 -0.1054 -0.0075 -0.1965
23301W        W27601  20.619   7.516   3.935 -0.0719 -0.0074  0.0664
23302W        W27602   5.408   5.646   4.969  0.0294  0.1001 -0.1310
23303W        W27603   6.606   4.404  27.152  0.0612  0.0231 -0.1132
23304W        W27604   8.726   4.478  23.349 -0.3345 -0.0321 -0.1361
23305W        W27605  20.900   6.572   5.555 -0.0063  0.2614 -0.1107
23306W        W27606  13.052   1.412  27.815  0.0129  0.3715  0.2742
23307W        W27607  20.570   6.274  31.871 -0.1575 -0.1555  0.0442
23308W        W27608  14.859   2.982   4.463 -0.0757 -0.0925 -0.1659
23309W        W27609   1.839   1.191   6.569 -0.2907 -0.0728 -0.2599
23310W        W27610   5.607   4.586  17.735  0.1038 -0.1900  0.1980
23311W        W27611   2.872   3.821  22.079  0.2159 -0.1756 -0.1623
23312W        W27612  20.397   0.928   7.786  0.3402 -0.0535  0.1718
23313W        W27613   4.752   2.600   9.412 -0.1227 -0.2774  0.0425
23314W        W27614   0.206   7.517  10.069  0.5067 -0.2281 -0.0708
23315W        W27615   3.858   7.177  32.453  0.1877 -0.0063  0.0564
23316W        W27616  10.358   2.995   8.164 -0.0152  0.1425 -0.1021
23317W        W27617  17.751   2.235  22.673  0.3145  0.1892  0.1856
23318W        W27618  22.922   2.257  20.175  0.1240  0.5586  0.0640
23319W        W27619   1.075   1.494  23.910  0.0877  0.1460  0.1099
23320W        W27620   5.891   0.456  32.632 -0.3982  0.0147 -0.0702
23321W        W27621  18.621   1.024  19.593 -0.1641  0.1490 -0.0206
23322W        W27622  17.081   3.119  26.566 -0.0829 -0.0139 -0.0415
23323W        W27623  23.132   3.257  12.757  0.4509 -0.1240 -0.1104
23324W        W27624   6.342   4.824   9.115 -0.1181 -0.0911 -0.0306
23325W        W27625  10.705   1.201   8.839 -0.0186 -0.0724 -0.0791
23326W        W27626   2.106   1.990  22.321  0.1438 -0.1914 -0.2737
23327W        W27627   5.731   4.473  16.710  0.2138  0.0182 -0.1706
23328W        W27628   2.020   6.341  25.952 -0.4168  0.0705  0.1560
23329W        W27629   7.262   5.943  12.730 -0.1686  0.0109  0.0381
23330W        W27630   2.314   1.262   3.089 -0.3040 -0.0210  0.1712
23331W        W27631   3.535   0.772  15.473 -0.0813 -0.1526 -0.0095
23332W        W27632  18.742   4.793  25.962 -0.0731 -0.0958  0.2525
23333W        W27633  21.294   0.661  31.330 -0.2017 -0.1378 -0.0277
23334W        W27634   2.441   3.722  13.099 -0.0906 -0.2307 -0.0854
23335W        W27635  11.974   7.040  22.978 -0.1083 -0.1157 -0.0043
23336W        W27636  10.550   1.343   1.663  0.0629  0.0112  0.2552
23337W        W27637  21.808   6.358   3.344  0.1473 -0.1717  0.1642
23338W        W27638  13.923   3.692  24.688 -0.4287  0.1239  0.0347
23339W        W27639  24.196   0.081  21.836 -0.3442 -0.0367 -0.0389
23340W        W27640   4.234   2.511  28.573  0.2575 -0.2404 -0.1358
23341W        W27641   3.170   5.018   6.315  0.0983  0.1610  0.0266
23342W        W27642  22.523   0.851  21.650 -0.3255 -0.0099  0.2981
23343W        W27643   1.003   5.729  10.013  0.1917  0.2744 -0.1780
23344W        W27644  21.481   0.073   4.045  0.3836  0.1674 -0.1020
23345W        W27645  16.396   1.302   9.068 -0.1073  0.2707  0.0542
23346W        W27646   8.267   2.228  31.293  0.4324  0.0367 -0.1490
23347W        W27647  16.766   0.926  21.679 -0.1056 -0.0355  0.0630
23348W        W27648   5.692   5.295  30.509 -0.2215  0.2711 -0.0822
23349W        W27649  23.247   2.542   2.569  0.3758  0.0741 -0.1201
23350W        W27650   3.682   2.440  15.607 -0.0039  0.1532 -0.0580
23351W        W27651   9.880   6.358   5.081  0.0681 -0.0717  0.0413
23352W        W27652  10.682   5.879  11.269 -0.2263 -0.0837  0.2660
23353W        W27653  24.036   2.874  24.843 -0.0991  0.2425 -0.1642
23354W        W27654  22.111   0.062  20.869  0.3898  0.0736  0.3246
23355W        W27655  21.301   6.223   6.235  0.0284 -0.0339  0.3582
23356W        W27656  12.499   1.165   9.277 -0.0653  0.1962  0.1659
23357W        W27657  21.820   5.042   1.630 -0.1236  0.0085  0.2862
23358W        W27658  13.852   6.040   3.042  0.5423  0.3098  0.0434
23359W        W27659   5.819   1.200  16.662  0.2464  0.3024 -0.0070
23360W        W27660  24.921   1.918  31.407 -0.0613 -0.0986 -0.2503
23361W        W27661   2.772   6.144   1.752 -0.2307  0.1592  0.0292
23362W        W27662  10.818   7.121  27.201  0.0226  0.0843  0.2537
23363W        W27663  20.992   4.356   0.187  0.1442  0.1127 -0.1300
23364W        W27664  19.217   3.204  18.214 -0.1892 -0.0159  0.3261
23365W        W27665  21.722   0.409  31.149  0.0847 -0.2282 -0.1256
23366W        W27666  23.272   7.038   6.593  0.0764  0.1705  0.3156
23367W        W27667   5.294   5.341   8.356  0.2875 -0.1165 -0.3355
23368W        W27668   5.726   0.715  12.489 -0.0345  0.1315  0.1075
23369W        W27669  20.290   6.762  11.858  0.2807 -0.0106 -0.0225
23370W        W27670  14.159   1.528  16.007 -0.0160 -0.2507  0.0440
23371W        W27671   0.874   5.981  22.750  0.0064  0.1527  0.2999
23372W        W27672   3.748   2.331  28.330 -0.0867  0.1373 -0.1179
23373W        W27673   5.672   7.604   6.072  0.0170  0.0677  0.2215
23374W        W27674   1.938   4.136   6.995 -0.0354  0.2917  0.0652
23375W        W27675   4.847   5.107  11.729  0.0256  0.3559  0.0963
23376W        W27676  16.958   3.232  30.929 -0.1177 -0.2775 -0.0829
23377W        W27677  14.724   5.443  15.102  0.2619  0.0861  0.0718
23378W        W27678   4.546   2.578  32.495  0.2294 -0.1908  0.0387
23379W        W27679  15.930   0.395  28.269  0.1469 -0.0530  0.2387
23380W        W27680  16.369   6.554   6.625  0.2576 -0.1742  0.1872
23381W        W27681  22.879   0.620   6.921 -0.2300 -0.3065 -0.0711
23382W        W27682   0.389   3.010  25.212 -0.0836 -0.0846 -0.1989
23383W        W27683  24.960   5.552  26.967 -0.1466 -0.0754 -0.0853
23384W        W27684  22.654   4.439  12.798  0.1644  0.0984  0.2066
23385W        W27685  14.836   5.254  21.970  0.1262  0.1505  0.2739
23386W        W27686  13.009   3.931  22.752  0.1002  0.2369 -0.0939
23387W        W27687  17.881   2.403  32.421 -0.0483 -0.0384 -0.0112
23388W        W27688   9.218   2.405   7.268 -0.0676  0.1741  0.0170
23389W        W27689   9.350   0.163   1.885 -0.2701 -0.0308 -0.3481
23390W        W27690  10.794   4.844  20.560 -0.1379 -0.1064  0.1664
23391W        W27691  12.368   6.624  30.070  0.0201  0.1341  0.2057
23392W        W27692   6.746   6.965   1.616 -0.0907  0.0444 -0.0728
23393W        W27693   5.559   3.082  22.520 -0.1658 -0.1447 -0.0815
23394W        W27694  18.682   3.359  19.171  0.0130  0.1695 -0.1318
23395W        W27695  13.944   7.211  31.826  0.0240 -0.0436  0.0359
23396W        W27696   4.096   4.995  23.671  0.1521  0.0126 -0.0749
23397W        W27697  11.592   4.521  24.535  0.2052 -0.0075 -0.0650
23398W        W27698  21.444   7.708  31.064 -0.0350 -0.1434  0.3576
23399W        W27699   8.616   1.777  27.533  0.0693  0.0603 -0.0761
23400W        W27700  17.942   3.173   3.015 -0.2462 -0.0186 -0.2383
23401W        W27701  21.383   6.556   4.620 -0.3672 -0.2185  0.1381
23402W        W27702  15.092   1.624  16.595 -0.2870  0.3692 -0.0770
23403W        W27703   9.402   2.010   6.857 -0.0823 -0.1175 -0.1013
23404W        W27704   5.523   5.468   6.317  0.0217 -0.5397  0.1657
23405W        W27705  12.553   4.312   4.858 -0.1632  0.0093  0.3051
23406W        W27706  19.462   1.741  26.286  0.0980 -0.0748 -0.2552
23407W        W27707   6.358   4.945  31.093  0.2367  0.0215  0.1630
23408W        W27708   0.558   7.612   6.376 -0.1488  0.0291  0.1388
23409W        W27709  19.976   6.854   5.850  0.3414  0.1824 -0.1169
23410W        W27710  11.029   4.946   3.954  0.1436  0.2791 -0.0544
23411W        W27711   7.711   6.244   4.095 -0.0202  0.2012  0.0171
23412W        W27712   5.437   2.600  23.673 -0.2691 -0.0565 -0.1938
23413W        W27713   4.758   4.313   7.009  0.0979 -0.1721  0.0310
23414W        W27714  19.063   4.954   8.191  0.2415  0.1110  0.0361
23415W        W27715  20.252   6.503  21.760  0.1016  0.0085 -0.0331
23416W        W27716  21.965   4.733  20.582 -0.0186  0.0080 -0.1884
23417W        W27717  13.009   3.372   5.811  0.0041  0.0871 -0.0585
23418W        W27718   0.026   1.527   9.847 -0.0464  0.1529 -0.0230
23419W        W27719   7.341   4.011  27.863 -0.2368  0.0017  0.0279
23420W        W27720   9.215   6.446   4.650  0.0320  0.1118  0.0500
23421W        W27721  16.334   5.352  10.772  0.2563  0.0754  0.0108
23422W        W27722   8.105   6.765   6.665  0.0656 -0.1126 -0.2713
23423W        W27723   0.739   0.444  27.771 -0.1178 -0.0380 -0.1437
23424W        W27724  14.338   7.688  20.360 -0.1854  0.0183  0.1383
23425W        W27725  16.759   0.740   7.536  0.0257  0.1276 -0.0565
23426W        W27726   4.097   0.615  14.677  0.0169 -0.2251  0.1755
23427W        W27727   2.946   7.507   5.033 -0.0003  0.0587  0.0413
23428W        W27728  20.854   6.267   2.188 -0.2812  0.1572  0.0033
23429W        W27729  19.193   4.907   6.918 -0.0702 -0.0313  0.0543
23430W        W27730  16.073   1.423  24.653 -0.0789  0.2809 -0.1476
23431W        W27731   0.843   5.343  27.220 -0.1025  0.0325 -0.0189
23432W        W27732   4.686   3.030  29.150  0.2758  0.0675 -0.0797
23433W        W27733   8.961   4.745   6.349  0.2613 -0.0151  0.0909
23434W        W27734  14.002   4.849  22.544 -0.0205 -0.2967 -0.4027
23435W        W27735  19.192   1.293   3.437 -0.1891  0.3292  0.1742
23436W        W27736   2.395   5.800  18.141  0.1080 -0.1280 -0.1040
23437W        W27737  16.950   0.143   4.016  0.1536 -0.1370 -0.0065
23438W        W27738  20.765   5.841  17.375 -0.2350 -0.1475  0.1761
23439W        W27739  20.053   1.628  17.349 -0.1588  0.0710 -0.1514
23440W        W27740  24.957   3.165  31.902  0.3109 -0.1027  0.0372
23441W        W27741   3.560   6.125  24.560  0.1745  0.3493  0.0854
23442W        W27742  12.487   0.372  20.153 -0.1070 -0.3616  0.2438
23443W        W27743  19.036   1.088  30.242 -0.0368  0.1726  0.1435
23444W        W27744   6.077   0.315  17.565 -0.0369  0.2145 -0.2496
23445W        W27745  23.177   7.123   7.503 -0.0864  0.2134  0.1978
23446W        W27746  20.127   2.730  20.628 -0.0702  0.2482  0.2085
23447W        W27747  18.865   7.270   0.813  0.2667  0.1766  0.0435
23448W        W27748  15.885   6.006  26.079 -0.0952 -0.1039 -0.1161
23449W        W27749  24.060   2.722  32.043  0.0793  0.1970  0.0340
23450W        W27750  23.258   2.881  27.917  0.0536  0.0420  0.0439
23451W        W27751   1.674   1.348  23.946  0.1372  0.0793  0.1301
23452W        W27752  16.372   6.218  15.528  0.1415 -0.0284  0.0077
23453W        W27753   6.658   0.966  31.642 -0.0121 -0.2252  0.1055
23454W        W27754   2.789   1.140  17.296 -0.2869  0.0220 -0.5109
23455W        W27755  23.788   3.196  30.727 -0.3231  0.1187  0.1378
23456W        W27756  18.820   0.553   4.144  0.2365 -0.2794  0.1388
23457W        W27757   5.513   4.531  28.601 -0.2218  0.0555 -0.2729
23458W        W27758   5.824   1.424  14.735 -0.0159  0.0840  0.2757
23459W        W27759  18.136   1.267  31.498 -0.4453  0.0885  0.2390
23460W        W27760  18.104   2.164   6.814 -0.0039 -0.1637 -0.0807
23461W        W27761  20.782   0.104  10.448  0.0084 -0.1624 -0.2329
23462W        W27762  19.705   6.281  32.575 -0.1809  0.1730  0.0693
23463W        W27763  19.838   0.051  21.166 -0.1386 -0.0866 -0.2628
23464W        W27764  20.986   7.449   3.313 -0.3108  0.0459 -0.0284
23465W        W27765  21.550   3.979   3.588 -0.0446 -0.3586 -0.0840
23466W        W27766  14.925   0.179  27.297  0.3721  0.5098 -0.2421
23467W        W27767  11.592   1.805  10.720 -0.1835  0.1490  0.1040
23468W        W27768  21.122   2.412  25.958 -0.0998  0.0811  0.0232
23469W        W27769  10.901   3.528  10.140 -0.2197 -0.0395 -0.0548
23470W        W27770  13.645   0.302  22.407 -0.3538  0.0952  0.1509
23471W        W27771   6.599   1.120  23.300  0.2480 -0.0382  0.3535
23472W        W27772   4.012   3.637  30.624  0.0352 -0.0346  0.0045
23473W        W27773  24.616   0.197  29.540 -0.3883 -0.1100  0.1038
23474W        W27774  20.819   4.648  24.519  0.0764 -0.1230  0.0508
23475W        W27775  16.277   5.206  15.495  0.0179  0.1333 -0.2198
23476W        W27776  18.236   6.482  29.884  0.2615 -0.0437  0.0017
23477W        W27777  14.769   2.395  27.274 -0.4371  0.0320  0.2606
23478W        W27778   4.393   6.940  18.151 -0.0359 -0.1088 -0.0883
23479W        W27779   0.085   1.748  29.576 -0.1551 -0.2150 -0.0882
23480W        W27780   1.481   6.694  26.147 -0.0537 -0.1343 -0.2054
23481W        W27781  20.042   3.565  30.989  0.1223 -0.1975 -0.1220
23482W        W27782  15.272   4.823  10.538 -0.0899  0.2500  0.2514
23483W        W27783  10.173   5.929  11.287  0.0470  0.0826  0.1794
23484W        W27784   8.629   2.833   3.291  0.1840 -0.0579 -0.0890
23485W        W27785  14.836   4.596  16.290 -0.0664  0.2728  0.3229
23486W        W27786   9.089   3.996  30.608 -0.0138 -0.2374 -0.2702
23487W        W27787  17.148   2.609  25.261 -0.2440  0.5373 -0.0116
23488W        W27788  23.573   3.339  21.840  0.2670  0.2018  0.4397
23489W        W27789   4.746   3.711  23.811 -0.2307  0.1443 -0.0494
23490W        W27790   1.453   4.687   7.789  0.0736 -0.2362 -0.2956
23491W        W27791   7.009   3.744  25.327 -0.0471 -0.1545 -0.0705
23492W        W27792  13.921   5.879  21.356 -0.0034 -0.1948  0.1111
23493W        W27793   4.005   1.346  25.595 -0.3581 -0.0271  0.1029
23494W        W27794  17.297   1.038   4.920 -0.2630  0.2618 -0.0321
23495W        W27795   8.629   0.834  30.475 -0.0425  0.0429 -0.1539
23496W        W27796  11.869   4.890  28.090 -0.2254  0.2147 -0.0503
23497W        W27797  10.102   7.734  27.503 -0.2204  0.2099 -0.0589
23498W        W27798   0.643   2.447   1.643 -0.1894  0.1800 -0.0788
23499W        W27799  11.228   7.228  24.018  0.0099  0.0053  0.2727
23500W        W27800   0.696   4.962  26.104  0.0908  0.0359  0.1182
23501W        W27801   3.830   1.568  13.758  0.0585  0.2264  0.4796
23502W        W27802  10.797   0.427  10.920 -0.1024 -0.2083  0.0781
23503W        W27803  12.374   3.953  29.769 -0.0747 -0.0990  0.3016
23504W        W27804  12.082   3.680  32.525 -0.0768 -0.2019 -0.0059
23505W        W27805   5.011   2.307   1.750  0.1402 -0.1814 -0.0372
23506W        W27806  14.585   5.350   0.140 -0.1986  0.2210 -0.1530
23507W        W27807   8.389   3.921   0.404  0.0951 -0.0784  0.1973
23508W        W27808   3.991   5.474  32.898 -0.0785  0.0264  0.3920
23509W        W27809   4.286   0.283  15.390 -0.0562  0.1083  0.1114
23510W        W27810  21.343   4.255  28.467 -0.1370 -0.2765 -0.0404
23511W        W27811   0.317   2.601   3.634 -0.4277  0.0356 -0.2617
23512W        W27812   0.230   6.623   4.243  0.1858  0.0806 -0.1391
23513W        W27813  23.402   3.791   8.702 -0.3596  0.1943  0.0857
23514W        W27814   1.388   1.834   6.975  0.3999 -0.0530  0.0133
23515W        W27815  13.632   3.833   6.625 -0.3016  0.1274 -0.0100
23516W        W27816  21.441   0.011   1.843  0.1309 -0.1159  0.0282
23517W        W27817   4.875   6.528  28.209  0.0605 -0.0410 -0.0730
23518W        W27818  19.394   3.124   7.781  0.0614 -0.0602 -0.2620
23519W        W27819  24.824   0.908  28.358 -0.1762 -0.0370 -0.1744
23520W        W27820   6.050   3.065  14.451  0.1820  0.0535 -0.0887
23521W        W27821   8.427   2.679   0.614  0.0248  0.1906  0.0506
23522W        W27822  10.132   5.578   8.168  0.3290  0.0672  0.4459
23523W        W27823  21.774   6.302   5.602 -0.0448  0.0252 -0.2299
23524W        W27824   5.253   6.158  23.762  0.0656  0.1609 -0.0814
23525W        W27825   3.075   4.427  16.586 -0.0170 -0.1745 -0.2400
23526W        W27826   3.408   3.278  26.502 -0.1808  0.0136  0.1934
23527W        W27827   7.674   6.442  16.965  0.4542 -0.2487 -0.3858
23528W        W27828  16.854   6.228  26.433  0.1564 -0.0427 -0.1502
23529W        W27829  14.156   2.768  17.590 -0.3989 -0.2562 -0.0896
23530W        W27830  23.477   1.126  12.210  0.0644  0.1658 -0.1795
23531W        W27831  19.026   1.992   0.913 -0.0508 -0.2240 -0.0127
23532W        W27832  12.933   3.772  23.547  0.1260  0.0570 -0.1269
23533W        W27833  11.999   0.053   6.765 -0.1444 -0.0998  0.1770
23534W        W27834   3.745   4.376   4.298 -0.0158  0.0174  0.1407
23535W        W27835   7.007   2.689  12.785  0.0810  0.0238  0.0403
23536W        W27836   2.185   0.776  23.917 -0.2136 -0.1683  0.2003
23537W        W27837  24.648   2.450   3.147 -0.0477  0.2220  0.0038
23538W        W27838  21.271   7.212   8.795 -0.3752  0.0608 -0.0855
23539W        W27839   6.712   2.101   6.148 -0.0491 -0.3782 -0.0967
23540W        W27840   7.705   5.018  29.944  0.0630 -0.0114  0.3367
23541W        W27841   5.580   2.874   4.962  0.0457 -0.1297  0.0347
23542W        W27842  11.278   2.337   4.001  0.1247 -0.5508 -0.0381
23543W        W27843   6.722   7.569   2.617 -0.0316  0.0654  0.2276
23544W        W27844  24.463   3.327   9.534  0.1070  0.0916  0.1104
23545W        W27845  24.521   5.932  13.089  0.2106  0.0010  0.2014
23546W        W27846  21.765   3.373  10.738 -0.0942 -0.0472 -0.1655
23547W        W27847  18.014   0.037  28.167  0.0098 -0.0480 -0.1066
23548W        W27848  15.822   4.405  26.441 -0.0864  0.0032  0.1996
23549W        W27849  16.086   3.521  19.655 -0.2946  0.3169 -0.2112
23550W        W27850  13.824   7.052  19.278 -0.0204 -0.0825 -0.0567
23551W        W27851  23.982   6.227   7.087  0.2023  0.0072  0.1632
23552W        W27852   2.335   2.427   7.754  0.0093  0.2089 -0.0529
23553W        W27853  10.713   1.699  31.072 -0.1634 -0.1660 -0.0761
23554W        W27854   1.369   7.620   2.208 -0.1757 -0.0527  0.0328
23555W        W27855   1.735   0.523   5.662  0.0127  0.0206 -0.1541
23556W        W27856  20.839   1.498  30.218 -0.2269 -0.2499 -0.0847
23557W        W27857   7.485   4.413  29.644  0.1214 -0.0498  0.0734
23558W        W27858  19.920   7.594  19.221 -0.0555  0.2779 -0.0218
23559W        W27859   8.350   0.077  12.482  0.0595  0.1491  0.0875
23560W        W27860  21.522   4.909  11.761 -0.4404 -0.2866 -0.1336
23561W        W27861  20.679   3.629  21.400  0.1486  0.2188  0.0374
23562W        W27862  17.773   4.089  15.096 -0.1591  0.0124  0.0515
23563W        W27863   4.703   3.928  29.221 -0.1735  0.3298  0.2856
23564W        W27864   9.712   0.590  12.718  0.2552  0.1369  0.2015
23565W        W27865  21.618   0.660  21.591 -0.1714 -0.1301 -0.1601
23566W        W27866  21.985   2.224  22.639  0.2746 -0.0865  0.0660
23567W        W27867  10.871   4.639  28.465  0.1302 -0.0699  0.1137
23568W        W27868   5.384   4.578   3.910 -0.3296 -0.1744 -0.5199
23569W        W27869  15.713   1.430   9.623  0.3059  0.0038 -0.1089
23570W        W27870   7.165   6.018  16.192 -0.1347 -0.0100 -0.0195
23571W        W27871  24.600   6.553  32.080  0.2489  0.4344  0.0722
23572W        W27872   5.044   7.048   4.319 -0.1744  0.1445  0.3306
23573W        W27873   9.077   2.303   1.877  0.0066 -0.0096  0.2075
23574W        W27874   8.577   6.124  12.079  0.2842  0.3276  0.0053
23575W        W27875  24.240   2.430  31.640 -0.1323 -0.3643  0.0302
23576W        W27876  14.817   2.846  20.471  0.0857  0.4380  0.0196
23577W        W27877   6.041   1.492  22.466 -0.2167 -0.0212  0.0713
23578W        W27878   3.928   6.201   4.427  0.0981  0.3206  0.3231
23579W        W27879  12.140   5.932   2.428 -0.2470  0.2726 -0.2348
23580W        W27880  20.824   7.293  21.289 -0.1925 -0.1572  0.2483
23581W        W27881   0.186   4.076  30.722  0.0605  0.1475 -0.1887
23582W        W27882   2.182   1.627   1.206  0.0484 -0.1067 -0.1837
23583W        W27883  13.032   3.060   1.741  0.0949  0.1158 -0.0946
23584W        W27884  23.760   2.453   0.249 -0.1118 -0.0252 -0.0978
23585W        W27885  24.560   0.904  28.820 -0.1859 -0.0353  0.3274
23586W        W27886   2.602   0.407  27.019  0.0761 -0.0231 -0.2613
23587W        W27887  18.995   2.828  31.777 -0.1873 -0.1122 -0.0212
23588W        W27888   2.215   4.312  14.151  0.0799 -0.0283 -0.1823
23589W        W27889   0.877   1.628  26.888 -0.0062  0.0362  0.2017
23590W        W27890   7.907   4.434  12.987 -0.3123 -0.0975  0.2956
23591W        W27891   9.253   5.760   0.833  0.2660  0.2268  0.0817
23592W        W27892   3.550   4.900   4.200 -0.0696  0.0404 -0.0968
23593W        W27893   0.527   3.781  26.775  0.0746  0.1109  0.0782
23594W        W27894   0.613   2.566   5.144  0.0736 -0.2066  0.4066
23595W        W27895  12.653   2.183  20.937  0.6280 -0.3066 -0.0349
23596W        W27896   8.843   2.474   3.646  0.1938 -0.2642 -0.1133
23597W        W27897  10.269   4.123  32.120 -0.1020 -0.0632 -0.0180
23598W        W27898  23.678   7.127  21.536 -0.3949  0.1817  0.1299
23599W        W27899  22.804   3.007  23.337  0.1947 -0.0287  0.0033
23600W        W27900  18.786   4.030  28.911  0.0360  0.0244 -0.2446
23601W        W27901   4.209   3.950   6.435  0.1214  0.0561  0.0404
23602W        W27902   7.486   0.960  11.895 -0.2003  0.2627 -0.1282
23603W        W27903  17.906   2.249   4.012 -0.2109  0.0203  0.0555
23604W        W27904   9.650   6.885   7.086 -0.1124 -0.0181 -0.2160
23605W        W27905   9.059   6.536  28.260  0.0531  0.0584  0.2202
23606W        W27906  23.520   1.050   4.339  0.3958 -0.0507 -0.2672
23607W        W27907   5.527   2.734  16.393 -0.0616 -0.0021  0.0933
23608W        W27908  15.086   3.611   3.785 -0.0914 -0.2272 -0.2034
23609W        W27909   0.872   5.606  24.150 -0.0483  0.1122 -0.3986
23610W        W27910  16.054   5.869   7.199 -0.1594 -0.0562  0.3356
23611W        W27911  24.088   2.036  15.385  0.1995 -0.2228  0.0243
23612W        W27912  12.723   0.388   2.739 -0.1822 -0.0073  0.0954
23613W        W27913   9.743   4.556  25.180  0.3994 -0.2146  0.2851
23614W        W27914  21.746   1.976  32.237  0.1798 -0.3077  0.0280
23615W        W27915  11.077   4.276  29.363  0.3649  0.0452  0.0405
23616W        W27916   5.828   7.403  17.278 -0.3680  0.1724  0.1391
23617W        W27917  22.156   6.714  18.091  0.1404 -0.0594 -0.0850
23618W        W27918   1.520   3.190  33.017  0.0108  0.1780  0.0353
23619W        W27919   9.594   7.489  10.575 -0.1600 -0.0692  0.0626
23620W        W27920   0.669   7.586  14.356  0.2468  0.0242 -0.0497
23621W        W27921  18.392   6.321   9.882  0.3022  0.1358 -0.1556
23622W        W27922  24.158   5.338  11.453  0.1304 -0.0063  0.1972
23623W        W27923  14.171   4.452  21.755 -0.0624 -0.1363 -0.0172
23624W        W27924  24.165   3.631  32.292 -0.0808 -0.1505  0.1604
23625W        W27925  21.814   2.305   6.184  0.3691  0.3048 -0.0329
23626W        W27926   5.963   6.432   4.030  0.0811  0.0607  0.4714
23627W        W27927  16.070   1.053  26.623 -0.2782  0.2477 -0.2272
23628W        W27928   7.271   2.174  27.495 -0.0278 -0.1497 -0.0237
23629W        W27929  22.125   5.320   7.945 -0.0412  0.3376 -0.2346
23630W        W27930  17.180   4.086  23.596  0.1785  0.0679  0.1639
23631W        W27931  14.711   7.093  18.503  0.1976 -0.2258 -0.1198
23632W        W27932  21.186   1.810  23.127  0.1310  0.1260  0.1382
23633W        W27933   5.448   4.236  11.103 -0.0503  0.0105  0.1309
23634W        W27934  10.682   7.281   4.445 -0.0436 -0.0481  0.1245
23635W        W27935   0.467   6.909   3.859  0.0191 -0.3163 -0.1961
23636W        W27936  10.182   5.478  20.703  0.0329 -0.2847 -0.1710
23637W        W27937  14.060   2.521  25.977 -0.1802 -0.3044 -0.0090
23638W        W27938  17.858   6.600  22.732  0.2671  0.1819 -0.3517
23639W        W27939  10.386   7.403   6.758 -0.4087 -0.0624 -0.0057
23640W        W27940  10.124   3.771  20.754  0.1037  0.0403 -0.0014
23641W        W27941   3.543   4.221  29.941 -0.0269  0.0731 -0.3466
23642W        W27942   3.831   2.237  25.549  0.2617  0.0047 -0.2270
23643W        W27943  17.758   5.903  10.557  0.2689  0.0305  0.0778
23644W        W27944   6.715   0.934   4.555  0.1810 -0.3460  0.0116
23645W        W27945  23.731   1.098  31.291 -0.1449  0.0297  0.1188
23646W        W27946   2.777   6.263   5.938 -0.0675 -0.0791  0.1015
23647W        W27947   3.666   2.612  14.601 -0.2699 -0.0888 -0.3093
23648W        W27948   5.729   4.856  26.526  0.1057 -0.0289  0.1469
23649W        W27949  24.139   7.380   6.380 -0.0492  0.0788  0.1266
23650W        W27950  17.142   3.454   3.641  0.2058  0.2256  0.1665
23651W        W27951   0.450   1.118  22.324 -0.0109  0.1457 -0.1296
23652W        W27952  16.813   2.306   9.354  0.1508  0.1587  0.0947
23653W        W27953  12.879   7.278  17.678  0.1188  0.1756  0.0082
23654W        W27954  10.035   4.751  30.922 -0.0386 -0.0560 -0.2817
23655W        W27955   2.753   0.291  11.908 -0.1275 -0.0198 -0.3858
23656W        W27956  20.682   1.464   8.974 -0.2470 -0.0001 -0.0874
23657W        W27957   2.701   3.997   5.237  0.1597 -0.3714 -0.0237
23658W        W27958  20.701   4.021  29.691  0.0160 -0.1942 -0.1057
23659W        W27959   8.239   5.094  13.373  0.0403 -0.0611  0.2618
23660W        W27960  15.212   3.184   3.583 -0.0417  0.2689  0.2469
23661W        W27961  20.435   2.159  32.862  0.1268  0.1853 -0.3029
23662W        W27962  12.730   2.073  31.861  0.0368 -0.1063 -0.1394
23663W        W27963   5.200   4.831  30.470  0.1409  0.1787 -0.0238
23664W        W27964   4.174   7.569   1.406  0.2046  0.0378  0.1188
23665W        W27965   9.533   7.499  30.426 -0.2681  0.0212  0.2232
23666W        W27966  14.424   2.349   3.126  0.1129  0.1518 -0.0791
23667W        W27967  10.182   5.306  14.276 -0.0770  0.0896  0.3640
23668W        W27968  16.154   0.551  26.466  0.2153 -0.3162  0.0121
23669W        W27969   5.305   1.096   3.357 -0.0349  0.0706 -0.1771
23670W        W27970  14.127   5.326  27.285  0.1568  0.1035 -0.2442
23671W        W27971  20.253   6.703  26.929  0.2012  0.0423 -0.1992
23672W        W27972  16.227   5.188  27.371 -0.0628  0.0287  0.1330
23673W        W27973  21.951   2.563  23.063  0.0949  0.0385 -0.0641
23674W        W27974  21.669   3.842   0.734  0.1864  0.1210 -0.0001
23675W        W27975  10.645   6.683  22.525  0.1935  0.1190 -0.0662
23676W        W27976  13.849   2.307   9.104 -0.3612  0.1018  0.0089
23677W        W27977  21.450   0.302  23.542 -0.0139 -0.0388  0.2313
23678W        W27978   0.433   5.434  30.802  0.1256  0.2947  0.1567
23679W        W27979   0.815   3.808   4.986  0.0378  0.0832 -0.0009
23680W        W27980  17.274   6.084  22.765  0.0172 -0.1578  0.2231
23681W        W27981  12.132   0.781  23.715 -0.1961 -0.1905 -0.0278
23682W        W27982  24.758   3.897  14.629  0.0695  0.2657  0.0018
23683W        W27983   4.498   3.900   2.281 -0.2009 -0.0794 -0.0853
23684W        W27984  24.891   5.901  28.702  0.0328  0.2289 -0.3797
23685W        W27985  22.408   3.950  28.504 -0.0983  0.0298  0.0607
23686W        W27986  15.747   4.731  30.414  0.0841  0.1448 -0.3796
23687W        W27987   3.708   1.282  16.542 -0.0036 -0.1293  0.3830
23688W        W27988   3.086   2.928  32.687  0.3017  0.2138 -0.1239
23689W        W27989  19.220   6.147  30.664 -0.0985  0.0331  0.0731
23690W        W27990   3.899   5.712  30.440  0.1998 -0.1030  0.3140
23691W        W27991  19.494   6.648  31.666  0.4225 -0.2786 -0.1317
23692W        W27992  14.743   4.126   5.670  0.1021  0.1724 -0.2738
23693W        W27993   6.787   2.143   0.347 -0.1607  0.0627 -0.1498
23694W        W27994  13.166   2.463   8.662 -0.0012 -0.0555  0.0568
23695W        W27995  21.173   6.758  21.173 -0.0500  0.1933  0.1183
23696W        W27996  15.293   6.424  28.045 -0.1030 -0.0444 -0.1497
23697W        W27997   6.166   3.759   7.938  0.0861  0.0065 -0.0779
23698W        W27998  24.057   3.075  10.212  0.1150 -0.2453 -0.3373
23699W        W27999  16.688   1.822  16.601  0.2492  0.0968  0.3658
23700W        W28000  23.987   3.060  12.204  0.1347  0.1323 -0.0831
23701W        W28001   4.510   5.154   7.826  0.0174  0.2138  0.1005
23702W        W28002  22.600   3.372  12.445  0.2142 -0.1023  0.0339
23703W        W28003   5.986   4.320  29.224  0.2017 -0.1629  0.5381
23704W        W28004   6.067   3.790  14.304  0.0389  0.2799  0.0910
23705W        W28005   9.768   7.037  23.893 -0.0714  0.1909  0.1891
23706W        W28006   6.193   1.389  16.339 -0.1329 -0.1871  0.2493
23707W        W28007  21.246   1.028   2.571 -0.1293 -0.1081  0.0536
23708W        W28008  11.228   5.928   0.367 -0.0765  0.2650 -0.2319
23709W        W28009  19.020   2.458  26.426  0.1285 -0.1472 -0.2644
23710W        W28010  19.396   3.930   3.019  0.2121 -0.2058  0.1502
23711W        W28011   8.835   2.393  25.309  0.5769  0.1012  0.1390
23712W        W28012   2.504   5.069  26.280  0.4064  0.0323  0.0352
23713W        W28013  13.701   2.371  32.256  0.0541  0.0127 -0.0146
23714W        W28014  18.278   7.161  32.770  0.1192 -0.2150 -0.1436
23715W        W28015   0.385   5.388  12.597  0.1253 -0.0687  0.0344
23716W        W28016  10.233   0.709   4.736 -0.2195  0.1352  0.0742
23717W        W28017  23.955   1.858  30.238 -0.3485 -0.1014 -0.1784
23718W        W28018   1.517   5.880  15.291  0.0543 -0.1929  0.1763
23719W        W28019  19.838   1.388  25.984 -0.0921  0.0652 -0.1593
23720W        W28020  21.115   4.961  30.794 -0.1745 -0.1947  0.1690
23721W        W28021  21.113   0.724  21.515 -0.2055 -0.1707 -0.0262
23722W        W28022   8.548   3.856   8.821 -0.1967  0.1579  0.3406
23723W        W28023   8.866   5.751  22.595 -0.0754 -0.1361 -0.1135
23724W        W28024  24.707   6.903  32.462  0.1252 -0.0579 -0.1433
23725W        W28025   1.941   2.006   3.731 -0.0033  0.0897  0.0110
23726W        W28026   0.505   1.283  23.115 -0.0412 -0.1434 -0.0609
23727W        W28027  23.021   5.514  30.871  0.2406  0.1317 -0.1701
23728W        W28028   2.810   3.095  23.590 -0.0651 -0.0462 -0.0607
23729W        W28029   6.140   2.357   2.230  0.1439  0.0311  0.0691
23730W        W28030   4.193   7.585  10.846  0.0646 -0.0034 -0.0219
23731W        W28031  15.457   0.516   7.663 -0.1234  0.1377 -0.2086
23732W        W28032  11.011   0.294   7.512 -0.3142  0.1642  0.1582
23733W        W28033  24.568   4.756  29.148 -0.4048  0.1391  0.0120
23734W        W28034   8.801   2.163  32.817 -0.2354 -0.2850  0.1222
23735W        W28035  10.709   0.257  26.997 -0.3225 -0.2006  0.1686
23736W        W28036  20.482   0.528  24.051 -0.1347  0.2319  0.0662
23737W        W28037  16.918   6.381  24.936  0.1791 -0.2119 -0.1046
23738W        W28038  18.119   6.975  16.361  0.2440 -0.0940 -0.4117
23739W        W28039  16.069   0.032   4.620  0.1787 -0.0341 -0.1875
23740W        W28040  15.963   2.389  22.774  0.0303  0.0914 -0.0981
23741W        W28041  13.673   0.369   5.701 -0.1302 -0.0316  0.0164
23742W        W28042   8.329   0.061   3.243 -0.2645 -0.0157  0.2326
23743W        W28043  19.604   5.497  26.965  0.1993 -0.0009  0.1051
23744W        W28044  17.941   2.070   1.244  0.3136 -0.1048  0.2534
23745W        W28045  13.741   4.997  29.056 -0.0769 -0.0576 -0.0043
23746W        W28046  18.273   6.432  23.194  0.3222 -0.1195 -0.1692
23747W        W28047  10.715   6.658   1.751  0.0838 -0.0624  0.0262
23748W        W28048   8.138   7.157  30.911 -0.0753 -0.0295  0.0311
23749W        W28049  15.329   0.363  29.378 -0.1079  0.0528 -0.0976
23750W        W28050   3.321   2.329  28.063  0.0526  0.0397  0.0637
23751W        W28051  11.389   1.947  31.511  0.1219 -0.2047 -0.0173
23752W        W28052  15.405   5.607  16.731 -0.3388  0.0367  0.0212
23753W        W28053  15.058   2.925   1.801  0.0909 -0.0104 -0.3068
23754W        W28054   9.170   2.552   3.274  0.0666 -0.1287  0.3774
23755W        W28055  16.088   1.011  25.725 -0.1582 -0.0369  0.2247
23756W        W28056  13.988   2.952  32.922  0.2081  0.0647 -0.0973
23757W        W28057  19.746   7.098  32.479  0.2292 -0.0933 -0.0880
23758W        W28058   1.327   1.105  28.114 -0.0549  0.1120  0.2123
23759W        W28059  17.641   3.467  27.639 -0.0725  0.2850 -0.2376
23760W        W28060  14.439   0.719  18.145  0.1310  0.0906  0.2151
23761W        W28061  17.988   0.549   2.198  0.0258  0.1458 -0.0271
23762W        W28062  16.875   4.145  26.296 -0.3948 -0.3643  0.1325
23763W        W28063  13.426   1.565  17.344 -0.2095 -0.2494  0.0341
23764W        W28064   3.584   0.374   7.274  0.0746  0.2966  0.1016
23765W        W28065  23.448   7.319  28.508  0.1366 -0.2124  0.1243
23766W        W28066  20.912   7.209  18.424  0.1635 -0.0132  0.2908
23767W        W28067  17.231   1.542  17.098  0.1565  0.1462  0.0351
23768W        W28068  21.356   2.240  23.862 -0.3040 -0.0599  0.0456
23769W        W28069  19.104   2.640   9.091  0.3188  0.1838 -0.2221
23770W        W28070  22.747   5.736  30.145  0.0736  0.2205  0.0656
23771W        W28071   1.714   5.936   6.602  0.1651 -0.1220 -0.0021
23772W        W28072  19.297   6.875   9.443 -0.1239 -0.0594 -0.0688
23773W        W28073   8.142   0.230   6.093 -0.1361 -0.0484  0.0346
23774W        W28074   8.309   6.084  27.790  0.0593 -0.0192  0.2107
23775W        W28075   6.608   4.617  15.223  0.0904  0.0531 -0.4561
23776W        W28076   6.804   5.225   1.588 -0.1262  0.1729  0.3171
23777W        W28077   7.911   4.398  23.610 -0.0782  0.0978  0.2535
23778W        W28078  12.490   7.612  20.407  0.0795 -0.0588  0.1420
23779W        W28079  23.941   6.443  32.617  0.0948 -0.0890 -0.1651
23780W        W28080  16.457   2.156   7.996 -0.0747 -0.0941  0.2992
23781W        W28081  17.310   4.709  10.385  0.1612 -0.3176 -0.1447
23782W        W28082  17.782   3.435  15.115  0.2173 -0.0796  0.0557
23783W        W28083   7.329   2.344   0.651 -0.1379 -0.0454  0.1722
23784W        W28084   0.100   3.414  26.975  0.0261 -0.1451  0.0688
23785W        W28085  19.639   7.600  32.658  0.0536  0.1996 -0.0580
23786W        W28086  21.848   5.603   9.298  0.1224 -0.0946  0.1020
23787W        W28087  14.328   5.842  19.235 -0.0871  0.1164  0.1855
23788W        W28088  20.945   7.524   4.597  0.3001  0.2064  0.1047
23789W        W28089   4.167   4.380  25.908  0.0040 -0.1022  0.1474
23790W        W28090   5.489   0.066  31.741 -0.3102 -0.1886 -0.0409
23791W        W28091   6.982   2.610  10.626 -0.0538  0.2463 -0.1041
23792W        W28092  13.079   1.054  31.980 -0.2983  0.0890 -0.1980
23793W        W28093   4.155   6.641  23.140  0.1542 -0.1896 -0.1311
23794W        W28094  17.488   0.349   7.495  0.0734 -0.1850 -0.2528
23795W        W28095  16.681   1.347   2.360  0.1886  0.0820  0.3693
23796W        W28096  15.787   6.033   6.010  0.1927  0.0821 -0.3935
23797W        W28097  12.127   0.362  23.340 -0.0730 -0.1527  0.0342
23798W        W28098   6.147   1.170   1.600 -0.1916 -0.0532  0.1620
23799W        W28099   6.474   2.166  33.012  0.2390  0.2069 -0.0662
23800W        W28100  20.378   2.949  25.400 -0.3043 -0.0717  0.2546
23801W        W28101   3.909   4.335   2.404 -0.1508  0.1735  0.1040
23802W        W28102  10.424   1.286  23.730 -0.1794 -0.1876  0.2443
23803W        W28103  24.424   0.795   3.032  0.0182  0.1298 -0.1225
23804W        W28104  13.477   1.499  32.723  0.0073 -0.0397 -0.1545
23805W        W28105   8.875   0.220   4.325 -0.0460  0.1358  0.0319
23806W        W28106   8.675   0.801  31.885 -0.1386 -0.0483  0.1405
23807W        W28107  17.607   0.208   1.076 -0.1588  0.1740 -0.2931
23808W        W28108   6.083   5.844   0.609 -0.3729  0.2175 -0.1242
23809W        W28109   4.496   6.280  17.545 -0.0235  0.0626  0.0486
23810W        W28110   1.433   1.057  31.229 -0.0024 -0.3894  0.1341
23811W        W28111  15.489   2.509  17.498  0.2594  0.0097 -0.0404
23812W        W28112  15.839   0.239  32.065 -0.1403 -0.0782  0.1287
23813W        W28113  11.447   1.147   2.096  0.0087  0.0421  0.0328
23814W        W28114  15.081   6.905  25.162  0.2508  0.0983 -0.1177
23815W        W28115  24.198   4.769   9.430 -0.1858 -0.2002 -0.1772
23816W        W28116  21.424   5.055   1.217  0.0836  0.0369  0.1215
23817W        W28117  11.700   1.629   1.454 -0.4802  0.0777  0.1243
23818W        W28118   6.067   4.476  16.079 -0.4626 -0.0985  0.1109
23819W        W28119   0.454   6.084   5.980 -0.1984 -0.0204  0.2038
23820W        W28120  19.257   7.033  10.521 -0.0239  0.2908  0.0558
23821W        W28121  20.290   4.536  30.563  0.4162 -0.1681 -0.2276
23822W        W28122  15.498   7.400   9.234  0.1091 -0.3991 -0.0682
23823W        W28123   5.095   3.938  17.026 -0.0419  0.1691  0.0959
23824W        W28124  12.172   5.439  25.367 -0.0953  0.1364 -0.0193
23825ION     NA28125  12.333   6.210  29.280 -0.4508  0.2185  0.1862
23826ION     NA28126   3.783   4.866   1.319  0.1525 -0.0739 -0.0994
23827ION     NA28127  18.186   1.673   2.767  0.2820  0.2320  0.2657
23828ION     NA28128  19.684   4.518   8.930  0.0726  0.1220 -0.1165
23829ION     NA28129   9.777   5.142  28.061  0.1545  0.0671  0.0480
23830ION     NA28130  17.034   5.966  16.100  0.1567  0.2077 -0.2429
23831ION     NA28131   0.712   2.167  15.188 -0.3069 -0.3607  0.1407
23832ION     NA28132  15.335   7.695  32.874  0.3021 -0.0024 -0.0442
23833ION     NA28133  10.898   0.126   3.099  0.1325 -0.1746  0.1959
23834ION     NA28134  12.509   0.164  32.322  0.2916  0.0088  0.4091
23835ION     NA28135  23.869   6.147  25.568 -0.1041 -0.2335 -0.5704
23836ION     NA28136  24.738   3.892   3.931 -0.0214  0.0757 -0.2757
23837ION     NA28137   1.461   1.400  27.208 -0.2120  0.3666  0.1839
23838ION     NA28138  17.610   3.915  24.754  0.0302  0.2928  0.2521
23839ION     NA28139  16.861   0.994   0.061 -0.1520  0.3433 -0.0289
23840ION     NA28140  14.181   3.509   6.837 -0.1207 -0.2630  0.0983
23841ION     NA28141  21.116   3.748  19.099  0.0334 -0.3688  0.4853
23842ION     NA28142  10.842   5.924  10.888  0.1235 -0.2764 -0.3285
23843ION     NA28143   8.957   6.199  12.293 -0.2018  0.2159  0.0881
23844ION     NA28144   9.151   5.179  28.551  0.1169 -0.2904 -0.2508
23845ION     NA28145  12.301   5.549   1.212  0.3680  0.4484 -0.5385
23846ION     NA28146   7.471   7.441   8.733  0.2548 -0.1193 -0.0091
23847ION     NA28147  16.744   2.225   6.600  0.1391  0.1468 -0.0813
23848ION     NA28148  24.238   5.471  11.966  0.1409 -0.1422 -0.2821
23849ION     NA28149  12.004   4.553  24.018 -0.0340  0.6144 -0.3524
23850ION     NA28150  14.067   1.569  28.561 -0.1307  0.2843  0.0686
23851ION     NA28151  14.001   1.874   7.194 -0.0813 -0.0877 -0.4854
23852ION     NA28152  22.129   2.969  20.906  0.0262  0.4870  0.4112
23853ION     NA28153  21.424   5.443   9.327 -0.1244 -0.3288 -0.4360
23854ION     NA28154  12.907   5.875  10.833 -0.1185  0.1507  0.0745
23855ION     NA28155   9.119   1.509  10.599 -0.0430  0.5634  0.2434
23856ION     NA28156   3.533   1.032  28.175  0.4500 -0.1468 -0.4830
23857ION     NA28157   7.067   4.719  11.909 -0.4697 -0.1597  0.2702
23858ION     NA28158   2.530   0.655  30.906  0.0271 -0.1687 -0.3067
23859ION     NA28159   4.928   4.090   9.866  0.2748 -0.4411  0.0671
23860ION     NA28160  24.476   4.211  14.581  0.1457 -0.2342 -0.2046
23861ION     NA28161   4.111   0.555  32.050  0.0030  0.3084  0.3014
23862ION     NA28162  14.837   0.476  18.201 -0.2125  0.3150 -0.1786
23863ION     NA28163  18.855   4.143  31.213  0.1136 -0.1069 -0.0473
23864ION     NA28164   8.094   3.470   1.786 -0.4323 -0.2219 -0.1612
23865ION     NA28165  17.395   4.781  17.697  0.3599  0.2895 -0.0275
23866ION     NA28166  15.608   4.652   6.427 -0.4454  0.3275  0.4609
23867ION     NA28167   8.549   3.759   0.807 -0.3008 -0.1544 -0.2645
23868ION     NA28168   6.742   7.225  11.590  0.2968 -0.5046  0.0542
23869ION     NA28169  22.569   3.242  28.061 -0.6671  0.3195  0.3372
23870ION     NA28170   5.558   3.208  22.945  0.3636  0.3991  0.4376
23871ION     NA28171  18.660   5.899  17.514 -0.0976  0.1677 -0.0285
23872ION     NA28172   4.731   7.075  14.252  0.2046 -0.1097  0.4735
23873ION     NA28173  21.922   3.676   6.085  0.0584  0.0941 -0.3090
23874ION     NA28174  21.774   6.248   9.987 -0.1634  0.7821  0.1381
23875ION     NA28175   0.523   1.232  23.628  0.3451  0.3854  0.0268
23876ION     NA28176  19.184   1.818   0.137 -0.1426  0.0295  0.1460
23877ION     NA28177  24.507   4.638   5.084 -0.4647 -0.0270 -0.3319
23878ION     NA28178  18.544   1.383  31.466 -0.2009  0.0593  0.4002
23879ION     NA28179  15.073   0.605   7.078 -0.1135 -0.2068 -0.1145
23880ION     NA28180  11.655   6.700  11.602 -0.2393 -0.4554 -0.2085
23881ION     NA28181   8.319   3.434   4.395 -0.0968 -0.1356 -0.0238
23882ION     NA28182   0.916   0.417  12.437 -0.1563  0.0037  0.1459
23883ION     NA28183  18.280   3.079   0.195 -0.1399 -0.0718 -0.3103
23884ION     NA28184  13.247   0.229  27.104 -0.4629  0.2422  0.2188
23885ION     NA28185   8.569   4.804   6.624 -0.3174  0.4401 -0.0808
23886ION     NA28186  12.159   7.047  22.592 -0.7436  0.1759  0.3104
23887ION     NA28187  12.427   0.326   3.961  0.0736  0.1306  0.3947
23888ION     NA28188  10.170   7.108   2.314 -0.2217  0.2990 -0.0000
23889ION     NA28189  23.521   4.965  13.896 -0.0946  0.1369  0.3523
23890ION     NA28190   0.145   5.181  14.748  0.1563  0.2195 -0.1688
23891ION     NA28191  22.310   1.626   8.002  0.0437  0.0637  0.0311
23892ION     NA28192   1.497   1.337   0.651 -0.3340 -0.4168 -0.3900
23893ION     NA28193  15.338   5.427  21.765 -0.0921 -0.1951  0.2879
23894ION     NA28194   0.186   2.917   5.085  0.2580  0.3334 -0.0187
23895ION     NA28195   4.571   1.342  26.801  0.0273 -0.0933  0.1801
23896ION     NA28196  18.742   5.561  28.413 -0.1051 -0.0706  0.1871
23897ION     NA28197  24.713   0.680   0.640 -0.2122  0.3289 -0.2059
23898ION     NA28198   6.780   1.650   5.561 -0.0574  0.1419 -0.2324
23899ION     NA28199   2.971   1.456  14.969 -0.5560 -0.0135  0.3136
23900ION     NA28200   5.238   6.015  12.979  0.2464  0.3596 -0.0536
23901ION     NA28201  16.502   7.249   5.980  0.0907  0.2530  0.1948
23902ION     NA28202  18.651   4.271   1.888 -0.2245  0.1465 -0.4355
23903ION     NA28203  24.152   4.294   0.368 -0.0792 -0.3314  0.6251
23904ION     NA28204  21.683   5.557  27.445  0.0152 -0.2063 -0.2157
23905ION     NA28205  10.440   1.521  31.411  0.1465 -0.2582 -0.0350
23906ION     NA28206  21.414   3.657   8.935  0.3872 -0.2694  0.0513
23907ION     NA28207  20.768   5.873  29.433 -0.0804  0.4059  0.2522
23908ION     NA28208  10.888   3.473   3.844 -0.0358 -0.1041 -0.1865
23909ION     NA28209  13.819   3.198   9.401 -0.0225 -0.0223  0.1026
23910ION     NA28210   4.372   2.204   0.222  0.1456 -0.0027  0.2274
23911ION     NA28211   2.990   4.076   1.524  0.3053 -0.0517  0.0506
23912ION     NA28212  16.591   2.755  32.827 -0.1167  0.0785  0.3211
23913ION     NA28213  22.875   2.664  27.913  0.1731 -0.2650  0.1262
23914ION     NA28214   0.475   2.221  14.506  0.5203 -0.1775  0.2914
23915ION     NA28215  16.978   6.806   8.704 -0.1763 -0.1202  0.1586
23916ION     NA28216   6.270   1.098  23.525 -0.2549  0.3074 -0.2626
23917ION     NA28217  11.512   6.658   1.543 -0.0346 -0.1781 -0.0136
23918ION     NA28218  16.150   1.987  21.227 -0.0775 -0.3297 -0.2539
23919ION     NA28219  15.169   5.287   9.299 -0.0044 -0.0298  0.0341
23920ION     NA28220   2.142   2.973   9.721  0.1164  0.5488 -0.3024
23921ION     NA28221   9.697   6.461   6.419  0.2806  0.0094  0.0141
23922ION     NA28222  10.526   0.285   4.118 -0.3425  0.0939 -0.1746
23923ION     NA28223  19.009   4.079   6.324 -0.0228 -0.0502  0.2536
23924ION     NA28224  20.955   4.496   3.247  0.0082  0.0441 -0.2198
23925ION     NA28225  20.485   1.867  27.644  0.0800 -0.0197  0.2170
23926ION     NA28226  15.169   0.450  17.270 -0.3121  0.4006 -0.0410
23927ION     NA28227   9.269   7.406   6.270  0.2393 -0.1310  0.1857
23928ION     NA28228  14.568   2.110  25.027  0.2512 -0.1013  0.1080
23929ION     NA28229  21.804   7.477  23.274  0.0417 -0.2343  0.0097
23930ION     NA28230  11.805   3.754  10.994 -0.0349 -0.0391  0.2500
23931ION     NA28231   2.923   0.129   3.533 -0.1587 -0.1275 -0.6296
23932ION     NA28232  13.545   4.868  28.621  0.2162  0.2214 -0.3358
23933ION     NA28233  20.738   5.630   1.353 -0.1085 -0.3649 -0.1479
23934ION     NA28234  24.030   5.525  10.081 -0.1845 -0.2158  0.2059
23935ION     NA28235   7.171   2.633   5.084  0.4493 -0.0801 -0.4560
23936ION     NA28236  21.554   0.627  20.655 -0.0344 -0.1003  0.0175
23937ION     NA28237  21.292   1.882  18.549 -0.0017  0.2263  0.2998
23938ION     NA28238  22.968   5.114  11.054 -0.1553 -0.3807 -0.1644
23939ION     NA28239   2.979   3.687  28.279  0.6403 -0.0862 -0.2494
23940ION     NA28240  22.056   7.072   6.943 -0.4788  0.1713  0.2978
23941ION     NA28241  17.935   2.693  16.795  0.1305  0.0673  0.0078
23942ION     NA28242  13.061   7.357   5.073  0.2455 -0.0993  0.4034
23943ION     NA28243  24.406   7.442  32.053  0.4364 -0.1614 -0.1902
23944ION     NA28244   9.787   4.136   3.615 -0.1598 -0.2111  0.2753
23945ION     NA28245  17.807   0.234  28.660  0.2550 -0.1045  0.2681
23946ION     NA28246   2.615   4.086  22.871 -0.0478  0.1501  0.1044
23947ION     NA28247  21.386   1.425   1.645 -0.2362 -0.1553 -0.1067
23948ION     NA28248  19.845   5.844  21.653  0.3016 -0.7869  0.1010
23949ION     NA28249   4.709   3.642  26.310  0.2747 -0.2654 -0.0813
23950ION     NA28250  17.765   7.269  29.241  0.3393 -0.6795  0.4667
23951ION     NA28251  12.095   6.174  29.841 -0.1161 -0.1880  0.0213
23952ION     NA28252  14.658   4.578   1.003  0.3974  0.2825 -0.1026
23953ION     NA28253  23.323   6.853   9.464  0.2947  0.0966 -0.1332
23954ION     NA28254  24.959   3.888   5.220  0.3942 -0.1215 -0.1790
23955ION     NA28255  20.743   1.023  22.274  0.1350 -0.4246  0.3474
23956ION     NA28256   6.969   2.622  14.714 -0.1266  0.0929  0.2238
23957ION     NA28257  14.265   5.435  32.941  0.4209 -0.0284  0.0342
23958ION     NA28258  19.475   5.200  28.584 -0.3486 -0.3791 -0.0306
23959ION     NA28259  13.207   4.542  20.497 -0.3677  0.4025 -0.9176
23960ION     NA28260   6.709   2.679  13.937  0.0338 -0.2860 -0.3337
23961ION     NA28261   0.636   5.432  21.611 -0.0739  0.0344 -0.3667
23962ION     NA28262  20.789   1.518  21.813 -0.2588  0.2802  0.0045
23963ION     NA28263  22.736   7.012   4.672 -0.4546 -0.0931  0.0118
23964ION     NA28264  13.563   3.785  20.036 -0.0663  0.5663 -0.0072
23965ION     NA28265   2.243   6.281  31.491  0.2054  0.1189 -0.1355
23966ION     NA28266  10.641   6.066  32.811 -0.0466  0.1629 -0.0455
23967ION     NA28267  18.870   1.008  30.609 -0.1915 -0.0251  0.1475
23968ION     NA28268  22.070   2.334  24.406  0.5074  0.1794 -0.0066
23969ION     NA28269  11.400   0.779  10.150 -0.1304  0.4677 -0.0140
23970ION     NA28270   0.322   0.839  13.399  0.3571  0.4132 -0.0466
23971ION     NA28271  10.436   7.543   5.445 -0.0466  0.2576  0.0236
23972ION     NA28272  15.763   2.288   9.874  0.0247 -0.0997 -0.2575
23973ION     NA28273  14.278   3.696   9.124 -0.1010  0.1013  0.0797
23974ION     NA28274   3.421   7.506  29.774  0.4536  0.2528 -0.0876
23975ION     NA28275   6.664   3.471  30.836  0.1911  0.1642 -0.2889
23976ION     NA28276   1.870   0.401  25.102 -0.1493 -0.3652 -0.3803
23977ION     NA28277  22.949   6.975   7.798  0.2037  0.0695  0.1376
23978ION     NA28278   2.460   1.062  11.987  0.1453 -0.1341  0.2786
23979ION     NA28279   4.712   7.104  15.668 -0.1758  0.0963 -0.1606
23980ION     NA28280   9.245   3.885  27.103 -0.4995 -0.0035  0.0627
23981ION     NA28281  20.081   3.915   5.830 -0.3623  0.1434 -0.1899
23982ION     NA28282   5.946   2.965  11.876  0.0258  0.6264  0.5761
23983ION     NA28283  16.891   6.898  28.527  0.2920  0.4016 -0.2982
23984ION     NA28284  17.069   7.598   9.591 -0.3489 -0.1797 -0.1686
23985ION     NA28285  24.530   4.317   2.425 -0.1447 -0.3066 -0.0671
23986ION     NA28286   8.854   5.521  12.075  0.1006 -0.0354 -0.1074
23987ION     NA28287   1.400   0.937   8.443 -0.0074  0.0127  0.3764
23988ION     NA28288   8.432   6.088   1.893  0.0883 -0.1522 -0.2403
23989ION     NA28289   2.841   2.058   9.161  0.3862  0.2662  0.3887
23990ION     NA28290   3.203   6.069   1.724  0.0592 -0.3148  0.1685
23991ION     NA28291   9.043   6.764   0.341 -0.0803 -0.0074  0.2501
23992ION     NA28292  14.063   3.784  21.503 -0.0378  0.1091  0.2953
23993ION     NA28293  12.639   3.002  17.868  0.4188 -0.1171 -0.4727
23994ION     NA28294  21.515   2.809  31.127 -0.2755 -0.0827 -0.0939
23995ION     NA28295  17.011   3.075  20.413  0.1046  0.1563  0.0099
23996ION     NA28296  19.433   0.286  18.732  0.1934 -0.1167 -0.1221
23997ION     NA28297  16.051   7.086  21.425  0.1506  0.1636  0.0265
23998ION     NA28298   7.173   3.061  29.295 -0.2001  0.4509  0.3866
23999ION     NA28299   0.762   5.169  15.075 -0.0195 -0.1217 -0.1416
24000ION     NA28300  14.082   3.421  28.239 -0.0391  0.0568 -0.0506
24001ION     NA28301  10.074   6.819   1.553 -0.4664  0.1293  0.0845
24002ION     NA28302  13.055   7.112  18.884  0.2451  0.5098 -0.0287
24003ION     NA28303  11.137   2.556  28.634  0.0741  0.3570 -0.0946
24004ION     NA28304  18.921   5.254  31.125 -0.0430  0.0747  0.1965
24005ION     NA28305  23.161   1.875   2.316  0.0287 -0.1991  0.1116
24006ION     NA28306   5.883   0.561   2.804  0.0846  0.4380  0.1262
24007ION     NA28307  20.057   5.195  32.469  0.0107 -0.1716  0.2983
24008ION     NA28308  13.524   1.120  26.994 -0.0412 -0.1271 -0.2331
24009ION     NA28309  15.784   2.655   4.715  0.4014 -0.2338 -0.3707
24010ION     NA28310   5.283   3.848  11.301 -0.3211  0.2106 -0.0029
24011ION     NA28311  23.098   5.939   2.125  0.1549 -0.1168  0.1413
24012ION     NA28312  15.813   4.270  26.859 -0.2045 -0.5392 -0.0719
24013ION     NA28313  22.040   0.870   9.508 -0.1004  0.3712 -0.1990
24014ION     NA28314  19.341   0.309  16.329  0.4298  0.4939 -0.0474
24015ION     NA28315  16.639   7.138  23.349 -0.0076  0.3758 -0.1920
24016ION     NA28316   0.277   2.334  30.796  0.4742 -0.0147 -0.2725
24017ION     NA28317  19.154   1.402  26.304 -0.3580  0.0562  0.1571
24018ION     NA28318   3.534   4.306  24.828 -0.2957 -0.0695  0.0093
24019ION     NA28319   8.626   1.260  12.458  0.0894  0.1721  0.0760
24020ION     CL28320  14.617   1.172  20.821  0.1124  0.1237 -0.1400
24021ION     CL28321   3.357   4.140  25.135  0.0587  0.0965 -0.3351
24022ION     CL28322   7.353   7.101  26.351  0.2967 -0.1251  0.7166
24023ION     CL28323   6.673   7.238  15.174 -0.3118 -0.2237  0.3024
24024ION     CL28324  21.967   3.306  26.283 -0.1258 -0.1115  0.4387
24025ION     CL28325   2.746   1.824  14.714 -0.0087  0.1470  0.1796
24026ION     CL28326  12.000   7.521   3.590  0.1914 -0.1954  0.0581
24027ION     CL28327  23.401   2.355  11.681  0.2465 -0.5966 -0.0376
24028ION     CL28328  12.370   6.091  23.812 -0.2746 -0.2953  0.1284
24029ION     CL28329  23.959   4.081  22.106 -0.0832 -0.0393 -0.2513
24030ION     CL28330   6.436   5.755  16.751  0.0601  0.5670  0.0478
24031ION     CL28331  19.916   0.101  27.758 -0.2768  0.1008  0.0072
24032ION     CL28332  23.651   5.822  24.442 -0.0844 -0.0901 -0.4129
24033ION     CL28333  23.589   5.316   5.000  0.4007  0.3965  0.0525
24034ION     CL28334   6.333   2.940  23.559  0.0356 -0.1849  0.0554
24035ION     CL28335  22.099   3.646   8.290  0.1308  0.1180 -0.7542
24036ION     CL28336   8.782   4.337  29.387 -0.2986  0.0974 -0.3051
24037ION     CL28337  23.731   1.033  13.390  0.0163 -0.2181  0.1627
24038ION     CL28338   3.653   1.956   8.900  0.2830  0.0024  0.3172
24039ION     CL28339   2.678   7.591   6.622 -0.2514  0.3041 -0.0334
24040ION     CL28340  15.491   4.568  23.360  0.3838  0.3592 -0.2426
24041ION     CL28341  21.728   3.034   9.757  0.3081 -0.2315 -0.4150
24042ION     CL28342  19.232   0.445  31.980  0.1666  0.0592  0.1970
24043ION     CL28343  22.873   3.025  27.782  0.2664  0.1044 -0.2522
24044ION     CL28344   2.681   3.433  25.714 -0.0518 -0.1878 -0.5761
24045ION     CL28345  14.277   4.208  21.421 -0.1277 -0.1632  0.3218
24046ION     CL28346   0.213   6.567  14.526 -0.2567 -0.3834 -0.0032
24047ION     CL28347  10.149   2.336   0.960 -0.3308  0.0973  0.0006
24048ION     CL28348   4.472   0.959  27.811  0.0083  0.2185 -0.1477
24049ION     CL28349   0.886   0.579   6.811  0.1055 -0.1388  0.5214
24050ION     CL28350  13.255   0.234  23.742  0.2598  0.2322 -0.1461
24051ION     CL28351   5.584   2.186  23.107  0.1218 -0.3208  0.0951
24052ION     CL28352   2.128   2.897   8.910 -0.3704  0.4246 -0.1565
24053ION     CL28353  19.360   2.898  28.903 -0.3845 -0.3130  0.1787
24054ION     CL28354  18.976   4.326  19.737  0.3747 -0.3068  0.1728
24055ION     CL28355  11.856   4.999  28.985 -0.0215  0.0626  0.3463
24056ION     CL28356  17.460   2.244  25.762 -0.4327 -0.0245 -0.0777
24057ION     CL28357  11.947   1.160  24.932 -0.2504 -0.0386  0.2858
24058ION     CL28358  18.639   1.603   6.634  0.1489  0.1900  0.0400
24059ION     CL28359  22.639   6.653  28.214  0.2009  0.2277  0.0467
24060ION     CL28360  17.416   3.749   4.849  0.2012  0.0475 -0.2516
24061ION     CL28361  16.730   5.720   0.997  0.2946  0.0222 -0.1063
24062ION     CL28362  14.221   7.228   3.166 -0.0351 -0.0816 -0.1401
24063ION     CL28363   1.160   7.576   8.033  0.0292  0.2407 -0.5601
24064ION     CL28364  21.802   1.218  23.900 -0.3595 -0.0165  0.1429
24065ION     CL28365   4.613   7.338  15.986  0.1216 -0.1436 -0.2071
24066ION     CL28366  16.019   5.196  18.614 -0.0548  0.0109 -0.1240
24067ION     CL28367   1.792   4.147   2.644 -0.1402 -0.2046  0.3490
24068ION     CL28368   2.728   6.358   9.019 -0.5129  0.1291  0.0167
24069ION     CL28369   4.900   4.024   8.716 -0.2459 -0.0454  0.1775
24070ION     CL28370  20.644   5.556  10.593 -0.0100  0.2974 -0.2297
24071ION     CL28371  22.314   2.169  24.631  0.0119  0.2237  0.0140
24072ION     CL28372   2.267   1.486  30.270  0.1700  0.1107  0.0458
24073ION     CL28373  11.141   7.789   4.063  0.2302 -0.4484 -0.3706
24074ION     CL28374   1.027   5.070  11.946 -0.2758  0.1461  0.2573
24075ION     CL28375  11.606   0.362  25.860  0.5201 -0.1047 -0.0433
24076ION     CL28376  19.992   6.467  18.232 -0.1394 -0.5724  0.1412
24077ION     CL28377   7.471   4.545  10.386  0.0400  0.0300  0.5536
24078ION     CL28378  21.181   0.513  20.727 -0.0467  0.1125  0.2368
24079ION     CL28379  24.536   1.727   3.985  0.2688  0.3270  0.2824
24080ION     CL28380  13.628   4.879  21.331  0.2126  0.4116 -0.0100
24081ION     CL28381   9.810   5.628  11.174  0.0040  0.0626 -0.4520
24082ION     CL28382  12.250   5.638   7.538 -0.1367 -0.2677 -0.2937
24083ION     CL28383   6.880   5.189   3.582  0.1109 -0.2551  0.1722
24084ION     CL28384   5.125   4.934   0.729  0.4386  0.0649 -0.2633
24085ION     CL28385   9.511   2.152  32.048  0.3257  0.0656  0.0219
24086ION     CL28386   2.994   2.666   4.970  0.1600  0.3059 -0.0686
24087ION     CL28387   8.704   1.326  23.058 -0.0330 -0.1634 -0.0220
24088ION     CL28388  15.153   6.192  22.105  0.2111 -0.0418  0.1783
24089ION     CL28389   2.026   7.630   3.907  0.1479  0.1944  0.0973
24090ION     CL28390  20.539   2.509  19.520 -0.1616  0.0831  0.2094
24091ION     CL28391  10.509   3.299  10.176 -0.0682  0.4889  0.2042
24092ION     CL28392  17.094   4.342   1.977 -0.0667 -0.3034 -0.0468
24093ION     CL28393  18.795   4.573   3.291 -0.5512  0.2882  0.0237
24094ION     CL28394   4.612   7.289   2.024  0.0908 -0.1998 -0.1800
24095ION     CL28395  21.109   3.738   9.070  0.0593  0.0146 -0.0537
24096ION     CL28396  21.312   3.481  10.822 -0.2801 -0.0638 -0.1435
24097ION     CL28397  10.362   6.916   1.756 -0.0163  0.0613 -0.2633
24098ION     CL28398  17.559   1.644  19.224  0.0062 -0.1194  0.0558
24099ION     CL28399  16.703   3.019  26.727  0.2125 -0.1854  0.1777
24100ION     CL28400  17.740   5.526  24.574  0.0104 -0.0505  0.2914
24101ION     CL28401  17.813   2.438   2.744  0.5201  0.3346 -0.3469
24102ION     CL28402  20.755   6.826  21.294  0.2357 -0.1484  0.0198
24103ION     CL28403  10.356   7.431  22.944 -0.1418 -0.3827 -0.0517
24104ION     CL28404   0.704   6.131  31.611 -0.2023 -0.3562 -0.2950
24105ION     CL28405   4.567   0.293  32.337  0.4379 -0.1815  0.7067
24106ION     CL28406  24.927   6.831  25.781  0.0108 -0.1823  0.1196
24107ION     CL28407   9.422   7.383  21.885  0.1457 -0.0510 -0.1180
24108ION     CL28408   1.163   6.299   7.040 -0.2749 -0.1077 -0.3920
24109ION     CL28409   8.418   3.690  31.232  0.0606 -0.3245 -0.0921
24110ION     CL28410  10.205   3.240  31.382  0.1045  0.6159  0.0714
24111ION     CL28411  17.229   7.756  24.809 -0.3907  0.1992 -0.1120
24112ION     CL28412   0.966   5.541   6.452  0.1048 -0.3330 -0.0886
24113ION     CL28413  23.068   2.739   4.524 -0.1389 -0.5933  0.0217
24114ION     CL28414  16.276   6.491  21.601 -0.1899  0.0585 -0.3397
24115ION     CL28415   0.214   5.008  12.521  0.1826  0.3722  0.3662
24116ION     CL28416  18.073   2.163   2.282  0.0457  0.2165  0.0060
24117ION     CL28417  18.808   2.662  32.186 -0.1962 -0.3390  0.1038
24118ION     CL28418  10.165   1.131  30.831  0.3965  0.2026 -0.1664
24119ION     CL28419  21.866   2.111   8.265  0.1228  0.1057  0.3913
24120ION     CL28420  16.162   6.862  22.868 -0.0730  0.2854 -0.1485
24121ION     CL28421  21.885   2.716  22.659  0.2278 -0.0157 -0.1658
24122ION     CL28422  13.287   3.160  17.748  0.3117  0.3320  0.4137
24123ION     CL28423   1.823   0.893   1.282  0.0434  0.1100  0.0675
24124ION     CL28424  20.581   2.377  23.356 -0.5709 -0.1303  0.0541
24125ION     CL28425   0.131   3.069  22.530 -0.3800  0.3966  0.3128
24126ION     CL28426  12.065   7.449  23.114 -0.1098 -0.0242  0.2396
24127ION     CL28427  15.129   4.827  19.269 -0.1814 -0.0644 -0.0210
24128ION     CL28428  23.979   4.994   0.535  0.5523  0.0125 -0.2838
24129ION     CL28429  12.170   5.256  26.209  0.3316  0.1430  0.3842
24130ION     CL28430  15.159   2.551  26.491  0.0884 -0.0824  0.3035
24131ION     CL28431   9.602   6.574   0.392  0.2839 -0.3977 -0.1213
24132ION     CL28432  14.485   1.191  24.143 -0.0330 -0.1634 -0.0054
24133ION     CL28433   1.315   0.778   9.111  0.0473  0.0224  0.0251
24134ION     CL28434  14.684   4.460  29.555 -0.0039  0.2720 -0.0951
24135ION     CL28435   4.785   1.771   9.513 -0.1720 -0.1501  0.1210
24136ION     CL28436  22.971   2.141  28.062 -0.2777  0.0089 -0.2092
24137ION     CL28437   9.885   5.611  22.074  0.0109 -0.1517  0.3113
24138ION     CL28438  19.767   7.010  27.901  0.2216  0.2816 -0.0619
24139ION     CL28439   7.903   3.827   1.884  0.6619 -0.1933 -0.0860
24140ION     CL28440   3.097   4.156   2.807  0.0799  0.1987  0.0387
24141ION     CL28441  10.269   6.949  23.934 -0.3247 -0.2936  0.5271
24142ION     CL28442  21.737   4.286   8.476 -0.5514  0.0625  0.0268
24143ION     CL28443  15.162   0.517  27.466  0.2915 -0.1083 -0.4018
24144ION     CL28444   3.433   1.386  28.237 -0.1552 -0.2161  0.0967
24145ION     CL28445  21.810   5.223   9.101 -0.2337  0.1775  0.1898
24146ION     CL28446   3.261   5.111  31.990  0.2751  0.0828 -0.1280
24147ION     CL28447  20.332   1.596  29.039 -0.2497  0.5337  0.5376
24148ION     CL28448  10.758   6.269  10.985 -0.2826  0.5367  0.0594
24149ION     CL28449  17.971   5.665  20.517 -0.1851 -0.1084 -0.0361
24150ION     CL28450  16.261   1.981  30.609  0.1421 -0.3086 -0.3864
24151ION     CL28451  14.893   5.614   0.460  0.3368  0.0409  0.3430
24152ION     CL28452   6.394   5.866  32.365  0.0299  0.2454  0.1940
24153ION     CL28453   7.553   7.409  32.353  0.0424 -0.0597 -0.1218
24154ION     CL28454  16.990   4.197  17.782  0.0118  0.2679 -0.2231
24155ION     CL28455  13.675   5.159   1.337  0.6739 -0.0077 -0.0763
24156ION     CL28456  24.315   6.465   6.288 -0.0412 -0.2371  0.0712
24157ION     CL28457   6.785   4.335  28.447 -0.2031  0.3025  0.0282
24158ION     CL28458   0.626   6.337   5.309  0.2279  0.1163  0.2514
24159ION     CL28459  18.806   5.503   3.689 -0.3407  0.1620  0.4861
24160ION     CL28460  14.436   3.289  19.769  0.0649  0.4444  0.0840
24161ION     CL28461   5.574   3.805  23.152 -0.2031 -0.4542  0.1368
24162ION     CL28462   8.952   6.065  12.696 -0.3405  0.0591  0.1596
24163ION     CL28463   5.313   2.931  11.205  0.0489 -0.1805 -0.1137
24164ION     CL28464  15.842   0.841  26.282  0.0437 -0.2465  0.2118
24165DOPC   NC328465  22.122   7.754  19.387 -0.1390 -0.0476  0.1850
24165DOPC   PO428466  22.360   7.544  19.135 -0.1577 -0.0117 -0.1254
24165DOPC   GL128467  22.682   7.541  18.921  0.0101 -0.1228 -0.0074
24165DOPC   GL228468  22.603   7.334  18.752 -0.0955 -0.3459 -0.1031
24165DOPC   C1A28469  23.074   7.305  19.029  0.0323 -0.2189  0.1477
24165DOPC   D2A28470  23.397   6.994  19.153 -0.1437 -0.1419  0.0351
24165DOPC   C3A28471  23.412   6.670  18.825 -0.0047  0.2049  0.0080
24165DOPC   C4A28472  23.399   6.498  18.319 -0.2534  0.0492  0.1497
24165DOPC   C1B28473  22.881   7.291  18.361 -0.0356  0.0032 -0.0793
24165DOPC   D2B28474  23.218   7.542  18.085 -0.1055  0.2732  0.0969
24165DOPC   C3B28475  23.626   7.376  17.893  0.2007  0.0616  0.0694
24165DOPC   C4B28476  23.967   7.301  17.581 -0.1903  0.2786  0.1224
24166DOPC   NC328477  21.063   4.156  17.744  0.2643 -0.0914 -0.0155
24166DOPC   PO428478  20.955   4.525  17.644 -0.0651  0.2957  0.0893
24166DOPC   GL128479  21.271   4.704  17.369  0.1770  0.0171 -0.4300
24166DOPC   GL228480  21.394   4.420  17.408 -0.1483 -0.1790  0.0345
24166DOPC   C1A28481  21.285   4.807  16.965  0.0948  0.2029 -0.2404
24166DOPC   D2A28482  21.409   4.710  16.506 -0.2036  0.0301  0.0375
24166DOPC   C3A28483  21.659   4.763  16.121 -0.1185  0.0613 -0.1384
24166DOPC   C4A28484  21.798   5.011  15.712 -0.2571 -0.0553 -0.0480
24166DOPC   C1B28485  21.708   4.378  17.247  0.0363 -0.1287  0.1369
24166DOPC   D2B28486  22.094   4.449  16.924  0.0478 -0.2115 -0.0643
24166DOPC   C3B28487  22.522   4.584  16.757  0.3371  0.0904 -0.0884
24166DOPC   C4B28488  22.881   4.916  16.680  0.1473  0.0067  0.2245
24167DOPC   NC328489  20.478   2.611  17.630 -0.2375  0.0566  0.1663
24167DOPC   PO428490  20.761   2.318  17.553 -0.2269  0.1983  0.2173
24167DOPC   GL128491  21.145   2.309  17.320 -0.2157  0.2593 -0.2130
24167DOPC   GL228492  21.250   2.087  17.368 -0.2318 -0.1999 -0.1687
24167DOPC   C1A28493  21.471   2.634  17.318  0.0425  0.0350  0.0995
24167DOPC   D2A28494  21.873   2.533  17.213 -0.2969  0.2568 -0.2346
24167DOPC   C3A28495  22.268   2.593  17.011  0.0685 -0.1735  0.3155
24167DOPC   C4A28496  22.708   2.779  16.947  0.1955 -0.0384  0.0315
24167DOPC   C1B28497  21.565   1.893  17.103 -0.0826 -0.1077 -0.0086
24167DOPC   D2B28498  21.889   1.799  16.716  0.0079 -0.1258  0.3658
24167DOPC   C3B28499  22.249   1.793  16.459  0.0690 -0.0082 -0.2338
24167DOPC   C4B28500  22.510   1.917  16.123  0.1066  0.0781  0.1678
24168DOPC   NC328501  11.992   7.304  18.128  0.0843 -0.0726 -0.0546
24168DOPC   PO428502  11.761   7.042  18.298 -0.0782  0.0359 -0.1684
24168DOPC   GL128503  11.312   7.019  18.271 -0.0445 -0.1933 -0.0778
24168DOPC   GL228504  11.387   6.730  18.249  0.1845  0.2063  0.1245
24168DOPC   C1A28505  10.858   6.961  18.180 -0.0033 -0.1716  0.0050
24168DOPC   D2A28506  10.412   7.051  17.965 -0.1111 -0.0432 -0.0328
24168DOPC   C3A28507   9.985   7.311  17.946  0.2471  0.2250  0.0371
24168DOPC   C4A28508   9.557   7.426  17.841  0.0990  0.0221  0.0853
24168DOPC   C1B28509  11.096   6.455  18.127  0.2028  0.2551 -0.1064
24168DOPC   D2B28510  10.681   6.140  18.145 -0.0930 -0.0581 -0.2672
24168DOPC   C3B28511  10.316   6.132  17.845  0.2264 -0.0083  0.2351
24168DOPC   C4B28512   9.925   5.962  17.568  0.0557 -0.1065 -0.1007
24169DOPC   NC328513   5.511   2.135  22.287  0.0407  0.3056  0.0303
24169DOPC   PO428514   5.691   2.458  22.441  0.1519 -0.0691 -0.0191
24169DOPC   GL128515   5.428   2.544  22.013 -0.1998 -0.3810  0.4670
24169DOPC   GL228516   5.715   2.469  22.036  0.3190 -0.2327  0.0125
24169DOPC   C1A28517   5.349   2.726  21.652  0.1990 -0.1574  0.0914
24169DOPC   D2A28518   5.337   2.978  21.266 -0.0400 -0.3321  0.1881
24169DOPC   C3A28519   4.991   2.835  20.964  0.2298  0.2048  0.1218
24169DOPC   C4A28520   4.532   2.922  20.763  0.2769  0.2274  0.4285
24169DOPC   C1B28521   5.903   2.597  21.698  0.0449 -0.2952  0.1442
24169DOPC   D2B28522   5.834   2.693  21.175  0.0080 -0.1459  0.1248
24169DOPC   C3B28523   5.497   2.783  20.832 -0.1350  0.1923  0.1625
24169DOPC   C4B28524   5.351   2.763  20.431 -0.0180  0.2464 -0.2087
24170DOPC   NC328525  16.235   0.479  14.567 -0.0823 -0.2050  0.1831
24170DOPC   PO428526  16.572   0.353  14.665 -0.2795 -0.4761  0.4916
24170DOPC   GL128527  16.732   0.215  14.356 -0.0187 -0.1759 -0.0721
24170DOPC   GL228528  17.026   0.331  14.374  0.1525 -0.0210  0.1095
24170DOPC   C1A28529  16.793  -0.161  14.037 -0.3035 -0.0583  0.1290
24170DOPC   D2A28530  16.910  -0.309  13.579  0.0478  0.1819 -0.2117
24170DOPC   C3A28531  16.931  -0.107  13.160  0.0088 -0.0097 -0.3422
24170DOPC   C4A28532  16.802   0.293  12.896  0.2874 -0.2033 -0.1401
24170DOPC   C1B28533  17.303   0.444  14.051  0.0938  0.0404  0.1524
24170DOPC   D2B28534  17.306   0.530  13.578  0.0864 -0.0434 -0.1009
24170DOPC   C3B28535  17.222   0.323  13.127 -0.1185 -0.0904  0.0465
24170DOPC   C4B28536  17.252  -0.054  12.841 -0.0456 -0.1094 -0.1610
24171DOPC   NC328537   8.998   1.060  21.304  0.1881 -0.2894 -0.1880
24171DOPC   PO428538   9.293   0.854  21.144 -0.3082  0.2503  0.1635
24171DOPC   GL128539   9.086   0.710  20.786  0.1504 -0.0401  0.3403
24171DOPC   GL228540   8.867   0.727  20.948 -0.2097  0.2383  0.0906
24171DOPC   C1A28541   9.032   0.570  20.377  0.0953  0.0202  0.1887
24171DOPC   D2A28542   8.874   0.745  20.008 -0.0921  0.0718  0.3237
24171DOPC   C3A28543   9.107   1.079  19.856 -0.0536  0.0523 -0.0229
24171DOPC   C4A28544   9.389   1.248  19.516  0.0342  0.2531  0.0732
24171DOPC   C1B28545   8.562   0.351  20.988  0.3554  0.0170 -0.0848
24171DOPC   D2B28546   8.143   0.089  20.899 -0.0234 -0.0372 -0.0136
24171DOPC   C3B28547   7.884  -0.039  20.558 -0.0728 -0.0441  0.1286
24171DOPC   C4B28548   7.858  -0.379  20.153  0.1020  0.0756 -0.0763
24172DOPC   NC328549   7.085   2.474  22.583  0.1897 -0.2709 -0.0103
24172DOPC   PO428550   7.063   2.740  22.300  0.0744 -0.0006 -0.0004
24172DOPC   GL128551   7.187   2.575  21.902 -0.0857 -0.3602  0.0666
24172DOPC   GL228552   7.411   2.693  21.815  0.1986  0.0073  0.1585
24172DOPC   C1A28553   6.920   2.453  21.593 -0.1993 -0.1458  0.1576
24172DOPC   D2A28554   6.648   2.338  21.214  0.0771 -0.1660  0.2763
24172DOPC   C3A28555   6.665   2.199  20.760 -0.1282  0.2288 -0.0636
24172DOPC   C4A28556   6.694   1.917  20.372 -0.2709 -0.0457 -0.1132
24172DOPC   C1B28557   7.435   2.635  21.339 -0.1768  0.2726 -0.4002
24172DOPC   D2B28558   6.985   2.662  21.115  0.2662  0.0318 -0.4715
24172DOPC   C3B28559   6.742   3.034  21.054  0.0777 -0.2466  0.0037
24172DOPC   C4B28560   6.310   3.254  21.041 -0.1452  0.4496  0.0269
24173DOPC   NC328561  23.488   3.203  20.318 -0.1095  0.0809  0.4640
24173DOPC   PO428562  23.839   3.137  20.435 -0.1247  0.4733  0.0113
24173DOPC   GL128563  24.155   3.276  20.222  0.2934  0.1356 -0.0809
24173DOPC   GL228564  24.072   3.048  20.010 -0.0049 -0.1928  0.0836
24173DOPC   C1A28565  24.499   3.134  20.028  0.0295 -0.1832  0.0755
24173DOPC   D2A28566  24.651   3.026  19.598 -0.2196 -0.0553 -0.3518
24173DOPC   C3A28567  24.697   3.072  19.163  0.3370  0.0433 -0.0524
24173DOPC   C4A28568  24.496   2.946  18.744 -0.0457  0.2066  0.0515
24173DOPC   C1B28569  24.228   2.694  19.862 -0.1259  0.0008 -0.0746
24173DOPC   D2B28570  24.443   2.325  19.567  0.1661 -0.1561 -0.0050
24173DOPC   C3B28571  24.843   2.172  19.472 -0.0868 -0.1304  0.1233
24173DOPC   C4B28572  25.262   2.010  19.247 -0.1652 -0.0148  0.0042
24174DOPC   NC328573  10.377   4.211  18.996 -0.0248  0.0056  0.1693
24174DOPC   PO428574  10.762   4.272  18.798 -0.1510  0.0055 -0.2292
24174DOPC   GL128575  10.641   4.190  18.383 -0.1603 -0.0165  0.1381
24174DOPC   GL228576  10.549   4.454  18.369  0.0566  0.2045 -0.2485
24174DOPC   C1A28577  10.567   4.027  18.055 -0.1337  0.2874  0.3116
24174DOPC   D2A28578  10.310   3.747  17.687  0.1873  0.0020 -0.0096
24174DOPC   C3A28579   9.893   3.797  17.542 -0.0203 -0.2268 -0.2552
24174DOPC   C4A28580   9.420   3.745  17.527  0.0617  0.0818  0.2861
24174DOPC   C1B28581  10.173   4.512  18.542  0.0907  0.1127  0.3231
24174DOPC   D2B28582   9.744   4.298  18.535  0.2011 -0.2646  0.2939
24174DOPC   C3B28583   9.366   4.561  18.368  0.3523 -0.3583 -0.0010
24174DOPC   C4B28584   8.992   4.850  18.208  0.0192 -0.1092  0.2670
24175DOPC   NC328585  21.510   2.451  18.931 -0.0593 -0.1719 -0.2194
24175DOPC   PO428586  21.547   2.272  18.564 -0.0160 -0.1075 -0.3640
24175DOPC   GL128587  21.725   2.136  18.193 -0.0100 -0.1782 -0.0435
24175DOPC   GL228588  21.579   2.164  17.985  0.0086  0.0239 -0.0678
24175DOPC   C1A28589  22.112   2.155  18.083 -0.2552  0.1424  0.0287
24175DOPC   D2A28590  22.438   2.132  17.655  0.2149  0.0785 -0.1454
24175DOPC   C3A28591  22.820   1.988  17.428  0.1811  0.2237  0.1599
24175DOPC   C4A28592  23.136   1.688  17.166 -0.0576  0.0404 -0.1159
24175DOPC   C1B28593  21.762   2.178  17.604 -0.2582 -0.4844 -0.1857
24175DOPC   D2B28594  22.025   2.075  17.168 -0.0240  0.1433  0.3929
24175DOPC   C3B28595  22.365   1.976  16.996  0.1559  0.2130  0.0848
24175DOPC   C4B28596  22.699   1.818  16.635  0.0701 -0.2407 -0.0048
24176DOPC   NC328597  12.778   3.937  16.741  0.5275  0.1156  0.2325
24176DOPC   PO428598  12.643   3.857  16.392  0.1984  0.0963  0.2142
24176DOPC   GL128599  12.305   4.023  16.237  0.2093 -0.2957  0.0723
24176DOPC   GL228600  12.171   3.763  16.363  0.2529  0.0481  0.2155
24176DOPC   C1A28601  11.961   3.845  15.918  0.0900 -0.2450 -0.0040
24176DOPC   D2A28602  11.479   3.783  15.771 -0.1865 -0.1108  0.2296
24176DOPC   C3A28603  11.168   3.752  15.472  0.0035 -0.1715 -0.0767
24176DOPC   C4A28604  10.715   3.599  15.517 -0.1459  0.3551  0.0039
24176DOPC   C1B28605  12.092   3.387  16.179  0.0511 -0.0053  0.1329
24176DOPC   D2B28606  11.780   3.211  15.845 -0.0223  0.1844  0.0311
24176DOPC   C3B28607  11.572   3.293  15.452 -0.0422 -0.3071 -0.1004
24176DOPC   C4B28608  11.409   3.576  15.095  0.3586  0.1326 -0.2813
24177DOPC   NC328609   4.638   5.773  22.778 -0.0705 -0.0647  0.2758
24177DOPC   PO428610   4.520   5.553  22.450  0.0316 -0.0155 -0.3468
24177DOPC   GL128611   4.483   5.599  22.110 -0.5074 -0.2331  0.0525
24177DOPC   GL228612   4.624   5.456  21.929  0.3207 -0.0116  0.2717
24177DOPC   C1A28613   4.210   5.829  21.931  0.0593 -0.0584  0.3154
24177DOPC   D2A28614   4.235   5.991  21.439  0.0538  0.1183 -0.1349
24177DOPC   C3A28615   4.174   5.953  20.982  0.3990 -0.2603 -0.0667
24177DOPC   C4A28616   4.155   5.700  20.535  0.0665  0.0433 -0.0523
24177DOPC   C1B28617   4.411   5.512  21.464 -0.0381 -0.2941 -0.0013
24177DOPC   D2B28618   4.069   5.483  21.123  0.2380  0.1965 -0.0890
24177DOPC   C3B28619   4.046   5.003  21.030  0.4996  0.3883 -0.3091
24177DOPC   C4B28620   3.919   4.554  20.796  0.1159  0.1400 -0.2108
24178DOPC   NC328621  14.461   0.739  15.244  0.3050 -0.2893 -0.1688
24178DOPC   PO428622  14.367   0.387  15.050 -0.0151  0.1283 -0.0709
24178DOPC   GL128623  14.307   0.519  14.648  0.3454 -0.0537  0.0770
24178DOPC   GL228624  14.049   0.344  14.713  0.2647 -0.2307  0.4059
24178DOPC   C1A28625  14.233   0.495  14.293  0.1878  0.3539 -0.0541
24178DOPC   D2A28626  14.122   0.734  13.847  0.1363  0.1256 -0.2041
24178DOPC   C3A28627  14.294   0.906  13.455 -0.0712 -0.0630 -0.1588
24178DOPC   C4A28628  14.430   1.110  12.970  0.4893 -0.1059  0.3500
24178DOPC   C1B28629  13.722   0.272  14.396  0.1235 -0.1997 -0.0591
24178DOPC   D2B28630  13.467  -0.035  14.212 -0.1378  0.4680 -0.3150
24178DOPC   C3B28631  13.354  -0.251  13.898  0.0713 -0.0799  0.3736
24178DOPC   C4B28632  13.287  -0.366  13.420  0.2359 -0.1508 -0.1064
24179DOPC   NC328633   7.210   6.126  22.122 -0.1544  0.0682  0.1525
24179DOPC   PO428634   7.459   5.808  22.173 -0.0687 -0.0170 -0.0029
24179DOPC   GL128635   7.458   5.837  21.849 -0.0740 -0.1283  0.1022
24179DOPC   GL228636   7.606   6.038  21.696  0.2157  0.2596  0.1628
24179DOPC   C1A28637   7.221   5.749  21.509  0.2103  0.1066  0.1738
24179DOPC   D2A28638   7.026   5.807  21.095 -0.1021 -0.0684 -0.1557
24179DOPC   C3A28639   6.961   5.872  20.627 -0.1132 -0.0843 -0.1201
24179DOPC   C4A28640   6.867   5.941  20.140  0.1874  0.1579  0.1461
24179DOPC   C1B28641   7.451   6.180  21.328 -0.2308  0.4113  0.2078
24179DOPC   D2B28642   7.235   6.230  20.886 -0.0603 -0.0693  0.2917
24179DOPC   C3B28643   7.222   6.275  20.401  0.1771 -0.0202 -0.0712
24179DOPC   C4B28644   7.287   6.050  19.932 -0.0259 -0.0175  0.1700
24180DOPC   NC328645   6.137   4.526  22.973 -0.1341 -0.1590  0.1491
24180DOPC   PO428646   6.333   4.441  22.638  0.1761 -0.0105  0.0553
24180DOPC   GL128647   6.218   4.464  22.265  0.0474  0.2777 -0.0730
24180DOPC   GL228648   6.493   4.290  22.198  0.0206  0.1072 -0.3865
24180DOPC   C1A28649   6.072   4.686  21.912  0.0104  0.1105  0.1075
24180DOPC   D2A28650   5.777   4.822  21.483  0.1039 -0.0770 -0.2758
24180DOPC   C3A28651   5.822   5.144  21.127  0.1886 -0.0383  0.0255
24180DOPC   C4A28652   5.538   5.036  20.725 -0.4199 -0.3662  0.2326
24180DOPC   C1B28653   6.611   4.617  21.920 -0.0555  0.2770  0.1314
24180DOPC   D2B28654   6.854   4.913  21.662  0.2356  0.1726 -0.2563
24180DOPC   C3B28655   6.746   4.802  21.178  0.0543  0.2726  0.0968
24180DOPC   C4B28656   6.942   4.563  20.778  0.1197 -0.1233 -0.0136
24181DOPC   NC328657   7.296   4.008  22.123  0.2310 -0.0870  0.1842
24181DOPC   PO428658   7.430   4.353  22.068  0.0655  0.1717 -0.1771
24181DOPC   GL128659   7.292   4.614  21.781 -0.0398  0.2403  0.0392
24181DOPC   GL228660   7.041   4.403  21.858  0.1502  0.1359 -0.1832
24181DOPC   C1A28661   7.252   4.683  21.385  0.4084 -0.0188 -0.0675
24181DOPC   D2A28662   7.274   4.906  20.950 -0.1316 -0.1185  0.0273
24181DOPC   C3A28663   7.107   4.964  20.487  0.1118  0.2265 -0.0979
24181DOPC   C4A28664   7.020   4.837  20.019 -0.0216  0.0651  0.3023
24181DOPC   C1B28665   6.742   4.385  21.514 -0.1722 -0.3132  0.3783
24181DOPC   D2B28666   6.346   4.534  21.329 -0.0437  0.1743 -0.0439
24181DOPC   C3B28667   6.189   4.763  20.982 -0.2185 -0.1035  0.2298
24181DOPC   C4B28668   5.997   5.073  20.586 -0.3784  0.3292  0.0390
24182DOPC   NC328669  16.666   7.051  14.824 -0.2105  0.3176 -0.2310
24182DOPC   PO428670  16.804   6.806  14.512 -0.0188  0.0892  0.3439
24182DOPC   GL128671  17.142   6.589  14.319 -0.3208 -0.1215 -0.1226
24182DOPC   GL228672  17.309   6.639  14.549 -0.1217 -0.0842 -0.0669
24182DOPC   C1A28673  17.280   6.471  13.938  0.1574  0.3299 -0.2553
24182DOPC   D2A28674  17.452   6.388  13.487 -0.2936  0.0405  0.2483
24182DOPC   C3A28675  17.634   5.997  13.347  0.1223 -0.3583  0.3411
24182DOPC   C4A28676  17.387   5.522  13.319 -0.2658  0.1470  0.0024
24182DOPC   C1B28677  17.596   6.741  14.237  0.1990 -0.0923  0.1016
24182DOPC   D2B28678  18.092   6.807  14.026  0.1418  0.1313 -0.1213
24182DOPC   C3B28679  18.092   7.055  13.576  0.1796  0.0985 -0.1471
24182DOPC   C4B28680  18.049   6.989  13.043  0.0960 -0.1494  0.2161
24183DOPC   NC328681  17.088   2.847  14.473  0.0471 -0.1213  0.0043
24183DOPC   PO428682  16.674   2.811  14.483 -0.1603  0.0829 -0.1731
24183DOPC   GL128683  16.841   2.701  14.075  0.0104 -0.1412  0.3736
24183DOPC   GL228684  16.584   2.816  13.958 -0.1183  0.0325  0.0813
24183DOPC   C1A28685  16.986   2.952  13.756 -0.2060  0.0172 -0.3105
24183DOPC   D2A28686  17.128   2.910  13.301 -0.0818  0.0912  0.0368
24183DOPC   C3A28687  17.225   3.157  12.906  0.1536  0.0607 -0.0668
24183DOPC   C4A28688  17.068   3.490  12.521  0.1666  0.1516 -0.1364
24183DOPC   C1B28689  16.372   2.762  13.594 -0.2527 -0.1547  0.2762
24183DOPC   D2B28690  16.276   2.607  13.188  0.1861 -0.2165 -0.1675
24183DOPC   C3B28691  15.972   2.568  12.793  0.1281 -0.1744  0.2002
24183DOPC   C4B28692  15.578   2.413  12.553 -0.2497 -0.1331  0.0311
24184DOPC   NC328693  12.899   0.569  16.008 -0.3894 -0.3326  0.0354
24184DOPC   PO428694  12.697   0.897  16.027 -0.1099 -0.2406  0.1597
24184DOPC   GL128695  12.368   0.930  15.827  0.1093  0.1360 -0.0696
24184DOPC   GL228696  12.143   1.024  15.996 -0.1251  0.1132 -0.0021
24184DOPC   C1A28697  12.084   1.215  15.561  0.1797  0.0350  0.0600
24184DOPC   D2A28698  11.797   1.348  15.170 -0.1267 -0.1865  0.1023
24184DOPC   C3A28699  11.753   1.363  14.712  0.2023 -0.0278 -0.0830
24184DOPC   C4A28700  12.012   1.511  14.312  0.2737 -0.0640 -0.0437
24184DOPC   C1B28701  11.724   0.940  15.883  0.0148  0.0878  0.0179
24184DOPC   D2B28702  11.582   0.620  15.542  0.1238  0.0701  0.0092
24184DOPC   C3B28703  11.531   0.990  15.294  0.0627  0.0870  0.0120
24184DOPC   C4B28704  11.268   1.203  14.931 -0.1292 -0.3771 -0.1459
24185DOPC   NC328705   3.879   5.992  22.935  0.1618  0.0277 -0.1515
24185DOPC   PO428706   3.681   5.949  22.589 -0.0751  0.0090  0.0979
24185DOPC   GL128707   3.505   5.979  22.208 -0.2881 -0.0472  0.2726
24185DOPC   GL228708   3.700   5.838  22.011  0.0388 -0.1426 -0.0224
24185DOPC   C1A28709   3.319   6.324  21.874  0.0334 -0.2398 -0.0643
24185DOPC   D2A28710   3.169   6.288  21.378 -0.0709 -0.1704 -0.0937
24185DOPC   C3A28711   3.389   6.265  20.929 -0.1154  0.1665  0.0788
24185DOPC   C4A28712   3.733   6.228  20.533 -0.0517  0.1176 -0.1612
24185DOPC   C1B28713   3.780   6.114  21.659 -0.0978  0.0164 -0.1098
24185DOPC   D2B28714   3.738   6.419  21.344  0.3861 -0.0012  0.0012
24185DOPC   C3B28715   3.849   6.567  20.931  0.0986  0.2090 -0.1442
24185DOPC   C4B28716   3.754   6.722  20.447  0.1460 -0.2287 -0.2114
24186DOPC   NC328717  16.368   6.181  15.032  0.0157 -0.4000  0.0280
24186DOPC   PO428718  16.394   6.482  14.743 -0.1809  0.1685 -0.0798
24186DOPC   GL128719  16.559   6.434  14.350  0.1934  0.0773  0.1373
24186DOPC   GL228720  16.424   6.573  14.235 -0.1126  0.0250 -0.0076
24186DOPC   C1A28721  16.770   6.404  14.014  0.2066 -0.2870 -0.1989
24186DOPC   D2A28722  16.919   6.409  13.571 -0.0684 -0.1375 -0.0380
24186DOPC   C3A28723  16.950   6.744  13.164 -0.3036  0.2014 -0.2403
24186DOPC   C4A28724  16.984   7.211  12.969  0.2398  0.3306 -0.1388
24186DOPC   C1B28725  16.377   6.817  13.849 -0.1336 -0.0411  0.1303
24186DOPC   D2B28726  16.433   7.268  13.800  0.0194  0.0355  0.0849
24186DOPC   C3B28727  16.484   7.692  13.643  0.2137  0.2766  0.2031
24186DOPC   C4B28728  16.598   8.095  13.367  0.1778 -0.0685 -0.0379
24187DOPC   NC328729   3.700   1.821  22.733  0.1265 -0.1353  0.0712
24187DOPC   PO428730   3.447   1.535  22.626 -0.0365  0.0114 -0.0218
24187DOPC   GL128731   3.280   1.437  22.260  0.4488 -0.0531 -0.0778
24187DOPC   GL228732   3.499   1.218  22.266 -0.1116 -0.2035 -0.3255
24187DOPC   C1A28733   3.369   1.703  21.922 -0.1450 -0.2573 -0.1106
24187DOPC   D2A28734   3.191   2.014  21.597 -0.2873  0.0904  0.0108
24187DOPC   C3A28735   3.050   1.959  21.161 -0.0565 -0.0281  0.1914
24187DOPC   C4A28736   3.086   1.825  20.683  0.3936  0.1876 -0.1130
24187DOPC   C1B28737   3.517   1.132  21.862 -0.0508 -0.1405 -0.0851
24187DOPC   D2B28738   3.535   1.158  21.384  0.0121  0.3713 -0.1200
24187DOPC   C3B28739   3.782   1.179  21.007 -0.1349 -0.0660 -0.2984
24187DOPC   C4B28740   4.050   1.423  20.655 -0.1738  0.1561 -0.2450
24188DOPC   NC328741  12.451   3.719  17.642 -0.2291  0.1139  0.2096
24188DOPC   PO428742  12.105   3.722  17.929  0.1643  0.1340  0.1383
24188DOPC   GL128743  11.805   3.764  17.659  0.1934 -0.0025  0.1154
24188DOPC   GL228744  11.716   3.455  17.651  0.1395 -0.1318  0.3044
24188DOPC   C1A28745  11.659   3.915  17.247 -0.3687 -0.0087  0.0206
24188DOPC   D2A28746  11.502   4.102  16.857  0.2654 -0.1077  0.0254
24188DOPC   C3A28747  11.123   4.156  16.657 -0.3493  0.1263  0.0555
24188DOPC   C4A28748  10.945   4.429  16.327 -0.3437 -0.2003  0.1527
24188DOPC   C1B28749  11.527   3.431  17.264 -0.1665 -0.0311  0.0641
24188DOPC   D2B28750  11.125   3.244  16.969  0.0072 -0.2804 -0.0755
24188DOPC   C3B28751  10.730   3.427  16.899 -0.0725 -0.1981  0.1826
24188DOPC   C4B28752  10.236   3.384  16.694 -0.0938 -0.2063 -0.2329
24189DOPC   NC328753  18.497   2.975  15.079 -0.3095 -0.0058  0.1167
24189DOPC   PO428754  18.266   3.274  14.952 -0.1280 -0.1430 -0.2138
24189DOPC   GL128755  18.403   3.431  14.483  0.0911 -0.0152 -0.4620
24189DOPC   GL228756  18.250   3.226  14.528  0.0947  0.2141  0.0268
24189DOPC   C1A28757  18.568   3.343  14.085  0.0266 -0.3277 -0.0486
24189DOPC   D2A28758  18.611   3.155  13.641 -0.0383 -0.1604 -0.0186
24189DOPC   C3A28759  19.091   3.125  13.483 -0.0855  0.2856 -0.2515
24189DOPC   C4A28760  19.392   2.723  13.360  0.1107  0.1785  0.1846
24189DOPC   C1B28761  18.242   2.943  14.220 -0.0017 -0.2009  0.2597
24189DOPC   D2B28762  18.233   2.789  13.702  0.1591 -0.1944 -0.0900
24189DOPC   C3B28763  17.953   2.732  13.312 -0.2509 -0.1335  0.3418
24189DOPC   C4B28764  17.985   2.656  12.774 -0.0715  0.0159 -0.1122
24190DOPC   NC328765   6.082   2.750  22.506  0.1092 -0.0989 -0.0155
24190DOPC   PO428766   6.179   3.073  22.280  0.0388 -0.0647 -0.1109
24190DOPC   GL128767   6.334   3.075  21.952  0.0049  0.3587  0.0569
24190DOPC   GL228768   6.307   3.341  21.930 -0.0469  0.0958  0.1178
24190DOPC   C1A28769   6.080   3.063  21.485  0.1896  0.2079  0.0019
24190DOPC   D2A28770   5.800   3.154  21.037 -0.1104  0.2492 -0.1739
24190DOPC   C3A28771   5.754   3.480  20.660  0.4729 -0.0243  0.1406
24190DOPC   C4A28772   5.535   3.558  20.286 -0.0864  0.0018  0.2239
24190DOPC   C1B28773   6.363   3.477  21.579 -0.0979 -0.2571  0.4043
24190DOPC   D2B28774   6.568   3.738  21.229  0.0841  0.0301 -0.0842
24190DOPC   C3B28775   6.616   3.562  20.825 -0.1144  0.3765 -0.0043
24190DOPC   C4B28776   6.541   3.167  20.560  0.4890  0.2377  0.0048
24191DOPC   NC328777  24.106   6.507  20.317  0.2521  0.2658 -0.1092
24191DOPC   PO428778  24.171   6.926  20.238 -0.2352 -0.0215  0.2586
24191DOPC   GL128779  24.471   7.058  19.923 -0.0201 -0.0612 -0.0601
24191DOPC   GL228780  24.297   6.902  19.708 -0.1740  0.1491  0.3258
24191DOPC   C1A28781  24.800   6.904  19.629 -0.3952  0.0169 -0.4392
24191DOPC   D2A28782  25.012   6.867  19.130 -0.1829  0.2239  0.2034
24191DOPC   C3A28783  25.479   6.929  19.166  0.0330 -0.0895  0.0494
24191DOPC   C4A28784  25.971   6.912  19.115  0.0412 -0.0193 -0.2322
24191DOPC   C1B28785  24.437   6.839  19.273  0.2932 -0.2733 -0.0070
24191DOPC   D2B28786  24.591   6.786  18.759 -0.0075  0.0653 -0.1561
24191DOPC   C3B28787  24.472   6.970  18.303  0.0680  0.3741 -0.1322
24191DOPC   C4B28788  24.345   7.034  17.832  0.1237  0.1552 -0.1582
24192DOPC   NC328789  16.872   6.153  14.881  0.3421  0.2691 -0.0545
24192DOPC   PO428790  17.067   6.217  14.584  0.0621  0.3573 -0.2565
24192DOPC   GL128791  17.136   6.112  14.208  0.3125 -0.0396  0.4815
24192DOPC   GL228792  16.942   5.986  14.169 -0.1620  0.3082 -0.1525
24192DOPC   C1A28793  17.445   6.028  13.858  0.3207 -0.0284  0.0552
24192DOPC   D2A28794  17.925   5.908  13.782  0.0611 -0.0202 -0.0312
24192DOPC   C3A28795  18.143   6.015  13.402  0.1626  0.0986 -0.1572
24192DOPC   C4A28796  18.517   5.956  13.043 -0.0227  0.0275  0.3457
24192DOPC   C1B28797  16.702   5.955  13.815  0.0056  0.2548 -0.0452
24192DOPC   D2B28798  16.518   6.019  13.399 -0.0129 -0.1245  0.0724
24192DOPC   C3B28799  16.615   6.069  12.965 -0.1261 -0.0685  0.1908
24192DOPC   C4B28800  16.430   6.258  12.528 -0.2626  0.0535  0.0186
24193DOPC   NC328801   7.880   3.560  21.628 -0.2981  0.2842  0.0921
24193DOPC   PO428802   8.250   3.434  21.755  0.1886 -0.4813 -0.0492
24193DOPC   GL128803   8.439   3.113  21.533 -0.1193  0.2621 -0.1573
24193DOPC   GL228804   8.620   3.357  21.361 -0.1693  0.0119  0.0106
24193DOPC   C1A28805   8.120   3.040  21.252 -0.4385  0.0902 -0.2183
24193DOPC   D2A28806   7.949   2.964  20.766 -0.1328 -0.0735  0.3534
24193DOPC   C3A28807   7.692   3.040  20.347 -0.2824 -0.0326  0.0068
24193DOPC   C4A28808   7.321   3.002  19.955 -0.1016  0.0959  0.1146
24193DOPC   C1B28809   8.362   3.410  21.027  0.0418 -0.0645 -0.0642
24193DOPC   D2B28810   8.016   3.432  20.629  0.2076  0.0109  0.0581
24193DOPC   C3B28811   7.857   3.501  20.184  0.2010  0.0189  0.1969
24193DOPC   C4B28812   7.567   3.431  19.751  0.0207 -0.1452 -0.0282
24194DOPC   NC328813  10.567   6.283  19.583 -0.3974 -0.1498  0.1951
24194DOPC   PO428814  10.496   6.098  19.927  0.2191 -0.0188 -0.1438
24194DOPC   GL128815  10.043   6.153  19.844 -0.2448  0.0112  0.0468
24194DOPC   GL228816  10.059   5.928  19.984  0.0749  0.0701 -0.0726
24194DOPC   C1A28817   9.797   6.004  19.546 -0.1008 -0.1345  0.0031
24194DOPC   D2A28818   9.600   5.842  19.164  0.2302  0.1828  0.0871
24194DOPC   C3A28819   9.211   5.709  18.933 -0.3158  0.0524  0.0159
24194DOPC   C4A28820   8.829   5.497  18.838  0.3082 -0.1338 -0.0176
24194DOPC   C1B28821   9.784   5.580  19.828  0.1502  0.0466  0.1269
24194DOPC   D2B28822   9.430   5.294  19.678 -0.0805  0.0417 -0.0707
24194DOPC   C3B28823   8.913   5.389  19.654 -0.0514 -0.0382  0.1010
24194DOPC   C4B28824   8.760   5.850  19.820  0.0115 -0.2841  0.1016
24195DOPC   NC328825   0.143   2.420  21.547  0.2880  0.0627 -0.1790
24195DOPC   PO428826   0.187   2.705  21.256 -0.2977 -0.1519  0.2866
24195DOPC   GL128827   0.435   2.491  21.086  0.1462 -0.4547 -0.1755
24195DOPC   GL228828   0.350   2.465  20.833  0.4176  0.0623  0.0713
24195DOPC   C1A28829   0.860   2.686  21.006  0.0773  0.0748 -0.4763
24195DOPC   D2A28830   1.328   2.777  20.796  0.0670  0.2390 -0.1137
24195DOPC   C3A28831   1.553   2.724  20.391  0.2506 -0.1449 -0.0590
24195DOPC   C4A28832   1.872   2.697  19.981 -0.0729 -0.1771  0.1372
24195DOPC   C1B28833   0.165   2.687  20.505  0.2039  0.3854 -0.1648
24195DOPC   D2B28834  -0.220   2.834  20.319  0.3041  0.0784 -0.0942
24195DOPC   C3B28835   0.071   2.993  19.979  0.1274  0.4667 -0.1601
24195DOPC   C4B28836   0.188   3.172  19.467 -0.0320  0.3788  0.1129
24196DOPC   NC328837  20.702   3.680  16.946  0.2976  0.1198 -0.0558
24196DOPC   PO428838  20.358   3.729  16.759 -0.1255 -0.0798 -0.0425
24196DOPC   GL128839  20.503   3.817  16.391 -0.0830 -0.4538 -0.0363
24196DOPC   GL228840  20.630   4.042  16.436 -0.3877 -0.1818  0.3149
24196DOPC   C1A28841  20.361   3.779  15.951  0.1268  0.2926  0.0806
24196DOPC   D2A28842  20.615   3.571  15.538 -0.1448 -0.1770 -0.0031
24196DOPC   C3A28843  20.669   3.181  15.294 -0.1007  0.2832  0.1073
24196DOPC   C4A28844  20.751   2.730  15.185  0.0045 -0.0612  0.0086
24196DOPC   C1B28845  21.094   4.052  16.297  0.0174 -0.2563 -0.1598
24196DOPC   D2B28846  21.277   4.134  15.818  0.0819  0.2724  0.3352
24196DOPC   C3B28847  20.884   4.289  15.594 -0.1633 -0.0881 -0.0203
24196DOPC   C4B28848  20.562   4.515  15.280  0.0903  0.1977  0.0430
24197DOPC   NC328849  20.343   4.350  16.546 -0.0941 -0.2096 -0.0217
24197DOPC   PO428850  20.584   4.255  16.842  0.3802  0.2415 -0.1102
24197DOPC   GL128851  20.938   4.350  16.792  0.4385 -0.0352  0.6650
24197DOPC   GL228852  20.885   4.415  16.483 -0.3175  0.1037 -0.3040
24197DOPC   C1A28853  21.391   4.295  16.774 -0.1617  0.1676 -0.0193
24197DOPC   D2A28854  21.769   4.347  16.537 -0.0786 -0.1170 -0.0279
24197DOPC   C3A28855  22.105   4.563  16.397  0.0113 -0.0135 -0.2591
24197DOPC   C4A28856  22.616   4.705  16.240 -0.0836 -0.1372  0.0188
24197DOPC   C1B28857  21.071   4.513  16.076  0.1114  0.3917  0.4336
24197DOPC   D2B28858  21.423   4.611  15.726  0.1485  0.0078 -0.1586
24197DOPC   C3B28859  21.522   4.572  15.292  0.0030  0.2232 -0.0501
24197DOPC   C4B28860  21.559   4.691  14.843  0.1911  0.1878 -0.1134
24198DOPC   NC328861   8.072   2.309  22.321  0.2344 -0.1230 -0.2241
24198DOPC   PO428862   8.226   2.485  22.000 -0.0108 -0.0702 -0.0312
24198DOPC   GL128863   8.084   2.362  21.661 -0.2525  0.3127  0.1323
24198DOPC   GL228864   7.905   2.585  21.561  0.0808  0.1801  0.3147
24198DOPC   C1A28865   7.895   2.081  21.484 -0.1262  0.0553  0.0045
24198DOPC   D2A28866   7.679   1.630  21.431  0.1228  0.2854  0.0306
24198DOPC   C3A28867   7.310   1.708  21.135 -0.3318 -0.2249 -0.3474
24198DOPC   C4A28868   7.033   1.860  20.797 -0.1003  0.0464 -0.0417
24198DOPC   C1B28869   7.853   2.625  21.110 -0.0980  0.1515 -0.0797
24198DOPC   D2B28870   7.521   2.803  20.888  0.1301  0.0566  0.1811
24198DOPC   C3B28871   7.159   2.790  20.589 -0.0957 -0.2250  0.3547
24198DOPC   C4B28872   6.912   3.044  20.209  0.1183  0.2520  0.1769
24199DOPC   NC328873  15.864   7.669  14.527  0.0679 -0.1733 -0.0887
24199DOPC   PO428874  15.758   8.075  14.510 -0.4239  0.0543  0.1210
24199DOPC   GL128875  15.920   8.188  14.134  0.0770 -0.3310  0.2464
24199DOPC   GL228876  15.666   8.183  14.015  0.1754  0.0074 -0.4159
24199DOPC   C1A28877  16.203   8.197  13.800 -0.3529  0.2591  0.2569
24199DOPC   D2A28878  16.103   8.286  13.267 -0.2128 -0.0302 -0.1782
24199DOPC   C3A28879  16.448   8.456  13.049  0.0782  0.2123 -0.0965
24199DOPC   C4A28880  16.660   8.838  12.773 -0.1159  0.2461 -0.1318
24199DOPC   C1B28881  15.704   8.409  13.598  0.0813 -0.1471  0.1763
24199DOPC   D2B28882  15.848   8.697  13.156 -0.3136 -0.1879  0.1156
24199DOPC   C3B28883  15.581   8.443  12.914  0.1535  0.1723  0.1893
24199DOPC   C4B28884  15.685   8.020  12.733 -0.2177 -0.0844 -0.1674
24200DOPC   NC328885   9.191   3.449  21.229  0.3211  0.1537  0.1874
24200DOPC   PO428886   8.901   3.709  21.272  0.0457  0.1608  0.0556
24200DOPC   GL128887   8.768   3.855  20.896 -0.1598 -0.0042  0.0007
24200DOPC   GL228888   8.489   3.834  20.913  0.0581 -0.1554 -0.1302
24200DOPC   C1A28889   8.720   4.111  20.511  0.0786  0.0832 -0.0909
24200DOPC   D2A28890   8.468   4.159  20.078 -0.2814  0.0438  0.1644
24200DOPC   C3A28891   8.313   4.157  19.636  0.1509  0.3544  0.0054
24200DOPC   C4A28892   8.485   4.040  19.222  0.1312 -0.0205 -0.0653
24200DOPC   C1B28893   8.220   4.138  20.683  0.0901 -0.1046  0.1232
24200DOPC   D2B28894   8.138   4.440  20.299 -0.0634 -0.2136 -0.2007
24200DOPC   C3B28895   7.922   4.277  19.937 -0.0737  0.0256 -0.0075
24200DOPC   C4B28896   7.635   4.236  19.570 -0.0996  0.4303  0.2028
24201DOPC   NC328897  23.336   2.291  20.463 -0.2092 -0.0047  0.0857
24201DOPC   PO428898  23.487   1.922  20.326  0.0064 -0.1385  0.0669
24201DOPC   GL128899  23.900   1.869  20.298  0.1595 -0.1169  0.0677
24201DOPC   GL228900  24.093   1.903  20.440 -0.2364 -0.4592 -0.2142
24201DOPC   C1A28901  24.074   1.889  19.855  0.1425 -0.1746  0.2967
24201DOPC   D2A28902  24.528   1.784  19.732  0.4882  0.1969 -0.1547
24201DOPC   C3A28903  24.724   1.629  19.333 -0.0051 -0.2755 -0.0654
24201DOPC   C4A28904  25.038   1.607  18.961 -0.1315  0.1266 -0.0173
24201DOPC   C1B28905  24.522   1.878  20.298 -0.1720 -0.0223 -0.0323
24201DOPC   D2B28906  24.889   2.047  19.943  0.0300  0.1193 -0.2285
24201DOPC   C3B28907  25.280   2.149  19.748 -0.1501 -0.0630  0.0680
24201DOPC   C4B28908  25.693   1.960  19.577 -0.2472  0.2123 -0.1758
24202DOPC   NC328909  21.171   2.323  17.763 -0.1974 -0.1825  0.0293
24202DOPC   PO428910  21.364   2.656  17.994  0.0740 -0.0586  0.1103
24202DOPC   GL128911  21.654   2.909  17.790  0.0587 -0.1479 -0.1754
24202DOPC   GL228912  21.412   2.986  17.636 -0.2724 -0.1688  0.1430
24202DOPC   C1A28913  21.973   2.981  17.512 -0.0778 -0.1108  0.0713
24202DOPC   D2A28914  22.409   3.078  17.341 -0.1808  0.2932 -0.0146
24202DOPC   C3A28915  22.753   3.298  17.177 -0.0163  0.3800 -0.1534
24202DOPC   C4A28916  23.031   3.509  16.825 -0.0510  0.1261 -0.1860
24202DOPC   C1B28917  21.534   3.107  17.285  0.2362  0.2731 -0.3174
24202DOPC   D2B28918  21.901   2.949  17.010 -0.0970 -0.2883 -0.0018
24202DOPC   C3B28919  22.300   3.058  16.788 -0.0426 -0.0692 -0.3371
24202DOPC   C4B28920  22.745   3.122  16.517 -0.0681  0.0033  0.0801
24203DOPC   NC328921  21.732   1.762  18.526  0.3579 -0.1863 -0.1059
24203DOPC   PO428922  21.481   1.753  18.191 -0.2824 -0.3955 -0.0794
24203DOPC   GL128923  21.702   1.716  17.853 -0.0528  0.1227 -0.2716
24203DOPC   GL228924  21.909   1.717  18.020 -0.1198  0.0413 -0.0530
24203DOPC   C1A28925  21.923   1.725  17.553  0.0993  0.0982  0.0152
24203DOPC   D2A28926  21.989   1.514  17.134  0.4102 -0.0589 -0.0231
24203DOPC   C3A28927  22.309   1.493  16.904 -0.1783  0.2013  0.0745
24203DOPC   C4A28928  22.712   1.316  16.641  0.0046  0.1998 -0.0134
24203DOPC   C1B28929  22.281   1.667  17.864 -0.0009 -0.2300  0.1820
24203DOPC   D2B28930  22.420   1.653  17.378  0.2541 -0.3496 -0.3730
24203DOPC   C3B28931  22.704   1.393  17.173  0.0621  0.0996  0.3390
24203DOPC   C4B28932  23.101   1.211  17.015 -0.1605 -0.1990  0.2751
24204DOPC   NC328933  10.363   0.632  19.652 -0.1115  0.0720 -0.1534
24204DOPC   PO428934  10.145   0.818  19.393 -0.0332 -0.1358 -0.2594
24204DOPC   GL128935   9.950   0.965  19.066  0.2535  0.0256 -0.1911
24204DOPC   GL228936   9.934   0.622  19.074  0.0951  0.2254  0.2464
24204DOPC   C1A28937   9.649   1.128  18.762 -0.2439  0.2478 -0.2315
24204DOPC   D2A28938   9.621   1.348  18.305 -0.1276  0.1817 -0.3470
24204DOPC   C3A28939   9.182   1.476  18.140  0.3203  0.4040 -0.1128
24204DOPC   C4A28940   8.766   1.664  18.065 -0.3096 -0.0062 -0.0769
24204DOPC   C1B28941   9.572   0.550  18.785  0.0842  0.0322  0.1742
24204DOPC   D2B28942   9.280   0.542  18.351  0.2220  0.0130  0.0441
24204DOPC   C3B28943   8.816   0.622  18.392  0.0144  0.0362  0.3630
24204DOPC   C4B28944   8.333   0.903  18.365 -0.2406 -0.0505  0.1517
24205DOPC   NC328945  12.093   5.778  17.660  0.0714 -0.2745 -0.2242
24205DOPC   PO428946  12.382   5.790  17.386  0.0453  0.2320  0.1417
24205DOPC   GL128947  12.188   5.778  16.943  0.4861 -0.3178 -0.0400
24205DOPC   GL228948  12.483   5.803  16.772 -0.1687 -0.3375 -0.2257
24205DOPC   C1A28949  11.887   5.824  16.632  0.2875 -0.0816 -0.2167
24205DOPC   D2A28950  11.450   5.801  16.348  0.0555 -0.0250 -0.1505
24205DOPC   C3A28951  10.932   5.768  16.253  0.0405  0.5020 -0.1295
24205DOPC   C4A28952  10.451   5.766  16.204  0.0532 -0.2171  0.2368
24205DOPC   C1B28953  12.337   6.055  16.434  0.0846 -0.0552 -0.0713
24205DOPC   D2B28954  12.191   6.482  16.377  0.0152  0.1065 -0.3403
24205DOPC   C3B28955  11.798   6.443  16.178 -0.0156  0.2021 -0.0255
24205DOPC   C4B28956  11.387   6.496  15.872 -0.3425 -0.1139  0.0126
24206DOPC   NC328957  14.035   5.816  15.050  0.0632 -0.3287 -0.0859
24206DOPC   PO428958  14.221   5.476  14.940  0.0722 -0.0002 -0.0575
24206DOPC   GL128959  14.148   5.250  14.660  0.0373 -0.1594  0.0737
24206DOPC   GL228960  13.864   5.314  14.631  0.1092  0.0041  0.2507
24206DOPC   C1A28961  14.228   5.315  14.249 -0.1358 -0.2548 -0.0088
24206DOPC   D2A28962  14.043   5.371  13.857 -0.0895 -0.0855 -0.1359
24206DOPC   C3A28963  13.867   5.350  13.482 -0.1623  0.3494  0.1828
24206DOPC   C4A28964  13.695   5.396  13.024 -0.0370  0.0321 -0.1913
24206DOPC   C1B28965  13.740   5.280  14.248 -0.0691 -0.1683  0.0718
24206DOPC   D2B28966  13.715   4.978  13.959  0.1122  0.1005  0.0512
24206DOPC   C3B28967  13.563   4.819  13.602 -0.0048 -0.0959  0.2033
24206DOPC   C4B28968  13.113   4.729  13.432  0.0142  0.0262 -0.1134
24207DOPC   NC328969   4.170   3.924  22.781 -0.1054  0.2378 -0.1717
24207DOPC   PO428970   4.343   4.198  22.539 -0.3674  0.0936 -0.0479
24207DOPC   GL128971   4.318   4.147  22.129  0.0133  0.2567 -0.1384
24207DOPC   GL228972   4.208   3.876  22.206 -0.1791 -0.3045 -0.0154
24207DOPC   C1A28973   4.637   4.232  21.937  0.1667  0.0705 -0.1720
24207DOPC   D2A28974   4.949   4.513  21.788 -0.2541  0.1910  0.0010
24207DOPC   C3A28975   4.885   4.824  21.449  0.2175  0.1075  0.2770
24207DOPC   C4A28976   4.546   5.117  21.221 -0.0794  0.0028 -0.0720
24207DOPC   C1B28977   3.963   3.896  21.845  0.1706 -0.0312  0.0930
24207DOPC   D2B28978   3.571   4.110  21.648  0.1436 -0.0841 -0.2174
24207DOPC   C3B28979   3.411   4.445  21.399 -0.0033 -0.0797 -0.0249
24207DOPC   C4B28980   3.157   4.808  21.161  0.0491 -0.0675 -0.0290
24208DOPC   NC328981  11.828   6.784  17.535  0.2122  0.2166 -0.0374
24208DOPC   PO428982  11.615   6.759  17.885  0.1423 -0.2604 -0.0285
24208DOPC   GL128983  11.243   6.949  17.791  0.0421 -0.0932  0.0818
24208DOPC   GL228984  11.406   7.034  17.498  0.1195 -0.1190 -0.0142
24208DOPC   C1A28985  10.906   6.696  17.700  0.0798 -0.0636  0.0808
24208DOPC   D2A28986  10.458   6.599  17.603  0.0145 -0.0044  0.1935
24208DOPC   C3A28987  10.067   6.631  17.332 -0.3297 -0.1691  0.2648
24208DOPC   C4A28988   9.902   6.808  16.949 -0.0566 -0.2158  0.0202
24208DOPC   C1B28989  11.380   7.209  17.122  0.0879  0.2549  0.2374
24208DOPC   D2B28990  11.151   7.450  16.810  0.0117  0.1090  0.0459
24208DOPC   C3B28991  10.811   7.795  16.813  0.2178 -0.0924  0.0153
24208DOPC   C4B28992  10.406   7.990  16.610 -0.0279 -0.0543 -0.1371
24209DOPC   NC328993   5.563   7.535  22.600 -0.0188  0.3078  0.3868
24209DOPC   PO428994   5.939   7.535  22.627 -0.0620  0.5369 -0.0157
24209DOPC   GL128995   5.873   7.429  22.156 -0.2720  0.1828  0.1089
24209DOPC   GL228996   5.702   7.650  22.139 -0.3397 -0.3618 -0.0013
24209DOPC   C1A28997   6.203   7.473  21.779 -0.4397  0.0473 -0.0184
24209DOPC   D2A28998   6.277   7.642  21.318  0.2591  0.2132 -0.1929
24209DOPC   C3A28999   6.136   7.578  20.906  0.0162  0.1228  0.1631
24209DOPC   C4A29000   6.094   7.406  20.459 -0.2109 -0.1006 -0.3061
24209DOPC   C1B29001   5.940   7.928  21.757  0.0469 -0.0942 -0.0312
24209DOPC   D2B29002   6.022   8.099  21.286  0.2290 -0.1616  0.0239
24209DOPC   C3B29003   5.786   8.210  20.924  0.1775  0.0124 -0.2885
24209DOPC   C4B29004   5.515   8.130  20.524 -0.2579  0.0517  0.1689
24210DOPC   NC329005  17.848   6.513  15.072 -0.1754  0.1753  0.1791
24210DOPC   PO429006  17.553   6.772  14.961  0.0827 -0.2605 -0.0702
24210DOPC   GL129007  17.663   6.852  14.684 -0.0694  0.1536 -0.3733
24210DOPC   GL229008  17.729   7.085  14.622  0.0335  0.0975 -0.0577
24210DOPC   C1A29009  18.059   6.600  14.503  0.2170 -0.2411 -0.0792
24210DOPC   D2A29010  18.374   6.375  14.127  0.1610 -0.2750  0.0908
24210DOPC   C3A29011  18.453   6.345  13.661 -0.0943 -0.1110 -0.4392
24210DOPC   C4A29012  18.420   6.491  13.176  0.2879 -0.1188  0.0972
24210DOPC   C1B29013  18.168   7.075  14.510  0.0949  0.3494  0.2068
24210DOPC   D2B29014  18.573   6.790  14.325  0.1219  0.0135  0.3371
24210DOPC   C3B29015  18.556   6.828  13.841 -0.0128 -0.1165 -0.0103
24210DOPC   C4B29016  18.616   6.957  13.342  0.0765  0.1357 -0.0071
24211DOPC   NC329017   4.090   2.746  22.693  0.1183  0.0376 -0.0728
24211DOPC   PO429018   4.153   3.075  22.500  0.1850  0.1586  0.2685
24211DOPC   GL129019   4.033   3.267  22.219 -0.1663 -0.0476 -0.1562
24211DOPC   GL229020   3.824   3.341  22.169 -0.0397  0.0292  0.2884
24211DOPC   C1A29021   4.288   3.516  21.924 -0.1763 -0.1612  0.0782
24211DOPC   D2A29022   4.442   3.876  21.638 -0.3039  0.2731 -0.2121
24211DOPC   C3A29023   4.099   4.105  21.374  0.1246  0.0327 -0.1354
24211DOPC   C4A29024   3.682   4.165  21.094 -0.0272  0.1480  0.1424
24211DOPC   C1B29025   3.702   3.493  21.782 -0.1061 -0.1257  0.0054
24211DOPC   D2B29026   3.630   3.732  21.336 -0.1243  0.5024 -0.0004
24211DOPC   C3B29027   3.260   3.870  21.102  0.2293  0.2442  0.1827
24211DOPC   C4B29028   3.208   3.961  20.603  0.2289 -0.1204 -0.2310
24212DOPC   NC329029  12.451   5.306  16.961  0.0047  0.3704 -0.0092
24212DOPC   PO429030  12.124   5.329  17.145 -0.1126  0.3267 -0.1825
24212DOPC   GL129031  11.690   5.347  17.020 -0.0659  0.1038  0.3234
24212DOPC   GL229032  11.730   5.133  16.885  0.0382  0.1471  0.1353
24212DOPC   C1A29033  11.440   5.623  16.859  0.1293 -0.0502  0.0578
24212DOPC   D2A29034  11.096   5.876  16.742 -0.0152  0.4298 -0.0113
24212DOPC   C3A29035  10.771   6.065  17.028  0.0700 -0.3287  0.1012
24212DOPC   C4A29036  10.778   6.488  17.223 -0.4039 -0.2907  0.3754
24212DOPC   C1B29037  11.391   4.914  16.691 -0.0908  0.1003 -0.0283
24212DOPC   D2B29038  10.971   4.909  16.427  0.1915 -0.0986 -0.0514
24212DOPC   C3B29039  10.565   5.040  16.623 -0.1675  0.0480 -0.0084
24212DOPC   C4B29040  10.287   5.278  16.944  0.1203  0.1318 -0.0078
24213DOPC   NC329041   1.615   2.988  22.027  0.1360 -0.1578  0.3255
24213DOPC   PO429042   1.407   2.632  22.066  0.1396  0.3344 -0.4110
24213DOPC   GL129043   1.106   2.696  21.695  0.1255 -0.2146 -0.0559
24213DOPC   GL229044   1.336   2.821  21.511  0.1131 -0.1532  0.0705
24213DOPC   C1A29045   0.960   2.409  21.444 -0.0299  0.2118  0.3176
24213DOPC   D2A29046   0.857   2.166  20.917  0.1277 -0.0064 -0.1993
24213DOPC   C3A29047   1.158   1.795  20.896 -0.0245  0.3202  0.0546
24213DOPC   C4A29048   1.534   1.732  20.576  0.0740  0.2699 -0.2104
24213DOPC   C1B29049   1.561   2.559  21.231  0.0755 -0.0695  0.0669
24213DOPC   D2B29050   1.897   2.291  20.985  0.0587  0.0700 -0.0798
24213DOPC   C3B29051   2.252   2.315  20.725  0.4088 -0.1296 -0.1495
24213DOPC   C4B29052   2.620   2.237  20.383  0.0242  0.1460 -0.2578
24214DOPC   NC329053  15.342   1.747  14.461  0.3785  0.3717  0.1395
24214DOPC   PO429054  14.961   1.713  14.523  0.1378 -0.1008 -0.0589
24214DOPC   GL129055  14.761   1.661  14.242  0.1583  0.3360 -0.2481
24214DOPC   GL229056  14.539   1.930  14.379 -0.1820  0.0397 -0.1210
24214DOPC   C1A29057  14.716   1.821  13.886 -0.0583 -0.0856  0.0623
24214DOPC   D2A29058  14.700   2.070  13.458 -0.0214 -0.3802  0.1536
24214DOPC   C3A29059  14.506   2.463  13.234 -0.1650 -0.1159 -0.3192
24214DOPC   C4A29060  14.383   2.682  12.802 -0.0604  0.3753  0.2417
24214DOPC   C1B29061  14.179   2.115  14.177  0.4258  0.1577  0.0989
24214DOPC   D2B29062  13.950   2.362  13.901 -0.1330  0.0789  0.1570
24214DOPC   C3B29063  13.925   2.399  13.424 -0.1742  0.1745  0.0467
24214DOPC   C4B29064  13.850   2.305  12.994  0.1526 -0.2272 -0.0490
24215DOPC   NC329065   0.398   5.956  21.038 -0.0799  0.2347  0.1499
24215DOPC   PO429066   0.548   5.737  21.332  0.0828  0.0668 -0.0394
24215DOPC   GL129067   0.683   5.510  20.951 -0.4876 -0.3103  0.4425
24215DOPC   GL229068   0.783   5.739  20.868  0.1653 -0.3722 -0.1156
24215DOPC   C1A29069   0.894   5.278  20.650 -0.0445  0.4251  0.3037
24215DOPC   D2A29070   1.120   4.937  20.397  0.1327 -0.0425 -0.0681
24215DOPC   C3A29071   1.573   5.019  20.203 -0.1462  0.1892 -0.2274
24215DOPC   C4A29072   2.005   5.092  20.097 -0.0452  0.0476 -0.2066
24215DOPC   C1B29073   0.998   5.815  20.515  0.0790  0.1096  0.0636
24215DOPC   D2B29074   0.990   5.842  19.989 -0.0549 -0.0613 -0.0539
24215DOPC   C3B29075   0.970   5.825  19.513  0.0131  0.0593 -0.1035
24215DOPC   C4B29076   0.987   6.121  19.118  0.1780 -0.1749  0.0776
24216DOPC   NC329077  13.965   2.020  15.253 -0.2114 -0.1731  0.0586
24216DOPC   PO429078  13.946   1.783  15.578  0.1510 -0.2759  0.2667
24216DOPC   GL129079  13.772   1.405  15.419  0.2287 -0.0209  0.2118
24216DOPC   GL229080  13.645   1.682  15.326 -0.0082 -0.3038 -0.0466
24216DOPC   C1A29081  13.691   1.146  15.041  0.0730  0.1493 -0.3220
24216DOPC   D2A29082  13.319   0.960  14.757  0.0192  0.2359  0.2986
24216DOPC   C3A29083  13.319   0.658  14.416  0.1395 -0.0948  0.2009
24216DOPC   C4A29084  13.379   0.401  13.962  0.2083 -0.2050 -0.0255
24216DOPC   C1B29085  13.572   1.837  14.900  0.0443  0.2168  0.1020
24216DOPC   D2B29086  13.152   1.987  14.709 -0.2310 -0.1975  0.0051
24216DOPC   C3B29087  13.022   2.096  14.196 -0.0291  0.1605 -0.1259
24216DOPC   C4B29088  12.637   1.802  13.972  0.0057 -0.3010  0.4632
24217DOPC   NC329089  14.073   7.785  14.934 -0.0557  0.3479  0.0129
24217DOPC   PO429090  14.039   7.709  15.342  0.1562  0.2802 -0.0142
24217DOPC   GL129091  13.621   7.574  15.333 -0.2002 -0.0536  0.1593
24217DOPC   GL229092  13.736   7.334  15.150 -0.1123 -0.5666 -0.1872
24217DOPC   C1A29093  13.229   7.738  15.147  0.1550  0.1336  0.0062
24217DOPC   D2A29094  12.717   7.926  15.213  0.1300  0.0297  0.1923
24217DOPC   C3A29095  12.500   8.377  15.233  0.3126 -0.2899  0.1596
24217DOPC   C4A29096  12.385   8.820  15.204  0.1810  0.1141  0.2777
24217DOPC   C1B29097  13.470   7.145  14.814 -0.1584  0.1767  0.2040
24217DOPC   D2B29098  13.365   7.068  14.343  0.1149 -0.2946 -0.1557
24217DOPC   C3B29099  13.678   7.230  14.054 -0.2273 -0.0209  0.2762
24217DOPC   C4B29100  13.768   7.372  13.561 -0.0107  0.0686 -0.0840
24218DOPC   NC329101   8.815   6.696  22.095  0.0873 -0.0464  0.0199
24218DOPC   PO429102   8.453   6.600  21.960  0.0561  0.0181 -0.0232
24218DOPC   GL129103   8.237   6.764  21.732  0.2549 -0.0259 -0.1439
24218DOPC   GL229104   7.951   6.738  21.847  0.2545  0.4168  0.2503
24218DOPC   C1A29105   8.235   6.810  21.246  0.3234 -0.0665  0.2964
24218DOPC   D2A29106   8.506   6.678  20.818 -0.0163  0.2215  0.3366
24218DOPC   C3A29107   8.400   6.930  20.494 -0.1158 -0.4094  0.2095
24218DOPC   C4A29108   8.209   7.080  20.086 -0.0478  0.2179 -0.0795
24218DOPC   C1B29109   7.772   6.699  21.471 -0.2481  0.1185 -0.1358
24218DOPC   D2B29110   7.543   6.598  21.030 -0.0333 -0.0962 -0.1400
24218DOPC   C3B29111   7.533   6.573  20.562  0.0592  0.2480 -0.4324
24218DOPC   C4B29112   7.674   6.413  20.069  0.0164 -0.0270  0.0816
24219DOPC   NC329113  23.285   7.504  19.882 -0.0820  0.3653  0.3618
24219DOPC   PO429114  23.668   7.471  19.784  0.1236 -0.0120 -0.0913
24219DOPC   GL129115  23.811   7.421  19.442  0.2259  0.0696  0.2000
24219DOPC   GL229116  23.721   7.192  19.357  0.0543  0.0943 -0.1475
24219DOPC   C1A29117  24.174   7.245  19.346  0.1030 -0.2295 -0.1632
24219DOPC   D2A29118  24.633   7.317  19.394 -0.1027 -0.4387  0.2380
24219DOPC   C3A29119  24.753   7.234  18.974 -0.0314 -0.1048 -0.2850
24219DOPC   C4A29120  24.949   7.064  18.533 -0.0283  0.0707  0.1488
24219DOPC   C1B29121  23.849   7.266  18.979 -0.2354  0.2024 -0.0674
24219DOPC   D2B29122  24.206   7.324  18.548 -0.0183 -0.1303  0.1130
24219DOPC   C3B29123  24.257   7.439  18.077  0.0681 -0.1429 -0.0972
24219DOPC   C4B29124  24.477   7.531  17.680  0.1256 -0.0779 -0.0760
24220DOPC   NC329125  18.637   3.902  15.406 -0.0082 -0.0218  0.1432
24220DOPC   PO429126  18.651   4.202  15.163 -0.1653 -0.0288 -0.0331
24220DOPC   GL129127  18.717   4.191  14.685  0.3807  0.1081 -0.2220
24220DOPC   GL229128  18.606   4.368  14.760 -0.2132 -0.2703  0.0414
24220DOPC   C1A29129  18.619   4.164  14.294 -0.0077 -0.2951 -0.0411
24220DOPC   D2A29130  18.755   3.969  13.879  0.1959 -0.1935  0.0918
24220DOPC   C3A29131  18.708   3.788  13.457 -0.3541  0.3521  0.0781
24220DOPC   C4A29132  18.726   3.407  13.195 -0.0814  0.1753  0.0035
24220DOPC   C1B29133  18.672   4.758  14.541 -0.0545 -0.2376  0.1188
24220DOPC   D2B29134  18.956   4.841  14.195  0.0266 -0.2984 -0.0951
24220DOPC   C3B29135  18.998   4.833  13.738 -0.2722  0.2448 -0.2185
24220DOPC   C4B29136  19.174   4.685  13.285 -0.1983 -0.0497 -0.0039
24221DOPC   NC329137  11.637   2.414  17.984  0.1861 -0.1494  0.3050
24221DOPC   PO429138  11.469   2.067  18.141  0.0587 -0.3406  0.2901
24221DOPC   GL129139  11.183   2.208  18.007 -0.0621  0.2262  0.1995
24221DOPC   GL229140  11.302   2.253  17.766  0.0734  0.1104  0.1473
24221DOPC   C1A29141  10.757   2.047  17.907 -0.0795  0.2943 -0.3465
24221DOPC   D2A29142  10.609   1.924  17.471  0.2735 -0.0772 -0.0122
24221DOPC   C3A29143  10.203   1.692  17.469  0.1393  0.0684  0.2959
24221DOPC   C4A29144   9.764   1.602  17.295 -0.0189 -0.2413  0.0542
24221DOPC   C1B29145  11.114   2.022  17.503  0.1508 -0.4111  0.3028
24221DOPC   D2B29146  10.975   1.835  17.067  0.0003 -0.3526 -0.0900
24221DOPC   C3B29147  10.592   1.836  16.850  0.0414 -0.0660 -0.0774
24221DOPC   C4B29148  10.384   1.776  16.433 -0.1180 -0.1098  0.0251
24222DOPC   NC329149   8.041   2.970  21.741  0.1206 -0.0289 -0.0940
24222DOPC   PO429150   7.732   3.151  21.889  0.0762 -0.0402 -0.1218
24222DOPC   GL129151   7.454   3.180  21.564  0.1162 -0.0267  0.0484
24222DOPC   GL229152   7.651   3.027  21.428 -0.2959  0.2506 -0.2854
24222DOPC   C1A29153   7.389   3.601  21.306 -0.2322 -0.4516 -0.0748
24222DOPC   D2A29154   7.501   4.037  21.036  0.2602 -0.0444 -0.2280
24222DOPC   C3A29155   7.324   4.231  20.708 -0.4572 -0.2886 -0.2352
24222DOPC   C4A29156   7.169   4.381  20.287 -0.0520  0.3194 -0.1704
24222DOPC   C1B29157   7.789   3.377  21.126  0.3957  0.2601  0.1165
24222DOPC   D2B29158   7.515   3.390  20.766 -0.0868  0.2786  0.2728
24222DOPC   C3B29159   7.323   3.391  20.318 -0.1146 -0.1479  0.2643
24222DOPC   C4B29160   7.125   3.523  19.919 -0.1741 -0.0986  0.1594
24223DOPC   NC329161  24.311   4.729  21.146 -0.0689 -0.0016 -0.0664
24223DOPC   PO429162  24.643   4.778  20.907 -0.1711 -0.1277  0.1578
24223DOPC   GL129163  24.696   4.482  20.548 -0.1774  0.0119 -0.2946
24223DOPC   GL229164  24.726   4.752  20.452 -0.0510  0.1437 -0.2143
24223DOPC   C1A29165  24.941   4.185  20.241 -0.3093  0.0630  0.0885
24223DOPC   D2A29166  25.169   3.893  19.892 -0.0797  0.0333 -0.2005
24223DOPC   C3A29167  25.530   3.972  19.581 -0.0791 -0.3278 -0.0896
24223DOPC   C4A29168  25.848   3.947  19.217 -0.3781 -0.0357 -0.2731
24223DOPC   C1B29169  25.119   4.724  20.279 -0.0091  0.3235  0.0260
24223DOPC   D2B29170  25.418   4.334  20.081 -0.0154  0.1206  0.1173
24223DOPC   C3B29171  25.911   4.285  20.102 -0.1064 -0.1325  0.0676
24223DOPC   C4B29172  26.298   4.529  19.952  0.0656 -0.4146 -0.0632
24224DOPC   NC329173  10.550   2.266  19.120 -0.0977 -0.0737  0.3113
24224DOPC   PO429174  10.591   2.201  18.757 -0.0759 -0.2411  0.1255
24224DOPC   GL129175  10.313   2.042  18.538 -0.0561  0.2338 -0.2904
24224DOPC   GL229176  10.348   2.192  18.255  0.3083  0.0469 -0.0338
24224DOPC   C1A29177   9.878   2.023  18.546  0.1417  0.0075  0.0410
24224DOPC   D2A29178   9.378   2.184  18.710 -0.1655  0.1234  0.1183
24224DOPC   C3A29179   9.068   2.441  18.422 -0.1112 -0.0030  0.3532
24224DOPC   C4A29180   8.573   2.573  18.488  0.0434 -0.2758  0.0070
24224DOPC   C1B29181  10.180   1.987  17.953  0.0727  0.2825 -0.1537
24224DOPC   D2B29182   9.818   1.971  17.679 -0.1795  0.3415  0.1956
24224DOPC   C3B29183   9.580   2.397  17.500  0.0701  0.1521  0.1794
24224DOPC   C4B29184   9.388   2.814  17.352  0.3261 -0.2953 -0.1668
24225DOPC   NC329185  21.997   4.581  18.516  0.0116  0.1930  0.0442
24225DOPC   PO429186  21.803   4.658  18.160  0.2147  0.0272  0.0967
24225DOPC   GL129187  21.880   4.944  17.693  0.2519  0.0164  0.1969
24225DOPC   GL229188  21.995   4.612  17.735  0.1934  0.0965 -0.0454
24225DOPC   C1A29189  22.174   5.035  17.377 -0.1074 -0.1053 -0.1687
24225DOPC   D2A29190  22.617   5.368  17.328  0.2943 -0.0631 -0.0506
24225DOPC   C3A29191  22.807   5.337  16.939 -0.0500 -0.3359 -0.1450
24225DOPC   C4A29192  23.243   5.282  16.655  0.3131  0.2429  0.0835
24225DOPC   C1B29193  22.269   4.543  17.414 -0.0732 -0.0610  0.1023
24225DOPC   D2B29194  22.626   4.261  17.274 -0.0187  0.1167 -0.3133
24225DOPC   C3B29195  22.630   3.820  17.422 -0.0897 -0.0223 -0.0434
24225DOPC   C4B29196  22.706   3.351  17.660  0.2153 -0.2717  0.1048
24226DOPC   NC329197  12.622   7.274  16.810  0.2678 -0.1199 -0.3635
24226DOPC   PO429198  12.713   6.904  16.740  0.2723  0.2593 -0.0997
24226DOPC   GL129199  12.608   6.827  16.410  0.0156 -0.0517 -0.3381
24226DOPC   GL229200  12.613   7.074  16.243 -0.2390  0.3535  0.0681
24226DOPC   C1A29201  12.743   6.462  16.224  0.2737  0.4170 -0.1171
24226DOPC   D2A29202  12.529   6.146  16.012  0.0546 -0.2466  0.1835
24226DOPC   C3A29203  12.101   6.175  15.873  0.1713 -0.0900 -0.0345
24226DOPC   C4A29204  11.811   6.268  15.516  0.0426  0.1196  0.0842
24226DOPC   C1B29205  12.179   7.030  16.277 -0.0086 -0.2634 -0.1361
24226DOPC   D2B29206  11.675   6.928  16.162  0.0844  0.4461  0.0451
24226DOPC   C3B29207  11.342   6.971  15.836 -0.0397 -0.0394 -0.0522
24226DOPC   C4B29208  11.032   6.744  15.525 -0.1942  0.1521  0.2802
24227DOPC   NC329209  20.798   1.801  17.508 -0.3453 -0.1384 -0.0280
24227DOPC   PO429210  20.512   1.857  17.244  0.2513 -0.0715 -0.0022
24227DOPC   GL129211  20.723   2.072  17.094 -0.0062 -0.1581  0.4206
24227DOPC   GL229212  20.596   2.082  16.792 -0.0458  0.0817 -0.0706
24227DOPC   C1A29213  21.093   1.783  16.973  0.1483  0.2683 -0.2804
24227DOPC   D2A29214  21.492   1.505  16.808 -0.5434  0.4340 -0.1719
24227DOPC   C3A29215  21.872   1.270  16.602  0.0176 -0.0660 -0.0762
24227DOPC   C4A29216  21.890   0.812  16.378 -0.0901 -0.0698 -0.2461
24227DOPC   C1B29217  20.937   2.100  16.583  0.2330  0.0917 -0.1938
24227DOPC   D2B29218  21.292   2.010  16.238  0.0549 -0.0269 -0.1016
24227DOPC   C3B29219  21.763   2.125  16.230  0.0485 -0.1156 -0.4618
24227DOPC   C4B29220  22.216   2.316  16.159 -0.2508  0.0379  0.1811
24228DOPC   NC329221   5.826   6.164  22.545 -0.1429  0.0073  0.0763
24228DOPC   PO429222   5.912   6.567  22.498  0.1179 -0.0437  0.1302
24228DOPC   GL129223   5.778   6.803  22.203 -0.2235  0.0631 -0.1285
24228DOPC   GL229224   5.808   6.528  22.006 -0.1615  0.1556 -0.0329
24228DOPC   C1A29225   5.925   7.059  21.925 -0.2378  0.2385  0.0882
24228DOPC   D2A29226   5.820   7.173  21.426  0.1486 -0.0577 -0.0980
24228DOPC   C3A29227   5.573   7.166  21.081  0.1125  0.0185  0.0470
24228DOPC   C4A29228   5.221   7.334  20.863  0.1039  0.2034 -0.0174
24228DOPC   C1B29229   5.647   6.317  21.657 -0.4966  0.0324  0.1501
24228DOPC   D2B29230   5.472   6.126  21.234  0.2202 -0.0852 -0.4170
24228DOPC   C3B29231   5.721   6.138  20.777  0.1463  0.0105 -0.0682
24228DOPC   C4B29232   5.827   6.355  20.416  0.5141  0.0886  0.1801
24229DOPC   NC329233  17.569   3.695  14.466  0.0346 -0.3978  0.2919
24229DOPC   PO429234  17.657   3.323  14.657  0.2073 -0.1862  0.0816
24229DOPC   GL129235  17.860   3.195  14.392 -0.1851  0.0669  0.2184
24229DOPC   GL229236  17.728   3.098  14.144 -0.3100  0.2279  0.2001
24229DOPC   C1A29237  18.070   3.475  14.194  0.0877 -0.0070  0.2108
24229DOPC   D2A29238  18.341   3.610  13.724  0.0265 -0.0470  0.0102
24229DOPC   C3A29239  18.311   3.681  13.197  0.3387 -0.1154 -0.3790
24229DOPC   C4A29240  18.566   3.673  12.786 -0.1882  0.2035  0.1711
24229DOPC   C1B29241  17.913   3.148  13.758  0.1438 -0.0100  0.1399
24229DOPC   D2B29242  18.183   3.236  13.363 -0.0979  0.0027  0.0729
24229DOPC   C3B29243  18.516   2.876  13.240  0.0311 -0.4086  0.2953
24229DOPC   C4B29244  18.928   2.572  13.285 -0.0065  0.0519  0.0263
24230DOPC   NC329245  12.911   5.104  17.004  0.0768  0.2070  0.1447
24230DOPC   PO429246  12.657   4.838  16.921  0.1580  0.0998 -0.1856
24230DOPC   GL129247  12.278   4.688  16.818 -0.0487 -0.1302  0.1348
24230DOPC   GL229248  12.185   4.985  16.753  0.0937  0.3842  0.3173
24230DOPC   C1A29249  11.816   4.549  16.743  0.0038 -0.0915 -0.4420
24230DOPC   D2A29250  11.529   4.433  16.375 -0.1578 -0.0755  0.2367
24230DOPC   C3A29251  11.622   4.242  15.962  0.2240 -0.0243 -0.0683
24230DOPC   C4A29252  11.434   4.196  15.507 -0.0609 -0.0958  0.2006
24230DOPC   C1B29253  11.911   4.940  16.431 -0.0995 -0.2593 -0.1502
24230DOPC   D2B29254  11.507   4.896  16.181  0.0709  0.0182 -0.1143
24230DOPC   C3B29255  11.124   5.186  16.081  0.4880 -0.3904  0.3198
24230DOPC   C4B29256  10.837   5.504  15.766 -0.0409  0.1885  0.3234
24231DOPC   NC329257  16.009   3.727  14.109 -0.0079 -0.1710 -0.1015
24231DOPC   PO429258  15.821   3.381  14.045 -0.0406 -0.2984  0.0702
24231DOPC   GL129259  15.450   3.365  13.795  0.2230  0.0964  0.3517
24231DOPC   GL229260  15.324   3.443  14.025 -0.1737 -0.2858  0.1209
24231DOPC   C1A29261  15.386   3.668  13.516  0.0410  0.1500  0.1382
24231DOPC   D2A29262  15.125   3.995  13.207  0.0759  0.1569 -0.0090
24231DOPC   C3A29263  15.186   4.205  12.717 -0.0780  0.0742  0.0359
24231DOPC   C4A29264  15.106   4.348  12.226 -0.0933 -0.1143  0.2833
24231DOPC   C1B29265  14.990   3.308  13.746 -0.0644  0.1211  0.0222
24231DOPC   D2B29266  14.683   3.230  13.331  0.4286 -0.0149  0.1611
24231DOPC   C3B29267  14.472   3.111  12.901  0.0555  0.1088  0.1106
24231DOPC   C4B29268  14.231   3.164  12.471  0.2070  0.2909  0.1753
24232DOPC   NC329269  20.530   6.814  17.145 -0.7055 -0.0842 -0.2068
24232DOPC   PO429270  20.633   7.208  17.105  0.1190  0.0358 -0.1069
24232DOPC   GL129271  21.022   7.342  17.081 -0.2625 -0.1626  0.1114
24232DOPC   GL229272  20.980   7.365  17.363 -0.0599 -0.0368  0.0021
24232DOPC   C1A29273  21.448   7.308  16.980 -0.1101  0.1121 -0.0299
24232DOPC   D2A29274  21.902   7.080  17.017 -0.2110  0.3028 -0.0756
24232DOPC   C3A29275  22.071   6.982  16.611  0.3489  0.0007 -0.0537
24232DOPC   C4A29276  22.052   6.817  16.141  0.0720  0.0850 -0.3142
24232DOPC   C1B29277  21.405   7.254  17.465  0.3811  0.1705  0.1725
24232DOPC   D2B29278  21.820   7.444  17.604 -0.1777  0.1096  0.0925
24232DOPC   C3B29279  22.115   7.523  17.293 -0.1383  0.1674  0.3230
24232DOPC   C4B29280  22.091   7.452  16.815 -0.0137 -0.0581 -0.0132
24233DOPC   NC329281  20.555   7.473  17.605 -0.0193 -0.5351  0.0659
24233DOPC   PO429282  20.778   7.781  17.722 -0.2335 -0.0931 -0.1748
24233DOPC   GL129283  21.173   7.769  17.486  0.3307 -0.0227 -0.3142
24233DOPC   GL229284  21.082   7.938  17.257  0.2134  0.1403  0.2686
24233DOPC   C1A29285  21.500   7.744  17.331 -0.2335  0.3883 -0.2578
24233DOPC   D2A29286  21.805   7.809  17.005  0.1864 -0.2253  0.0570
24233DOPC   C3A29287  22.000   8.044  16.618 -0.2203  0.2034 -0.2795
24233DOPC   C4A29288  22.350   8.283  16.370  0.2673 -0.1341  0.1578
24233DOPC   C1B29289  21.287   7.821  16.856  0.3587 -0.0055  0.0378
24233DOPC   D2B29290  21.648   7.606  16.562  0.0825  0.0491  0.1882
24233DOPC   C3B29291  21.970   7.780  16.184 -0.1418 -0.0296 -0.0283
24233DOPC   C4B29292  22.319   7.393  16.338  0.0627  0.1176  0.3335
24234DOPC   NC329293  12.459   0.168  16.343 -0.3109 -0.0049 -0.0718
24234DOPC   PO429294  12.576   0.171  16.693 -0.3676 -0.0493  0.3449
24234DOPC   GL129295  12.260   0.089  16.840 -0.1574  0.1730 -0.1289
24234DOPC   GL229296  12.246   0.327  17.044  0.0106  0.0673 -0.1507
24234DOPC   C1A29297  12.000   0.084  16.576 -0.1983  0.0362 -0.0624
24234DOPC   D2A29298  11.530  -0.055  16.584 -0.0948  0.2753 -0.1298
24234DOPC   C3A29299  11.165  -0.150  16.393 -0.0919  0.4086 -0.1591
24234DOPC   C4A29300  10.734  -0.219  16.183  0.0731  0.2258  0.0491
24234DOPC   C1B29301  11.848   0.313  17.145  0.2487 -0.0382  0.1299
24234DOPC   D2B29302  11.406   0.473  17.369  0.0214 -0.1747  0.1473
24234DOPC   C3B29303  10.987   0.412  17.174 -0.0229 -0.0136 -0.0504
24234DOPC   C4B29304  10.521   0.403  17.059  0.3366 -0.1417 -0.0091
24235DOPC   NC329305  22.151   7.229  18.830  0.2754  0.2139  0.1273
24235DOPC   PO429306  22.153   6.815  18.821  0.3863  0.1047  0.4443
24235DOPC   GL129307  22.411   6.725  18.497  0.2854 -0.1585  0.1548
24235DOPC   GL229308  22.599   6.951  18.558  0.1856  0.0383  0.1384
24235DOPC   C1A29309  22.547   6.348  18.290 -0.0310  0.1922 -0.0042
24235DOPC   D2A29310  22.714   6.463  17.826 -0.1072 -0.0131  0.2009
24235DOPC   C3A29311  22.955   6.832  17.650 -0.2616  0.0182 -0.2589
24235DOPC   C4A29312  23.266   7.201  17.647 -0.1365 -0.2690  0.1831
24235DOPC   C1B29313  22.929   6.952  18.775  0.0762 -0.1017  0.2486
24235DOPC   D2B29314  23.319   7.211  18.602  0.2642  0.2003  0.1271
24235DOPC   C3B29315  23.350   7.044  18.164  0.2649 -0.0697  0.0273
24235DOPC   C4B29316  23.489   6.762  17.789 -0.0209  0.0658 -0.0523
24236DOPC   NC329317  20.897   5.122  17.121 -0.1589  0.0823  0.0449
24236DOPC   PO429318  20.521   5.056  17.089  0.0573 -0.2532  0.0235
24236DOPC   GL129319  20.619   4.714  16.707 -0.1921 -0.2637 -0.0964
24236DOPC   GL229320  20.804   4.873  16.724 -0.0460 -0.3731  0.2917
24236DOPC   C1A29321  20.607   4.720  16.284  0.2157 -0.1148  0.0616
24236DOPC   D2A29322  20.547   4.670  15.783  0.0096 -0.2419  0.1978
24236DOPC   C3A29323  20.995   4.820  15.598 -0.1371  0.2173 -0.0796
24236DOPC   C4A29324  21.323   5.136  15.497 -0.0310 -0.0582  0.3767
24236DOPC   C1B29325  21.017   4.907  16.364  0.0510  0.0585 -0.0580
24236DOPC   D2B29326  21.338   5.127  16.006 -0.0721  0.0180 -0.2361
24236DOPC   C3B29327  21.277   5.563  16.085 -0.0376 -0.1682  0.0328
24236DOPC   C4B29328  21.206   6.004  16.382  0.0803 -0.3477  0.1631
24237DOPC   NC329329  14.669   1.275  14.510  0.0559 -0.1471  0.0890
24237DOPC   PO429330  14.984   1.272  14.289 -0.0444 -0.0921  0.3060
24237DOPC   GL129331  15.005   1.139  13.950 -0.2628 -0.1904 -0.1756
24237DOPC   GL229332  15.119   1.352  13.848 -0.3371 -0.0800 -0.2018
24237DOPC   C1A29333  14.770   0.846  13.736 -0.0078  0.0212 -0.1320
24237DOPC   D2A29334  14.599   0.496  13.438  0.3699 -0.2833  0.1560
24237DOPC   C3A29335  14.653   0.288  12.998  0.2680  0.0658 -0.0683
24237DOPC   C4A29336  14.718  -0.126  12.703  0.0320 -0.1057  0.2991
24237DOPC   C1B29337  14.772   1.395  13.582  0.1603  0.0603  0.0143
24237DOPC   D2B29338  14.597   1.641  13.130  0.0042  0.3629 -0.0532
24237DOPC   C3B29339  14.890   1.806  12.756 -0.1002  0.0478  0.0003
24237DOPC   C4B29340  15.294   1.941  12.619  0.1253 -0.0155  0.0731
24238DOPC   NC329341  12.001   4.948  17.795 -0.0643 -0.0500  0.0985
24238DOPC   PO429342  11.725   5.133  18.026 -0.0133 -0.0594  0.0086
24238DOPC   GL129343  11.365   5.354  17.862  0.4064 -0.2554  0.2663
24238DOPC   GL229344  11.446   5.197  17.638 -0.0190 -0.1852 -0.1557
24238DOPC   C1A29345  10.969   5.412  17.647 -0.1204 -0.1802 -0.0113
24238DOPC   D2A29346  10.534   5.714  17.540 -0.0338 -0.2335 -0.3714
24238DOPC   C3A29347  10.190   5.605  17.291  0.1477 -0.0075  0.2931
24238DOPC   C4A29348   9.772   5.606  16.985 -0.1845  0.3702 -0.2414
24238DOPC   C1B29349  11.272   5.237  17.232 -0.1837 -0.0236 -0.4031
24238DOPC   D2B29350  10.956   5.107  16.876 -0.1818  0.0605  0.0300
24238DOPC   C3B29351  10.944   4.699  16.904  0.1705  0.1074 -0.2809
24238DOPC   C4B29352  10.597   4.513  16.671 -0.1692 -0.0079  0.3913
24239DOPC   NC329353  16.655   1.295  14.817  0.2441 -0.2038 -0.1775
24239DOPC   PO429354  16.958   1.039  14.727  0.1019 -0.3260  0.0771
24239DOPC   GL129355  17.178   0.913  14.334 -0.4609  0.1652 -0.2768
24239DOPC   GL229356  17.210   0.674  14.463 -0.0759  0.0679 -0.2192
24239DOPC   C1A29357  17.002   0.910  13.921  0.1167  0.1897 -0.2569
24239DOPC   D2A29358  16.847   0.660  13.556 -0.3010  0.0161 -0.0514
24239DOPC   C3A29359  16.939   0.742  13.113 -0.0279 -0.0376 -0.1910
24239DOPC   C4A29360  17.031   0.679  12.621 -0.2328 -0.1664 -0.0249
24239DOPC   C1B29361  17.655   0.477  14.389  0.2394  0.1800 -0.3929
24239DOPC   D2B29362  17.902   0.235  14.010 -0.0679 -0.0862  0.0722
24239DOPC   C3B29363  18.238   0.402  13.746  0.0794  0.2999 -0.1434
24239DOPC   C4B29364  18.655   0.546  13.513  0.1512 -0.0595 -0.0952
24240DOPA   PO429365  18.075   2.504  15.067  0.0734 -0.2351 -0.1435
24240DOPA   GL129366  18.369   2.385  14.818 -0.2896  0.2890 -0.0055
24240DOPA   GL229367  18.331   2.667  14.658 -0.1383 -0.0774  0.0302
24240DOPA   C1A29368  18.543   2.088  14.551 -0.1005  0.2981  0.2373
24240DOPA   D2A29369  18.587   1.757  14.172  0.1445 -0.1898  0.2985
24240DOPA   C3A29370  18.624   1.702  13.733  0.0125  0.1009  0.1132
24240DOPA   C4A29371  18.665   1.553  13.271 -0.3180  0.0373  0.2190
24240DOPA   C1B29372  18.306   2.483  14.237  0.0275 -0.0104  0.0104
24240DOPA   D2B29373  18.370   2.109  13.920  0.0664 -0.0264 -0.0798
24240DOPA   C3B29374  18.109   1.749  13.887  0.2070  0.0006  0.0843
24240DOPA   C4B29375  17.923   1.262  13.868  0.3332 -0.1044  0.1929
24241DOPA   PO429376   5.744   4.487  22.578  0.0037  0.4952  0.2575
24241DOPA   GL129377   5.565   4.370  22.168 -0.1042  0.1370  0.1216
24241DOPA   GL229378   5.870   4.305  22.091 -0.0405  0.0729  0.2474
24241DOPA   C1A29379   5.430   4.712  21.858 -0.3144 -0.2258  0.1894
24241DOPA   D2A29380   5.340   5.036  21.477 -0.3106  0.1075 -0.1259
24241DOPA   C3A29381   5.178   5.019  21.070  0.1539 -0.1516 -0.0236
24241DOPA   C4A29382   5.002   5.126  20.610 -0.1193  0.0393 -0.0422
24241DOPA   C1B29383   5.690   4.323  21.606 -0.0437  0.3116  0.0492
24241DOPA   D2B29384   5.546   4.046  21.152 -0.0456  0.2510 -0.1326
24241DOPA   C3B29385   5.094   4.163  20.940  0.1976  0.1127  0.1460
24241DOPA   C4B29386   4.623   4.002  20.743  0.1954  0.1493 -0.0644
24242DOPA   PO429387  20.061   7.650  16.661  0.2840 -0.2509  0.0815
24242DOPA   GL129388  20.220   7.959  16.459 -0.0845 -0.3228 -0.3672
24242DOPA   GL229389  20.453   7.967  16.500  0.0277  0.0551 -0.1754
24242DOPA   C1A29390  20.162   8.471  16.512 -0.0801 -0.0999 -0.1908
24242DOPA   D2A29391  20.110   8.921  16.285 -0.0075  0.0714  0.0564
24242DOPA   C3A29392  20.211   9.049  15.818  0.1425 -0.0787  0.0141
24242DOPA   C4A29393  20.007   9.440  15.663  0.2457  0.0842 -0.2376
24242DOPA   C1B29394  20.621   8.360  16.631 -0.1017 -0.2278 -0.0957
24242DOPA   D2B29395  20.976   8.788  16.636  0.1821 -0.1642 -0.0092
24242DOPA   C3B29396  21.372   8.919  16.369  0.0234 -0.0565  0.0291
24242DOPA   C4B29397  21.766   8.999  16.079 -0.1604 -0.2092  0.2225
24243DOPA   PO429398   3.073   4.723  22.492  0.1001 -0.1176  0.0497
24243DOPA   GL129399   3.368   4.922  22.282  0.1749  0.0320  0.2369
24243DOPA   GL229400   3.608   4.845  22.363 -0.4688 -0.1950 -0.1350
24243DOPA   C1A29401   3.388   4.929  21.808  0.1131  0.2975 -0.3149
24243DOPA   D2A29402   3.629   4.986  21.360  0.0357  0.1249 -0.0169
24243DOPA   C3A29403   3.610   4.906  20.866  0.0993  0.3247  0.0042
24243DOPA   C4A29404   3.974   4.917  20.506  0.0328  0.1875  0.0645
24243DOPA   C1B29405   3.812   5.119  22.114 -0.0894  0.1736 -0.2105
24243DOPA   D2B29406   4.085   5.383  21.851  0.0139  0.1976  0.1157
24243DOPA   C3B29407   3.827   5.604  21.521  0.0542  0.2182  0.1851
24243DOPA   C4B29408   3.449   5.511  21.134 -0.0096  0.1189 -0.0718
24244DOPA   PO429409   9.535   6.642  20.781  0.0778 -0.1042 -0.0871
24244DOPA   GL129410   9.274   6.661  20.441 -0.2672  0.1311  0.0161
24244DOPA   GL229411   9.334   6.504  20.203 -0.0809 -0.1320  0.2118
24244DOPA   C1A29412   8.921   6.982  20.438 -0.0791  0.0725  0.0137
24244DOPA   D2A29413   8.815   7.425  20.644 -0.1693 -0.2519 -0.0455
24244DOPA   C3A29414   8.601   7.658  21.001 -0.1190  0.2529 -0.1418
24244DOPA   C4A29415   8.386   7.882  21.360 -0.0077  0.4113  0.0809
24244DOPA   C1B29416   9.120   6.678  19.893  0.0609 -0.1636 -0.1168
24244DOPA   D2B29417   8.658   6.910  20.036 -0.1992  0.3793 -0.0723
24244DOPA   C3B29418   8.486   7.167  19.737  0.0094 -0.1454  0.0767
24244DOPA   C4B29419   8.041   7.295  19.694  0.3989 -0.2494  0.4141
24245DOPA   PO429420  16.573   4.347  14.128 -0.1079  0.0920  0.0777
24245DOPA   GL129421  16.963   4.177  14.108  0.0405 -0.4344  0.0516
24245DOPA   GL229422  16.873   3.960  13.962  0.1924  0.4963 -0.3068
24245DOPA   C1A29423  17.262   4.245  13.769  0.1384  0.0008 -0.1428
24245DOPA   D2A29424  17.156   4.063  13.298  0.0595 -0.1527 -0.0189
24245DOPA   C3A29425  16.731   4.109  13.130 -0.0780 -0.1524  0.1873
24245DOPA   C4A29426  16.398   4.188  12.757  0.1344  0.1405  0.0710
24245DOPA   C1B29427  16.764   3.894  13.628 -0.1759 -0.0528 -0.1491
24245DOPA   D2B29428  16.441   3.680  13.279 -0.1778 -0.0759  0.2210
24245DOPA   C3B29429  16.427   3.525  12.805  0.0821 -0.2975  0.0084
24245DOPA   C4B29430  16.509   3.352  12.345 -0.0339  0.1457 -0.0904
24246DOPA   PO429431   3.395   0.347  22.489 -0.0256 -0.7120  0.0408
24246DOPA   GL129432   3.723   0.214  22.197  0.2622 -0.0104 -0.1494
24246DOPA   GL229433   3.652   0.523  22.026 -0.1779 -0.2300  0.0912
24246DOPA   C1A29434   3.811  -0.149  21.981  0.0030 -0.1662  0.1334
24246DOPA   D2A29435   3.855  -0.590  21.706 -0.0476  0.0620 -0.0697
24246DOPA   C3A29436   3.624  -0.301  21.444 -0.1770  0.2644 -0.2896
24246DOPA   C4A29437   3.335  -0.069  21.177  0.0130 -0.1047  0.2749
24246DOPA   C1B29438   3.792   0.672  21.630  0.0383 -0.1241 -0.0556
24246DOPA   D2B29439   3.889   0.714  21.160 -0.3255 -0.0517  0.3704
24246DOPA   C3B29440   4.025   0.602  20.743  0.0003 -0.2870  0.1398
24246DOPA   C4B29441   4.425   0.634  20.473  0.1023 -0.2175  0.0770
24247DOPA   PO429442   0.202   5.421  21.150  0.0518 -0.1148  0.0053
24247DOPA   GL129443   0.283   5.552  20.777 -0.0999 -0.1381 -0.2892
24247DOPA   GL229444   0.054   5.444  20.610 -0.1692 -0.2469  0.0816
24247DOPA   C1A29445   0.575   5.622  20.451 -0.0382  0.0203  0.1497
24247DOPA   D2A29446   0.878   5.359  20.142  0.2374  0.0127  0.2307
24247DOPA   C3A29447   1.183   5.449  19.851  0.2918 -0.1019 -0.1898
24247DOPA   C4A29448   1.542   5.652  19.566  0.0901 -0.0052  0.2846
24247DOPA   C1B29449   0.355   5.214  20.330 -0.2092  0.0775 -0.3174
24247DOPA   D2B29450   0.575   4.888  20.058  0.0165  0.0819 -0.1771
24247DOPA   C3B29451   1.014   4.954  19.886  0.3179 -0.2514  0.2237
24247DOPA   C4B29452   1.492   5.062  19.743 -0.0412 -0.1416  0.1581
24248DOPA   PO429453  21.926   7.077  18.418  0.1081 -0.0834  0.0911
24248DOPA   GL129454  22.272   7.148  18.195 -0.1911  0.1718 -0.2450
24248DOPA   GL229455  22.230   7.113  17.903  0.1333 -0.1662 -0.3739
24248DOPA   C1A29456  22.607   6.966  18.041  0.0482  0.0019  0.1622
24248DOPA   D2A29457  22.947   6.679  18.188 -0.1316  0.3983 -0.0928
24248DOPA   C3A29458  22.999   6.489  18.644 -0.0128 -0.2879  0.1556
24248DOPA   C4A29459  23.071   6.504  19.159 -0.1561 -0.0877  0.1803
24248DOPA   C1B29460  22.485   7.005  17.484 -0.2544  0.0407 -0.0788
24248DOPA   D2B29461  22.400   6.827  17.040 -0.2152 -0.1266  0.4117
24248DOPA   C3B29462  22.582   7.132  16.713  0.1989  0.0463 -0.0366
24248DOPA   C4B29463  22.982   7.342  16.816  0.2436  0.1007 -0.0212
24249DOPA   PO429464  18.079   0.082  15.162 -0.0805  0.2058  0.2342
24249DOPA   GL129465  18.370   0.087  14.930 -0.0628  0.1679 -0.0445
24249DOPA   GL229466  18.398   0.367  14.817  0.1555 -0.1544 -0.0193
24249DOPA   C1A29467  18.405  -0.256  14.630  0.0556  0.3031 -0.1138
24249DOPA   D2A29468  18.620  -0.423  14.158 -0.2436 -0.0995 -0.4151
24249DOPA   C3A29469  18.476  -0.505  13.731 -0.2550  0.1083  0.1266
24249DOPA   C4A29470  18.430  -0.350  13.283 -0.1558  0.2188  0.1998
24249DOPA   C1B29471  18.289   0.292  14.412  0.0705  0.0769  0.0434
24249DOPA   D2B29472  18.499   0.081  14.065  0.0394  0.0162 -0.1328
24249DOPA   C3B29473  18.689   0.110  13.664 -0.2663  0.0299 -0.2075
24249DOPA   C4B29474  19.019   0.269  13.336  0.0417  0.0233 -0.2246
24250DOPA   PO429475  14.833   4.745  14.724 -0.1137  0.1711  0.2484
24250DOPA   GL129476  14.725   4.803  14.336  0.4691 -0.0453 -0.0387
24250DOPA   GL229477  14.489   4.886  14.295 -0.1704 -0.0395 -0.0586
24250DOPA   C1A29478  14.730   4.794  13.901  0.4447  0.1560 -0.0279
24250DOPA   D2A29479  14.536   4.746  13.420 -0.0569  0.2868  0.1320
24250DOPA   C3A29480  14.259   5.125  13.199 -0.0728  0.2271 -0.0850
24250DOPA   C4A29481  14.241   5.595  13.317  0.1469  0.0015  0.1220
24250DOPA   C1B29482  14.727   5.217  14.081 -0.1685 -0.0774  0.0746
24250DOPA   D2B29483  15.096   5.529  13.856 -0.0788 -0.0548  0.0988
24250DOPA   C3B29484  15.265   5.500  13.456 -0.1277  0.1349 -0.0900
24250DOPA   C4B29485  15.415   5.419  12.962 -0.0654  0.2153 -0.0981
24251DOPA   PO429486  24.110   1.460  20.615 -0.2791 -0.2279 -0.2127
24251DOPA   GL129487  24.201   1.222  20.208 -0.0292  0.0448  0.0694
24251DOPA   GL229488  24.313   1.457  20.215  0.0168  0.0049 -0.6290
24251DOPA   C1A29489  24.224   1.366  19.774 -0.2103  0.4051 -0.1813
24251DOPA   D2A29490  24.318   1.359  19.286  0.3762  0.1391 -0.0283
24251DOPA   C3A29491  24.533   1.560  18.894 -0.3224 -0.0230  0.1514
24251DOPA   C4A29492  24.770   1.686  18.506  0.0570 -0.0960 -0.1544
24251DOPA   C1B29493  24.712   1.473  20.129  0.0997 -0.4784  0.0511
24251DOPA   D2B29494  25.090   1.610  19.763 -0.2363  0.1967 -0.0585
24251DOPA   C3B29495  25.350   1.547  19.422 -0.0629 -0.1917 -0.0795
24251DOPA   C4B29496  25.790   1.555  19.230  0.1406  0.0671  0.2288
24252DOPA   PO429497   6.581   2.708  22.423 -0.1755 -0.0252  0.4249
24252DOPA   GL129498   6.689   2.546  22.062 -0.2746 -0.2724 -0.1598
24252DOPA   GL229499   6.829   2.815  21.971 -0.0115  0.1291  0.1696
24252DOPA   C1A29500   6.454   2.403  21.692  0.0295 -0.1982 -0.2704
24252DOPA   D2A29501   6.129   2.231  21.360 -0.0897  0.1178 -0.3171
24252DOPA   C3A29502   6.179   2.137  20.920 -0.0990  0.0335 -0.0110
24252DOPA   C4A29503   6.282   2.233  20.435  0.1021 -0.0234 -0.2018
24252DOPA   C1B29504   7.080   2.941  21.569  0.1077  0.2320 -0.1632
24252DOPA   D2B29505   7.249   3.138  21.129  0.3138 -0.1136 -0.1172
24252DOPA   C3B29506   7.061   3.250  20.713  0.0603  0.0725 -0.0550
24252DOPA   C4B29507   6.793   3.511  20.359  0.1737 -0.1222 -0.0130
24253DOPA   PO429508  11.915   7.775  17.678  0.0920  0.0130  0.0350
24253DOPA   GL129509  11.494   7.788  17.562 -0.4028 -0.2148 -0.0148
24253DOPA   GL229510  11.459   7.594  17.411  0.1424  0.2315 -0.0318
24253DOPA   C1A29511  11.069   7.916  17.597  0.1753  0.0326 -0.1895
24253DOPA   D2A29512  10.559   8.079  17.580  0.3910 -0.2250 -0.2786
24253DOPA   C3A29513  10.116   7.947  17.389  0.1649  0.2075 -0.1100
24253DOPA   C4A29514   9.644   7.928  17.438 -0.1806 -0.0078  0.0045
24253DOPA   C1B29515  11.035   7.544  17.276  0.2129  0.1120  0.1684
24253DOPA   D2B29516  10.689   7.345  17.047 -0.1818  0.0377  0.0963
24253DOPA   C3B29517  10.533   6.957  16.897  0.0392 -0.0248 -0.0551
24253DOPA   C4B29518  10.392   6.482  16.865  0.0323  0.1276 -0.0150
24254DOPA   PO429519   9.660   1.440  20.341  0.1093 -0.0718  0.0110
24254DOPA   GL129520   9.311   1.461  20.143 -0.0816 -0.1711 -0.2320
24254DOPA   GL229521   9.341   1.500  19.918 -0.1508 -0.0755  0.4797
24254DOPA   C1A29522   8.925   1.436  20.277  0.1447  0.0063  0.0513
24254DOPA   D2A29523   8.505   1.479  20.478  0.1825 -0.0616  0.0425
24254DOPA   C3A29524   8.044   1.561  20.499 -0.0880  0.0690 -0.3360
24254DOPA   C4A29525   7.548   1.439  20.389 -0.1463 -0.1783 -0.0331
24254DOPA   C1B29526   9.024   1.646  19.672  0.1520  0.2538 -0.2262
24254DOPA   D2B29527   8.507   1.680  19.566  0.0858 -0.0847  0.4344
24254DOPA   C3B29528   8.311   1.833  19.126  0.1567 -0.0842  0.0945
24254DOPA   C4B29529   8.271   2.182  18.817  0.0981 -0.2303 -0.0623
24255DOPA   PO429530   4.543   7.632  22.486  0.0025 -0.0469  0.1876
24255DOPA   GL129531   4.455   7.845  22.117 -0.1269  0.2415 -0.0816
24255DOPA   GL229532   4.336   7.562  22.071  0.0647 -0.2141 -0.1824
24255DOPA   C1A29533   4.581   7.830  21.740 -0.0846  0.1170 -0.1280
24255DOPA   D2A29534   4.588   7.674  21.280  0.0934 -0.0518 -0.1725
24255DOPA   C3A29535   4.842   7.614  20.882  0.0213 -0.0434  0.0644
24255DOPA   C4A29536   4.982   7.437  20.444  0.0465 -0.0804  0.1742
24255DOPA   C1B29537   4.353   7.384  21.688  0.1287  0.2651  0.0725
24255DOPA   D2B29538   4.242   7.212  21.229  0.1925  0.2355  0.1708
24255DOPA   C3B29539   4.417   6.836  20.952 -0.1253 -0.2593 -0.1191
24255DOPA   C4B29540   4.311   6.505  20.657 -0.0790 -0.1835 -0.2477
24256DOPA   PO429541  22.257   3.915  19.012  0.2498  0.0224  0.2154
24256DOPA   GL129542  22.243   3.957  18.593  0.4586  0.1342  0.0361
24256DOPA   GL229543  22.315   4.231  18.547 -0.4738 -0.0605 -0.1254
24256DOPA   C1A29544  22.486   3.672  18.366  0.0454 -0.2505 -0.0914
24256DOPA   D2A29545  22.924   3.598  18.047 -0.0575  0.1621  0.0342
24256DOPA   C3A29546  23.364   3.747  17.873  0.1330  0.0705 -0.0597
24256DOPA   C4A29547  23.514   4.250  17.843 -0.3133 -0.3034 -0.1257
24256DOPA   C1B29548  22.742   4.231  18.620 -0.1034  0.0812  0.2539
24256DOPA   D2B29549  22.931   3.832  18.431 -0.1095  0.0636 -0.1119
24256DOPA   C3B29550  23.374   3.622  18.384  0.1244  0.0959 -0.1875
24256DOPA   C4B29551  23.437   3.464  18.845  0.3168  0.0619  0.0780
24257DOPA   PO429552  13.682   4.844  15.397  0.0895  0.0833  0.1514
24257DOPA   GL129553  13.540   4.815  14.992  0.1244 -0.0372 -0.0424
24257DOPA   GL229554  13.493   5.104  15.015  0.0513  0.0175 -0.1696
24257DOPA   C1A29555  13.174   4.570  14.895 -0.0084  0.0324  0.0221
24257DOPA   D2A29556  12.772   4.297  14.880 -0.3241  0.0739 -0.0783
24257DOPA   C3A29557  12.302   4.358  14.904 -0.0570  0.0710  0.0763
24257DOPA   C4A29558  11.955   4.692  14.907  0.2661 -0.1624 -0.1764
24257DOPA   C1B29559  13.345   5.362  14.656 -0.0053 -0.0109  0.0008
24257DOPA   D2B29560  13.175   5.615  14.294 -0.2400  0.2705  0.2963
24257DOPA   C3B29561  12.998   5.635  13.917 -0.0237  0.1162  0.0558
24257DOPA   C4B29562  13.033   5.630  13.447 -0.1596 -0.3380  0.2537
24258DOPA   PO429563  11.246   7.414  18.989 -0.2690 -0.1010 -0.3323
24258DOPA   GL129564  10.916   7.311  18.903  0.0226  0.0628  0.1500
24258DOPA   GL229565  10.955   7.269  18.564 -0.2000  0.1742  0.2514
24258DOPA   C1A29566  10.442   7.464  18.760 -0.1285  0.2374 -0.3888
24258DOPA   D2A29567   9.931   7.566  18.773 -0.0089  0.0321  0.0090
24258DOPA   C3A29568   9.512   7.545  18.978  0.0970 -0.1964 -0.5257
24258DOPA   C4A29569   9.048   7.493  19.124  0.1940 -0.0356  0.1148
24258DOPA   C1B29570  10.833   7.535  18.255  0.2697  0.1151  0.1925
24258DOPA   D2B29571  10.710   7.685  17.858  0.1334 -0.0911  0.0471
24258DOPA   C3B29572  10.504   7.593  17.423 -0.0600  0.0437 -0.0432
24258DOPA   C4B29573  10.335   7.672  16.996 -0.2305 -0.0400  0.2145
24259DOPA   PO429574  19.911   4.520  16.405  0.2058  0.2882  0.0268
24259DOPA   GL129575  20.128   4.559  16.083  0.2941  0.3820  0.1431
24259DOPA   GL229576  19.980   4.692  15.884 -0.1402 -0.3019 -0.0512
24259DOPA   C1A29577  20.525   4.291  16.066 -0.2384 -0.1976 -0.2525
24259DOPA   D2A29578  20.836   3.873  15.873  0.0117  0.1461  0.1475
24259DOPA   C3A29579  21.044   3.812  15.476  0.2598  0.0829 -0.1133
24259DOPA   C4A29580  21.139   3.666  15.032 -0.1466 -0.0422  0.1544
24259DOPA   C1B29581  20.119   4.618  15.485  0.2057 -0.3049 -0.0781
24259DOPA   D2B29582  20.336   4.843  15.057  0.2006 -0.0721 -0.1849
24259DOPA   C3B29583  20.770   4.849  14.912  0.1261  0.3258 -0.0795
24259DOPA   C4B29584  21.190   5.023  15.007  0.1119 -0.2694 -0.2562
24260DOPA   PO429585  12.342   0.588  16.169 -0.1946  0.0247 -0.1463
24260DOPA   GL129586  12.010   0.589  15.973 -0.0116 -0.7165  0.2784
24260DOPA   GL229587  11.866   0.607  16.202 -0.0172 -0.0364  0.0325
24260DOPA   C1A29588  12.055   0.714  15.520  0.1218  0.4845  0.2339
24260DOPA   D2A29589  11.957   0.713  15.064  0.1035  0.0394 -0.0564
24260DOPA   C3A29590  11.636   0.875  14.741 -0.3230 -0.3157 -0.2580
24260DOPA   C4A29591  11.301   0.995  14.513  0.3117  0.0203  0.0783
24260DOPA   C1B29592  11.521   0.398  16.100 -0.1332 -0.2542 -0.3901
24260DOPA   D2B29593  11.268   0.079  15.947 -0.1957  0.3323  0.3964
24260DOPA   C3B29594  11.014   0.349  15.736 -0.4084  0.0916  0.1432
24260DOPA   C4B29595  11.088   0.796  15.494  0.0020  0.0877  0.1092
24261DOPA   PO429596  20.133   7.180  16.873 -0.1788 -0.1094 -0.2743
24261DOPA   GL129597  20.321   7.091  16.454 -0.2732 -0.3488  0.0656
24261DOPA   GL229598  20.239   7.343  16.343 -0.2372 -0.0029  0.1084
24261DOPA   C1A29599  20.743   7.033  16.340 -0.2047  0.1483  0.1037
24261DOPA   D2A29600  21.205   6.919  16.191 -0.0073 -0.0813  0.1470
24261DOPA   C3A29601  21.360   6.541  16.460  0.2152 -0.1879 -0.0216
24261DOPA   C4A29602  21.515   6.302  16.951  0.4353  0.1887  0.3039
24261DOPA   C1B29603  20.506   7.533  16.085  0.0059 -0.1664  0.0677
24261DOPA   D2B29604  20.864   7.659  15.791 -0.1948  0.3221 -0.1814
24261DOPA   C3B29605  20.995   7.340  15.445  0.1419 -0.0972 -0.0321
24261DOPA   C4B29606  21.313   7.396  15.031  0.0969 -0.2014 -0.1112
24262DOPA   PO429607  10.559   3.475  19.519 -0.1867 -0.0750  0.2284
24262DOPA   GL129608  10.164   3.502  19.380 -0.2862  0.1314  0.2921
24262DOPA   GL229609  10.209   3.726  19.214  0.0419 -0.1865 -0.1381
24262DOPA   C1A29610   9.737   3.446  19.146 -0.0504 -0.1547  0.1751
24262DOPA   D2A29611   9.383   3.693  18.823  0.0480 -0.0421  0.1391
24262DOPA   C3A29612   8.987   3.622  18.562 -0.2057  0.1017 -0.2035
24262DOPA   C4A29613   8.506   3.679  18.419 -0.3023 -0.1505  0.4579
24262DOPA   C1B29614  10.096   3.496  18.823 -0.0775  0.0283 -0.2374
24262DOPA   D2B29615  10.122   3.059  18.579  0.0019  0.0046 -0.0750
24262DOPA   C3B29616  10.006   2.986  18.131 -0.3892  0.2026 -0.0073
24262DOPA   C4B29617   9.707   2.814  17.774 -0.0631  0.1084 -0.2784
24263DOPA   PO429618  22.344   0.921  19.403 -0.5034  0.0811 -0.0181
24263DOPA   GL129619  22.606   1.095  19.147  0.0747  0.1348 -0.1308
24263DOPA   GL229620  22.742   0.916  18.989 -0.3502  0.0588 -0.2147
24263DOPA   C1A29621  23.001   1.319  19.082 -0.0864 -0.3043 -0.2421
24263DOPA   D2A29622  23.494   1.263  18.883 -0.3576 -0.1050 -0.1215
24263DOPA   C3A29623  23.888   1.315  18.596  0.2631  0.1987  0.0797
24263DOPA   C4A29624  24.329   1.507  18.430 -0.0805 -0.0353 -0.3825
24263DOPA   C1B29625  23.140   0.974  18.682 -0.1811  0.0986  0.1307
24263DOPA   D2B29626  23.500   0.780  18.370 -0.1896  0.3526 -0.2157
24263DOPA   C3B29627  23.738   1.009  18.072 -0.3075  0.1793 -0.2038
24263DOPA   C4B29628  23.793   1.361  17.766  0.2571  0.1999  0.1618
24264DOPA   PO429629  12.746   7.581  16.436 -0.0252 -0.1716  0.2937
24264DOPA   GL129630  12.377   7.517  16.260 -0.1839 -0.1539  0.1514
24264DOPA   GL229631  12.256   7.514  16.516 -0.0838  0.4904 -0.2788
24264DOPA   C1A29632  12.117   7.667  15.986  0.1309  0.2063 -0.2971
24264DOPA   D2A29633  12.021   8.048  15.670  0.1096 -0.0461 -0.0488
24264DOPA   C3A29634  11.639   7.806  15.559 -0.0241 -0.0792 -0.2067
24264DOPA   C4A29635  11.228   7.507  15.611 -0.0517 -0.3698 -0.1343
24264DOPA   C1B29636  11.887   7.437  16.363  0.1439  0.2998  0.2583
24264DOPA   D2B29637  11.468   7.403  16.098 -0.2747  0.0557 -0.0112
24264DOPA   C3B29638  11.054   7.195  16.290 -0.5867  0.2477 -0.1129
24264DOPA   C4B29639  10.946   7.002  16.720  0.0367 -0.0253  0.0221
24265DOPC   NC329640  12.188   1.173  11.547 -0.1885 -0.0194 -0.1614
24265DOPC   PO429641  12.235   1.531  11.428 -0.1969 -0.1861  0.1322
24265DOPC   GL129642  12.390   1.733  11.716  0.1330  0.2493 -0.2428
24265DOPC   GL229643  12.214   1.571  11.863  0.6365 -0.0086 -0.2969
24265DOPC   C1A29644  12.828   1.835  11.766  0.2987  0.2007 -0.0907
24265DOPC   D2A29645  13.337   1.951  11.770  0.3193 -0.1874  0.0647
24265DOPC   C3A29646  13.421   2.216  12.139 -0.0641  0.1276  0.0805
24265DOPC   C4A29647  13.579   2.482  12.497 -0.1672 -0.2128 -0.2612
24265DOPC   C1B29648  12.190   1.636  12.294  0.0691  0.0562  0.1564
24265DOPC   D2B29649  12.250   1.981  12.649  0.2710  0.1436  0.0360
24265DOPC   C3B29650  12.436   2.404  12.565 -0.1979  0.2175  0.1122
24265DOPC   C4B29651  12.611   2.884  12.419  0.1570 -0.0899 -0.2189
24266DOPC   NC329652   6.644   6.187  18.202  0.0330  0.2900 -0.0542
24266DOPC   PO429653   6.497   5.899  18.423  0.1163  0.0313  0.1056
24266DOPC   GL129654   6.726   5.934  18.739  0.0161  0.0427  0.1090
24266DOPC   GL229655   6.930   6.014  18.570  0.0621  0.2356 -0.3522
24266DOPC   C1A29656   6.693   5.904  19.219  0.2708 -0.0365 -0.0001
24266DOPC   D2A29657   6.892   5.833  19.641 -0.1088  0.0092 -0.1149
24266DOPC   C3A29658   7.148   5.524  19.900  0.0338 -0.0673 -0.2187
24266DOPC   C4A29659   7.428   5.345  20.289  0.2780 -0.0956 -0.2048
24266DOPC   C1B29660   7.330   6.012  18.679  0.2123  0.1756  0.1106
24266DOPC   D2B29661   7.787   5.949  18.988  0.0704 -0.0979  0.2607
24266DOPC   C3B29662   7.740   5.710  19.395 -0.0626 -0.1524 -0.1833
24266DOPC   C4B29663   7.709   5.510  19.860 -0.0903  0.1318  0.0102
24267DOPC   NC329664  23.883   5.526  14.564  0.4916  0.0324 -0.1708
24267DOPC   PO429665  23.576   5.631  14.782  0.1265 -0.0408 -0.1074
24267DOPC   GL129666  23.353   5.416  15.034  0.0291 -0.3117 -0.0196
24267DOPC   GL229667  23.470   5.551  15.219 -0.4053 -0.0158 -0.2133
24267DOPC   C1A29668  23.037   5.124  15.088  0.4350  0.1961  0.0725
24267DOPC   D2A29669  22.604   4.909  15.195 -0.1702 -0.1785 -0.0200
24267DOPC   C3A29670  22.368   4.919  15.587  0.0473 -0.0114 -0.0494
24267DOPC   C4A29671  22.198   4.863  16.019 -0.3527  0.1522  0.3821
24267DOPC   C1B29672  23.193   5.793  15.229  0.2201  0.0387  0.0077
24267DOPC   D2B29673  22.716   6.027  15.261  0.3360 -0.1685  0.1699
24267DOPC   C3B29674  22.222   5.874  15.225 -0.1596 -0.2402  0.1460
24267DOPC   C4B29675  21.771   5.904  15.324  0.0538 -0.2304  0.2552
24268DOPC   NC329676  21.840   7.113  13.007  0.0856  0.0762 -0.1459
24268DOPC   PO429677  21.865   7.490  13.176  0.3328  0.0985 -0.1567
24268DOPC   GL129678  21.492   7.653  13.304  0.3194 -0.2007  0.0618
24268DOPC   GL229679  21.538   7.908  13.434  0.1863 -0.0053  0.0807
24268DOPC   C1A29680  21.154   7.538  13.550 -0.1366  0.2078  0.1895
24268DOPC   D2A29681  20.723   7.642  13.810 -0.3602 -0.1533  0.1154
24268DOPC   C3A29682  20.308   7.602  13.938  0.2154 -0.0679 -0.1398
24268DOPC   C4A29683  19.971   7.570  14.273  0.3218 -0.0816 -0.3271
24268DOPC   C1B29684  21.191   8.081  13.673 -0.0156  0.0279 -0.1171
24268DOPC   D2B29685  20.941   8.440  13.904 -0.2167  0.0748  0.1030
24268DOPC   C3B29686  21.007   8.465  14.378  0.0417  0.2152  0.0962
24268DOPC   C4B29687  21.029   8.583  14.867 -0.0023 -0.2906  0.2497
24269DOPC   NC329688   6.869   4.829  17.360  0.0560  0.0364 -0.1595
24269DOPC   PO429689   6.892   4.593  17.688 -0.0337  0.1727 -0.0309
24269DOPC   GL129690   7.276   4.530  17.862 -0.0136 -0.1413  0.2531
24269DOPC   GL229691   7.447   4.637  17.650  0.2313 -0.0970  0.0356
24269DOPC   C1A29692   7.506   4.389  18.259 -0.4615  0.0719 -0.1226
24269DOPC   D2A29693   7.726   4.059  18.580 -0.2084 -0.0598 -0.1024
24269DOPC   C3A29694   8.149   4.034  18.756 -0.0859  0.1151 -0.1164
24269DOPC   C4A29695   8.462   4.381  18.805  0.1075 -0.0680  0.0863
24269DOPC   C1B29696   7.804   4.663  17.695  0.0971  0.0432  0.0591
24269DOPC   D2B29697   8.272   4.797  17.710  0.1510 -0.1483  0.1229
24269DOPC   C3B29698   7.988   4.918  18.081 -0.2526  0.1548 -0.1830
24269DOPC   C4B29699   7.709   5.237  18.257  0.0121 -0.2099 -0.1490
24270DOPC   NC329700  24.551   6.736  14.827 -0.2688  0.0761 -0.0891
24270DOPC   PO429701  24.559   6.537  15.175 -0.1483  0.0351  0.2173
24270DOPC   GL129702  24.294   6.599  15.472 -0.0771  0.1013  0.0517
24270DOPC   GL229703  24.150   6.380  15.389  0.3196  0.1281  0.1720
24270DOPC   C1A29704  24.345   6.478  15.897 -0.0418  0.3253 -0.2312
24270DOPC   D2A29705  24.460   6.679  16.389  0.0018  0.2875  0.0555
24270DOPC   C3A29706  24.593   6.666  16.804  0.0006 -0.1912 -0.0217
24270DOPC   C4A29707  24.327   6.660  17.233  0.1594 -0.0278  0.0577
24270DOPC   C1B29708  23.887   6.256  15.713  0.0978  0.0612  0.0328
24270DOPC   D2B29709  23.619   6.003  16.043 -0.1132  0.4184 -0.1799
24270DOPC   C3B29710  23.258   6.275  16.152  0.2812  0.3171 -0.2498
24270DOPC   C4B29711  22.913   6.602  16.180  0.0503 -0.0436 -0.1925
24271DOPC   NC329712  23.851   1.971  14.497 -0.1926 -0.5278  0.0065
24271DOPC   PO429713  24.082   2.233  14.648  0.1382  0.3875 -0.0324
24271DOPC   GL129714  24.028   2.397  14.965  0.1130  0.0018  0.0007
24271DOPC   GL229715  24.014   2.694  14.912 -0.1078  0.2077 -0.0019
24271DOPC   C1A29716  23.766   2.380  15.361  0.1548 -0.1472  0.2874
24271DOPC   D2A29717  23.603   2.455  15.826  0.0750  0.0575  0.1591
24271DOPC   C3A29718  23.305   2.546  16.183  0.1864  0.0868 -0.1533
24271DOPC   C4A29719  23.009   2.686  16.515  0.3647  0.1894  0.2272
24271DOPC   C1B29720  23.738   2.868  15.210 -0.0796  0.1921  0.1593
24271DOPC   D2B29721  23.370   3.067  15.535  0.3112  0.2200  0.1783
24271DOPC   C3B29722  23.069   3.370  15.280  0.0698 -0.0124 -0.1156
24271DOPC   C4B29723  22.661   3.445  14.980 -0.1151 -0.1322  0.0066
24272DOPC   NC329724   6.293   6.840  17.858  0.2114 -0.0197  0.1261
24272DOPC   PO429725   6.664   6.885  17.755  0.1986  0.1564  0.0930
24272DOPC   GL129726   7.025   7.110  17.797  0.2178  0.0611 -0.1672
24272DOPC   GL229727   6.904   7.227  18.050 -0.3530 -0.1782 -0.2829
24272DOPC   C1A29728   7.427   6.979  17.719  0.1494 -0.0419  0.0401
24272DOPC   D2A29729   7.862   6.783  17.861 -0.1966  0.1956  0.0235
24272DOPC   C3A29730   7.972   6.303  17.835  0.0785  0.1166  0.0973
24272DOPC   C4A29731   8.244   5.908  17.770  0.0638  0.1322 -0.2310
24272DOPC   C1B29732   6.830   6.983  18.436 -0.3153 -0.2133  0.0428
24272DOPC   D2B29733   6.928   6.815  18.921 -0.1637 -0.1170 -0.0367
24272DOPC   C3B29734   7.072   6.788  19.393  0.0327 -0.1850 -0.0148
24272DOPC   C4B29735   7.361   6.725  19.766  0.2581  0.2288  0.2873
24273DOPC   NC329736  22.781   3.715  13.859 -0.1216 -0.0083  0.0128
24273DOPC   PO429737  22.878   3.739  14.245  0.0563 -0.0740 -0.4281
24273DOPC   GL129738  22.626   3.579  14.549 -0.2157 -0.2052 -0.0720
24273DOPC   GL229739  22.641   3.335  14.429 -0.1690 -0.1179  0.5534
24273DOPC   C1A29740  22.243   3.584  14.751  0.1328 -0.1668 -0.1096
24273DOPC   D2A29741  22.040   3.278  15.132  0.2550  0.1200  0.2669
24273DOPC   C3A29742  21.921   3.081  14.731  0.1708  0.1528 -0.0008
24273DOPC   C4A29743  21.729   2.790  14.409 -0.0291 -0.2645  0.2933
24273DOPC   C1B29744  22.501   3.039  14.708  0.0810 -0.3780  0.0274
24273DOPC   D2B29745  22.199   2.745  14.896  0.0266  0.1491  0.0507
24273DOPC   C3B29746  21.741   2.665  14.949 -0.1124  0.0086  0.0195
24273DOPC   C4B29747  21.266   2.732  15.115  0.1780 -0.2858  0.1368
24274DOPC   NC329748   3.608   3.245  17.735  0.3856 -0.1615  0.1210
24274DOPC   PO429749   3.565   3.200  18.098  0.0923  0.2758  0.0226
24274DOPC   GL129750   3.258   3.145  18.473 -0.0487 -0.0282  0.2266
24274DOPC   GL229751   3.189   2.845  18.384  0.3195 -0.0155 -0.0864
24274DOPC   C1A29752   2.955   3.394  18.688  0.3752 -0.1286 -0.0375
24274DOPC   D2A29753   2.720   3.801  18.787  0.1345 -0.0230 -0.0346
24274DOPC   C3A29754   2.307   3.781  19.031 -0.0306  0.0514  0.0981
24274DOPC   C4A29755   2.011   3.590  19.386  0.2724 -0.1136 -0.0244
24274DOPC   C1B29756   2.881   2.853  18.678 -0.0324  0.1157  0.0836
24274DOPC   D2B29757   2.666   2.785  19.102  0.0387  0.5126  0.4172
24274DOPC   C3B29758   2.419   2.630  19.449  0.1315 -0.1921 -0.1979
24274DOPC   C4B29759   2.056   2.279  19.643 -0.0692  0.0572  0.0856
24275DOPC   NC329760   7.440   6.866  17.092 -0.0454 -0.0884 -0.1249
24275DOPC   PO429761   7.720   6.919  16.824  0.1265  0.0889  0.1221
24275DOPC   GL129762   8.079   7.087  16.908 -0.1267  0.0977  0.1886
24275DOPC   GL229763   7.981   7.212  17.079 -0.0604 -0.3477  0.0153
24275DOPC   C1A29764   8.496   7.052  17.125 -0.2702 -0.3161  0.0033
24275DOPC   D2A29765   8.810   6.936  17.475 -0.1057 -0.1233  0.1436
24275DOPC   C3A29766   9.242   6.674  17.501 -0.3373 -0.0108 -0.1819
24275DOPC   C4A29767   9.655   6.427  17.575  0.0154 -0.1213  0.3661
24275DOPC   C1B29768   8.056   7.064  17.438  0.0168  0.3019  0.0591
24275DOPC   D2B29769   8.365   6.942  17.815  0.3494 -0.0100  0.0883
24275DOPC   C3B29770   8.821   6.907  17.979  0.2226 -0.0322 -0.0284
24275DOPC   C4B29771   9.242   6.612  18.062 -0.1020 -0.3802  0.0083
24276DOPC   NC329772  11.673   2.686  11.786 -0.0992 -0.0166  0.0425
24276DOPC   PO429773  11.770   2.341  11.890  0.0128  0.0716 -0.2490
24276DOPC   GL129774  12.106   2.452  12.128 -0.1807 -0.2268 -0.2696
24276DOPC   GL229775  12.166   2.105  12.115 -0.1701  0.2297  0.0757
24276DOPC   C1A29776  12.515   2.533  12.060 -0.0220  0.0575 -0.0721
24276DOPC   D2A29777  13.036   2.679  12.205  0.1823  0.2597 -0.1385
24276DOPC   C3A29778  13.185   2.847  12.632  0.1242  0.0444 -0.0642
24276DOPC   C4A29779  13.547   2.811  12.941 -0.1082  0.0899 -0.0563
24276DOPC   C1B29780  12.555   2.007  12.246  0.2115 -0.0324 -0.2415
24276DOPC   D2B29781  13.034   1.750  12.302  0.0642  0.1139  0.0938
24276DOPC   C3B29782  13.367   1.520  12.059  0.0802 -0.0791 -0.1339
24276DOPC   C4B29783  13.334   1.380  11.567  0.0682 -0.2674  0.0500
24277DOPC   NC329784  19.403   6.443  11.308  0.0541 -0.0287  0.0088
24277DOPC   PO429785  19.091   6.357  11.157  0.0371 -0.0055 -0.2094
24277DOPC   GL129786  18.764   6.104  11.317  0.2212 -0.1256 -0.0507
24277DOPC   GL229787  18.797   5.841  11.362  0.0559 -0.3363 -0.2729
24277DOPC   C1A29788  18.452   6.292  11.459  0.1403 -0.0662 -0.2149
24277DOPC   D2A29789  18.545   6.663  11.820  0.0077 -0.3014 -0.1173
24277DOPC   C3A29790  18.365   6.752  12.219 -0.2351 -0.2500 -0.0679
24277DOPC   C4A29791  18.092   6.646  12.681 -0.1561 -0.0400 -0.1493
24277DOPC   C1B29792  18.571   5.798  11.776 -0.0148  0.1450  0.1075
24277DOPC   D2B29793  18.448   5.411  12.097 -0.0391  0.1678 -0.2128
24277DOPC   C3B29794  18.429   4.996  11.866  0.0380  0.0651 -0.0914
24277DOPC   C4B29795  18.344   4.821  11.423 -0.0507  0.2167  0.0754
24278DOPC   NC329796  10.758   4.702  12.903  0.0867 -0.0143 -0.1141
24278DOPC   PO429797  10.499   4.956  13.033  0.2262 -0.1964 -0.0606
24278DOPC   GL129798  10.819   4.973  13.416 -0.0020  0.3028 -0.2719
24278DOPC   GL229799  10.613   4.815  13.474 -0.0892 -0.0618 -0.1830
24278DOPC   C1A29800  11.120   4.745  13.593  0.1596 -0.0452 -0.2826
24278DOPC   D2A29801  11.313   4.465  13.948  0.1033  0.2236  0.1255
24278DOPC   C3A29802  11.758   4.277  14.097 -0.2472 -0.0339 -0.2845
24278DOPC   C4A29803  12.062   3.951  14.329 -0.1366 -0.4569  0.0212
24278DOPC   C1B29804  10.661   4.601  13.825 -0.0656 -0.1852  0.0772
24278DOPC   D2B29805  10.827   4.549  14.241 -0.2377  0.1292  0.1027
24278DOPC   C3B29806  11.108   4.233  14.387  0.0172 -0.0449 -0.0207
24278DOPC   C4B29807  11.511   3.917  14.252 -0.0368  0.1599  0.4304
24279DOPC   NC329808  16.246   5.791  10.517 -0.0910  0.2094  0.0682
24279DOPC   PO429809  16.363   6.078  10.333  0.0380 -0.1582 -0.2113
24279DOPC   GL129810  16.266   6.253  10.711  0.0498  0.5075  0.1134
24279DOPC   GL229811  16.288   6.045  10.846 -0.1092  0.0318  0.0390
24279DOPC   C1A29812  16.388   6.643  10.932 -0.3173  0.1163  0.1280
24279DOPC   D2A29813  16.664   6.859  11.276  0.1805  0.0643  0.2926
24279DOPC   C3A29814  16.908   6.855  11.645  0.1990 -0.1120  0.0757
24279DOPC   C4A29815  16.818   6.671  12.140 -0.1872 -0.1544 -0.0115
24279DOPC   C1B29816  16.237   6.137  11.293  0.1176 -0.0217 -0.3868
24279DOPC   D2B29817  16.223   6.158  11.755 -0.2215 -0.1900 -0.1323
24279DOPC   C3B29818  16.316   6.514  12.027 -0.1487 -0.0482  0.2868
24279DOPC   C4B29819  16.155   6.666  12.448 -0.0518  0.1184  0.1345
24280DOPC   NC329820   9.979   5.260  13.812 -0.1556  0.2940 -0.1932
24280DOPC   PO429821  10.018   5.618  13.702  0.1211  0.1513  0.0412
24280DOPC   GL129822  10.224   5.684  13.994 -0.3334  0.1939 -0.0116
24280DOPC   GL229823  10.461   5.518  13.891 -0.2341  0.0159 -0.1798
24280DOPC   C1A29824  10.184   5.811  14.427 -0.2714 -0.2674 -0.0629
24280DOPC   D2A29825  10.078   5.969  14.862 -0.0785  0.2073 -0.3931
24280DOPC   C3A29826  10.158   5.764  15.291  0.0777  0.2041 -0.1169
24280DOPC   C4A29827  10.368   5.612  15.720  0.1511  0.0815  0.0630
24280DOPC   C1B29828  10.745   5.525  14.210 -0.0160  0.1459  0.7061
24280DOPC   D2B29829  11.238   5.418  14.401 -0.1832 -0.0256 -0.0282
24280DOPC   C3B29830  11.237   5.038  14.748  0.1783  0.1583  0.1782
24280DOPC   C4B29831  11.319   4.616  14.751  0.1094  0.1426 -0.1876
24281DOPC   NC329832  23.441   7.692  14.058  0.1368  0.0783 -0.1581
24281DOPC   PO429833  23.515   7.361  14.240  0.0171  0.1469 -0.4605
24281DOPC   GL129834  23.307   7.228  14.565 -0.0691 -0.0466  0.3656
24281DOPC   GL229835  23.081   7.137  14.364 -0.0600  0.0181 -0.1478
24281DOPC   C1A29836  23.401   7.277  15.014 -0.0213 -0.2242  0.1741
24281DOPC   D2A29837  23.314   7.545  15.373 -0.0284 -0.1187  0.1188
24281DOPC   C3A29838  23.023   7.568  15.658  0.0305  0.1963  0.0222
24281DOPC   C4A29839  22.652   7.393  15.934  0.0518  0.0470 -0.0531
24281DOPC   C1B29840  22.622   7.079  14.474  0.2456 -0.1559 -0.0496
24281DOPC   D2B29841  22.375   7.102  14.937 -0.1746  0.0757  0.0255
24281DOPC   C3B29842  22.164   6.951  15.336  0.0089 -0.1958  0.0137
24281DOPC   C4B29843  21.827   6.863  15.653 -0.1354  0.1810 -0.0170
24282DOPC   NC329844  22.738   5.827  13.755  0.1450 -0.1442  0.2426
24282DOPC   PO429845  22.583   6.218  13.749 -0.0353  0.0352 -0.0390
24282DOPC   GL129846  22.284   6.295  14.026 -0.2079  0.3727 -0.0443
24282DOPC   GL229847  22.000   6.203  13.878 -0.0227  0.4295  0.0733
24282DOPC   C1A29848  22.191   6.365  14.415 -0.2540  0.0772  0.0874
24282DOPC   D2A29849  22.065   6.676  14.836 -0.0232  0.1939 -0.1985
24282DOPC   C3A29850  21.903   6.532  15.228 -0.2292 -0.0349 -0.0667
24282DOPC   C4A29851  21.889   6.339  15.694 -0.0760  0.0852 -0.0482
24282DOPC   C1B29852  21.764   6.087  14.263  0.1596  0.2516 -0.0467
24282DOPC   D2B29853  21.357   5.978  14.543 -0.5785 -0.0436  0.1427
24282DOPC   C3B29854  21.189   5.564  14.575 -0.1429  0.0891  0.1133
24282DOPC   C4B29855  20.986   5.110  14.490  0.1028  0.2419  0.0917
24283DOPC   NC329856   1.741   7.296  17.397 -0.2443 -0.2815 -0.1209
24283DOPC   PO429857   1.791   6.905  17.423 -0.1780  0.0044  0.1343
24283DOPC   GL129858   1.601   6.569  17.609 -0.1687  0.0340 -0.2389
24283DOPC   GL229859   1.876   6.556  17.760 -0.1415 -0.1252 -0.1128
24283DOPC   C1A29860   1.203   6.535  17.819 -0.0145 -0.0732  0.2895
24283DOPC   D2A29861   0.719   6.610  18.003 -0.0443  0.1004  0.0017
24283DOPC   C3A29862   0.711   6.551  18.385  0.0284 -0.0102  0.0141
24283DOPC   C4A29863   0.791   6.533  18.876  0.0285 -0.1933 -0.0428
24283DOPC   C1B29864   1.599   6.681  18.095  0.0013  0.2343  0.1191
24283DOPC   D2B29865   1.231   6.567  18.439  0.3617 -0.0812  0.0263
24283DOPC   C3B29866   1.075   6.162  18.580 -0.0524  0.1932 -0.1300
24283DOPC   C4B29867   0.742   5.854  18.769  0.0624 -0.2692  0.2897
24284DOPC   NC329868   7.667   1.723  16.131 -0.1344 -0.1065 -0.2844
24284DOPC   PO429869   7.582   1.555  16.435  0.0652  0.0614 -0.0733
24284DOPC   GL129870   7.807   1.646  16.707 -0.3106  0.4128 -0.4359
24284DOPC   GL229871   7.785   1.945  16.566  0.0647  0.0038 -0.1153
24284DOPC   C1A29872   8.147   1.690  17.010  0.0471  0.3131  0.3054
24284DOPC   D2A29873   8.366   1.966  17.349  0.0780 -0.2398 -0.0932
24284DOPC   C3A29874   8.732   1.919  17.593 -0.1250 -0.3214 -0.1263
24284DOPC   C4A29875   8.801   2.254  17.903 -0.3310 -0.0700  0.1745
24284DOPC   C1B29876   8.129   2.126  16.559  0.0613  0.1220 -0.0879
24284DOPC   D2B29877   8.567   2.168  16.407  0.1027 -0.2607  0.1421
24284DOPC   C3B29878   8.930   2.076  16.626 -0.0712 -0.1512  0.1226
24284DOPC   C4B29879   9.298   1.876  16.813 -0.0720  0.1868  0.2139
24285DOPC   NC329880   7.684   3.628  16.541  0.0076 -0.0979  0.1171
24285DOPC   PO429881   7.477   3.978  16.638 -0.0229 -0.0155  0.0129
24285DOPC   GL129882   7.607   4.103  17.049  0.3025 -0.4523 -0.3153
24285DOPC   GL229883   7.748   4.257  16.941 -0.0523 -0.1881 -0.2246
24285DOPC   C1A29884   7.781   3.861  17.442  0.2710  0.1351  0.0832
24285DOPC   D2A29885   7.882   3.680  17.869 -0.0370 -0.0126  0.0769
24285DOPC   C3A29886   7.978   3.911  18.181  0.1345  0.1133  0.2439
24285DOPC   C4A29887   8.373   4.158  18.363 -0.3644  0.0060 -0.2410
24285DOPC   C1B29888   8.214   4.198  16.953  0.1038  0.0293 -0.0101
24285DOPC   D2B29889   8.637   3.993  17.086 -0.2154  0.0783  0.0201
24285DOPC   C3B29890   8.437   3.862  17.474  0.1219 -0.1401  0.0737
24285DOPC   C4B29891   8.382   3.762  17.959  0.0641 -0.1681  0.3931
24286DOPC   NC329892   4.144   4.058  18.482 -0.0848  0.0474  0.0608
24286DOPC   PO429893   4.405   3.924  18.795 -0.1989 -0.2293 -0.1254
24286DOPC   GL129894   4.437   3.681  19.114  0.1656  0.3514  0.0230
24286DOPC   GL229895   4.221   3.565  19.069  0.1788  0.0647  0.3746
24286DOPC   C1A29896   4.424   3.988  19.458  0.0706  0.0671  0.2210
24286DOPC   D2A29897   4.249   4.230  19.900 -0.1557 -0.4482 -0.0134
24286DOPC   C3A29898   4.045   4.161  20.311 -0.0745 -0.2014  0.1264
24286DOPC   C4A29899   4.075   4.083  20.815  0.1792  0.2157  0.1708
24286DOPC   C1B29900   4.020   3.626  19.456  0.0961  0.2258  0.4017
24286DOPC   D2B29901   3.680   3.943  19.598 -0.0555  0.0939 -0.1358
24286DOPC   C3B29902   3.376   4.261  19.476  0.0634  0.0563  0.1236
24286DOPC   C4B29903   2.989   4.528  19.409 -0.1029 -0.0015 -0.1372
24287DOPC   NC329904   9.905   4.318  13.864  0.1588  0.0907  0.0889
24287DOPC   PO429905   9.538   4.527  13.921 -0.2420  0.1941 -0.1474
24287DOPC   GL129906   9.636   4.412  14.289 -0.4127  0.0842 -0.0103
24287DOPC   GL229907   9.843   4.599  14.239 -0.3531  0.1274  0.2485
24287DOPC   C1A29908   9.876   4.422  14.689 -0.0581  0.0119  0.1689
24287DOPC   D2A29909  10.234   4.458  15.025  0.2701  0.1441  0.3987
24287DOPC   C3A29910  10.634   4.576  15.180  0.0989 -0.4233 -0.0258
24287DOPC   C4A29911  11.117   4.569  15.399  0.0168  0.1957  0.1279
24287DOPC   C1B29912  10.250   4.441  14.295 -0.1265 -0.0426 -0.1048
24287DOPC   D2B29913  10.548   4.507  14.673  0.3214 -0.1600  0.0889
24287DOPC   C3B29914  10.951   4.273  14.868 -0.2630  0.1946 -0.2071
24287DOPC   C4B29915  11.416   4.145  15.003 -0.1657 -0.4236  0.3366
24288DOPC   NC329916   2.989   2.078  18.124 -0.2932  0.1833 -0.0363
24288DOPC   PO429917   3.170   1.898  18.411 -0.0965 -0.1058 -0.1764
24288DOPC   GL129918   3.239   2.068  18.769 -0.0301 -0.0581 -0.0543
24288DOPC   GL229919   2.962   1.913  18.840 -0.0499 -0.0252  0.2433
24288DOPC   C1A29920   3.177   2.522  18.861  0.0516  0.1711 -0.1691
24288DOPC   D2A29921   3.100   2.710  19.292 -0.0530  0.1246  0.1171
24288DOPC   C3A29922   2.873   2.651  19.720 -0.0112 -0.1811  0.1755
24288DOPC   C4A29923   2.509   2.556  19.992  0.1662 -0.2684 -0.1424
24288DOPC   C1B29924   2.940   1.875  19.291  0.2480  0.1307 -0.2007
24288DOPC   D2B29925   3.256   1.853  19.673  0.2186 -0.2526  0.3179
24288DOPC   C3B29926   3.420   2.257  19.967  0.1485  0.0217 -0.3215
24288DOPC   C4B29927   3.494   2.717  20.169 -0.4046  0.0173 -0.0345
24289DOPC   NC329928  17.742   4.917  10.663  0.0522 -0.3664  0.0625
24289DOPC   PO429929  17.534   5.256  10.687  0.2356  0.2988  0.1641
24289DOPC   GL129930  17.380   5.342  11.158 -0.3280  0.3332 -0.2076
24289DOPC   GL229931  17.161   5.302  11.105  0.3113  0.1647  0.2256
24289DOPC   C1A29932  17.600   5.102  11.399  0.2103  0.1268  0.0915
24289DOPC   D2A29933  17.867   4.751  11.639  0.0681 -0.0320 -0.0848
24289DOPC   C3A29934  17.742   4.637  12.089 -0.1348  0.0749  0.0582
24289DOPC   C4A29935  17.866   4.323  12.500  0.0098  0.1264 -0.2290
24289DOPC   C1B29936  17.023   5.002  11.410 -0.1318  0.0378 -0.0074
24289DOPC   D2B29937  16.873   4.763  11.803  0.0129 -0.0879 -0.1640
24289DOPC   C3B29938  16.851   5.017  12.222  0.1105 -0.0808 -0.2278
24289DOPC   C4B29939  16.633   5.433  12.351 -0.0175  0.1529 -0.0166
24290DOPC   NC329940   4.834   6.211  18.032 -0.1619  0.1001  0.2673
24290DOPC   PO429941   4.577   6.023  18.270 -0.2471  0.0492  0.0120
24290DOPC   GL129942   4.787   5.833  18.678  0.1136  0.1609  0.0037
24290DOPC   GL229943   4.610   6.130  18.795 -0.3711  0.0211  0.0546
24290DOPC   C1A29944   4.428   5.651  18.990 -0.2614 -0.0007 -0.3009
24290DOPC   D2A29945   4.076   5.540  19.324 -0.0454  0.3718 -0.0444
24290DOPC   C3A29946   3.995   5.217  19.709 -0.1379 -0.1224  0.0000
24290DOPC   C4A29947   3.858   5.260  20.148  0.0029  0.0021 -0.1240
24290DOPC   C1B29948   4.691   6.338  19.205 -0.3030 -0.2495  0.1200
24290DOPC   D2B29949   4.896   6.477  19.708 -0.1445  0.1716  0.1734
24290DOPC   C3B29950   5.254   6.463  19.933  0.3579 -0.2722  0.1001
24290DOPC   C4B29951   5.716   6.224  19.923  0.0136 -0.0304  0.0092
24291DOPC   NC329952   3.474   0.593  18.365  0.1275 -0.0062  0.0725
24291DOPC   PO429953   3.157   0.468  18.589 -0.1450 -0.2177 -0.1600
24291DOPC   GL129954   3.012   0.286  19.000  0.2345  0.0479  0.0915
24291DOPC   GL229955   2.720   0.307  18.831 -0.1078  0.0499  0.1214
24291DOPC   C1A29956   3.010   0.426  19.405  0.0257 -0.2670 -0.2340
24291DOPC   D2A29957   3.110   0.700  19.776  0.3612  0.1513 -0.1791
24291DOPC   C3A29958   3.202   1.063  20.099  0.1434  0.1520  0.1724
24291DOPC   C4A29959   3.591   1.378  20.190 -0.1441 -0.0719 -0.0981
24291DOPC   C1B29960   2.560   0.471  19.175 -0.0169 -0.0828 -0.0791
24291DOPC   D2B29961   2.198   0.437  19.584 -0.0010  0.0202 -0.0509
24291DOPC   C3B29962   2.116   0.865  19.811  0.2601  0.0028 -0.0203
24291DOPC   C4B29963   2.239   1.304  20.073  0.0778 -0.0511 -0.3090
24292DOPC   NC329964  11.898   7.659  12.137 -0.0741  0.0392 -0.2150
24292DOPC   PO429965  11.811   7.274  12.108 -0.1720  0.2885 -0.1312
24292DOPC   GL129966  11.998   7.207  12.499  0.2262 -0.3134 -0.3437
24292DOPC   GL229967  11.839   7.132  12.676  0.1660 -0.1324 -0.4777
24292DOPC   C1A29968  12.307   7.496  12.608  0.0150 -0.1573 -0.1014
24292DOPC   D2A29969  12.793   7.628  12.741 -0.1713 -0.1368  0.0653
24292DOPC   C3A29970  13.097   7.337  12.938 -0.1154  0.3685 -0.3253
24292DOPC   C4A29971  13.188   6.906  13.180  0.0900 -0.0150 -0.0209
24292DOPC   C1B29972  12.153   7.050  12.944  0.0546 -0.0546 -0.0520
24292DOPC   D2B29973  12.390   7.001  13.412 -0.1758  0.1395  0.0688
24292DOPC   C3B29974  12.351   6.721  13.765 -0.1322 -0.0763 -0.1103
24292DOPC   C4B29975  12.076   6.346  13.820 -0.0294  0.2043  0.1454
24293DOPC   NC329976  17.547   0.830  10.276 -0.1299  0.1109 -0.3245
24293DOPC   PO429977  17.369   0.445  10.358  0.2643 -0.2481  0.0913
24293DOPC   GL129978  17.405   0.253  10.803 -0.2689  0.0618 -0.0661
24293DOPC   GL229979  17.162   0.302  10.860 -0.2894 -0.1350  0.0392
24293DOPC   C1A29980  17.580   0.222  11.181 -0.2553 -0.1637  0.0517
24293DOPC   D2A29981  17.968   0.120  11.450  0.0488  0.1178 -0.0429
24293DOPC   C3A29982  17.988   0.088  11.911 -0.0408  0.3036 -0.1985
24293DOPC   C4A29983  17.709   0.015  12.326 -0.0557  0.2027 -0.0780
24293DOPC   C1B29984  17.192   0.611  11.214  0.0697 -0.3343  0.0553
24293DOPC   D2B29985  17.333   0.991  11.544 -0.3185 -0.1713  0.1778
24293DOPC   C3B29986  17.635   0.962  11.901 -0.1119  0.0672 -0.4170
24293DOPC   C4B29987  17.821   0.945  12.418  0.0260  0.2846 -0.2183
24294DOPC   NC329988  18.785   5.487  10.938  0.0007  0.0139 -0.0355
24294DOPC   PO429989  18.945   5.416  11.295 -0.1372 -0.0949 -0.2962
24294DOPC   GL129990  18.972   5.195  11.621 -0.1715 -0.2356 -0.0775
24294DOPC   GL229991  19.291   5.221  11.680  0.3330  0.0497 -0.0222
24294DOPC   C1A29992  18.908   5.091  12.053 -0.2025  0.3012  0.1646
24294DOPC   D2A29993  18.670   4.887  12.417  0.3223  0.2875 -0.0616
24294DOPC   C3A29994  18.485   5.085  12.872 -0.0384 -0.0130  0.3672
24294DOPC   C4A29995  18.231   5.055  13.295  0.1394  0.5644 -0.2873
24294DOPC   C1B29996  19.436   5.310  12.031 -0.0679  0.3719 -0.1316
24294DOPC   D2B29997  19.318   5.513  12.441 -0.0489  0.3330 -0.1028
24294DOPC   C3B29998  19.405   5.228  12.820  0.2142 -0.1379 -0.1089
24294DOPC   C4B29999  19.152   5.215  13.285 -0.2169 -0.3670  0.0676
24295DOPC   NC330000   8.804   0.213  14.032  0.1213  0.0954 -0.0846
24295DOPC   PO430001   9.062  -0.069  14.146 -0.2326 -0.2004 -0.0747
24295DOPC   GL130002   9.132  -0.081  14.568  0.1883 -0.0474  0.3746
24295DOPC   GL230003   9.220  -0.295  14.668 -0.3601  0.1429 -0.3050
24295DOPC   C1A30004   9.468   0.135  14.793  0.0278 -0.0959 -0.1430
24295DOPC   D2A30005   9.871   0.266  15.025  0.1079  0.0362 -0.1397
24295DOPC   C3A30006  10.316   0.311  15.228 -0.0424 -0.1410 -0.0810
24295DOPC   C4A30007  10.813   0.461  15.286 -0.4598 -0.0437  0.0190
24295DOPC   C1B30008   9.698  -0.242  14.760  0.2238  0.1415  0.1834
24295DOPC   D2B30009  10.172  -0.184  14.875 -0.0155  0.0828 -0.0925
24295DOPC   C3B30010  10.452  -0.148  15.235 -0.2467  0.0002 -0.1797
24295DOPC   C4B30011  10.659   0.021  15.616 -0.0558 -0.4480 -0.1185
24296DOPC   NC330012  18.113   5.432  10.719  0.2010 -0.2046 -0.0521
24296DOPC   PO430013  18.360   5.275  10.990  0.0792  0.3437 -0.0207
24296DOPC   GL130014  18.031   5.320  11.322 -0.1371 -0.0113 -0.0863
24296DOPC   GL230015  17.870   5.341  11.113 -0.0704 -0.0375  0.5566
24296DOPC   C1A30016  17.968   5.307  11.748 -0.0177 -0.1394  0.0761
24296DOPC   D2A30017  18.024   5.103  12.236  0.0381 -0.1131  0.3269
24296DOPC   C3A30018  17.980   4.887  12.667 -0.2004  0.1686  0.0215
24296DOPC   C4A30019  17.894   4.696  13.106 -0.1677  0.0470 -0.0491
24296DOPC   C1B30020  17.676   5.613  11.394 -0.0063 -0.2676 -0.0019
24296DOPC   D2B30021  17.607   6.071  11.524  0.1670  0.0090  0.0872
24296DOPC   C3B30022  17.693   6.205  11.992 -0.2072 -0.0127 -0.2286
24296DOPC   C4B30023  17.571   6.459  12.452  0.0113  0.3726  0.1748
24297DOPC   NC330024   3.901   7.719  18.540 -0.1695 -0.0475  0.0264
24297DOPC   PO430025   3.594   7.932  18.496  0.0271  0.1228  0.2592
24297DOPC   GL130026   3.505   8.048  18.922 -0.0784 -0.1122  0.0888
24297DOPC   GL230027   3.754   8.095  18.972 -0.1427 -0.2742 -0.1475
24297DOPC   C1A30028   3.347   7.870  19.269 -0.1487 -0.0523 -0.0740
24297DOPC   D2A30029   3.288   7.770  19.694  0.1447  0.0167 -0.3031
24297DOPC   C3A30030   2.941   7.600  19.937  0.1388  0.0569 -0.1702
24297DOPC   C4A30031   2.441   7.465  20.090 -0.2491 -0.2798 -0.3156
24297DOPC   C1B30032   3.881   8.197  19.358 -0.0654 -0.0142 -0.1416
24297DOPC   D2B30033   4.184   8.223  19.720  0.0105 -0.2635 -0.0594
24297DOPC   C3B30034   4.351   7.915  20.075  0.1283 -0.3321  0.0057
24297DOPC   C4B30035   4.571   7.734  20.480  0.4264  0.0960  0.2012
24298DOPC   NC330036   2.277   0.488  17.689 -0.1760 -0.0649 -0.2250
24298DOPC   PO430037   2.039   0.737  17.856 -0.0377  0.1789  0.3326
24298DOPC   GL130038   1.838   0.727  18.166  0.0285 -0.1854  0.0670
24298DOPC   GL230039   1.809   0.994  18.316  0.0666  0.1521 -0.2027
24298DOPC   C1A30040   1.533   0.364  18.226  0.1685 -0.0175 -0.2181
24298DOPC   D2A30041   1.071   0.223  18.288 -0.2053  0.1308  0.1220
24298DOPC   C3A30042   0.887  -0.085  18.560  0.0902 -0.0813  0.0253
24298DOPC   C4A30043   0.503  -0.483  18.648  0.0451  0.2329 -0.0751
24298DOPC   C1B30044   1.502   1.175  18.593  0.1511  0.1117 -0.3746
24298DOPC   D2B30045   1.072   1.296  18.660 -0.0881  0.1552 -0.1799
24298DOPC   C3B30046   0.759   0.905  18.580 -0.4444  0.0253  0.0499
24298DOPC   C4B30047   0.370   0.650  18.715 -0.0258  0.2961 -0.1022
24299DOPC   NC330048   6.736   6.382  17.359  0.1916  0.2054 -0.0400
24299DOPC   PO430049   6.690   6.409  17.764  0.5797  0.1668 -0.0882
24299DOPC   GL130050   6.847   6.642  18.093  0.1928 -0.0876 -0.2173
24299DOPC   GL230051   7.013   6.458  18.207 -0.0601 -0.0387  0.1943
24299DOPC   C1A30052   7.229   6.908  18.178 -0.2015  0.0512  0.3319
24299DOPC   D2A30053   7.669   7.132  18.220 -0.0193 -0.0357 -0.0195
24299DOPC   C3A30054   8.071   6.867  18.320  0.1308 -0.1999  0.0711
24299DOPC   C4A30055   8.236   6.471  18.252  0.1076  0.3558  0.0607
24299DOPC   C1B30056   7.206   6.540  18.529  0.0932 -0.1622  0.1048
24299DOPC   D2B30057   7.367   6.567  19.000  0.0560 -0.2241  0.2969
24299DOPC   C3B30058   7.812   6.663  19.059 -0.3596 -0.1114  0.1058
24299DOPC   C4B30059   8.247   6.677  19.190 -0.2214 -0.0394  0.4230
24300DOPC   NC330060   9.692   2.669  13.282 -0.1062  0.0955  0.1862
24300DOPC   PO430061   9.487   2.997  13.181  0.1563 -0.1229 -0.0003
24300DOPC   GL130062   9.659   3.132  13.604 -0.0356  0.1373 -0.2566
24300DOPC   GL230063   9.906   3.038  13.413 -0.2840  0.2067  0.1351
24300DOPC   C1A30064   9.848   3.295  13.987 -0.1893  0.0049 -0.0921
24300DOPC   D2A30065   9.987   3.548  14.384 -0.2436  0.1496  0.1884
24300DOPC   C3A30066  10.381   3.507  14.593 -0.2744 -0.1807 -0.0690
24300DOPC   C4A30067  10.439   3.445  15.129 -0.0418  0.3249  0.2628
24300DOPC   C1B30068  10.201   3.225  13.644 -0.0532 -0.1988  0.1494
24300DOPC   D2B30069  10.607   3.355  13.654  0.1201 -0.2965  0.1099
24300DOPC   C3B30070  10.811   3.728  13.736 -0.1663  0.0388  0.1231
24300DOPC   C4B30071  10.954   4.161  13.680  0.0018  0.1271 -0.0276
24301DOPC   NC330072  17.254   6.353  10.568  0.3970  0.1619 -0.0972
24301DOPC   PO430073  17.175   6.739  10.551 -0.1658 -0.1660  0.1349
24301DOPC   GL130074  17.022   6.759  10.929  0.2098 -0.2628  0.2806
24301DOPC   GL230075  17.089   6.483  11.005  0.0383 -0.0700  0.2152
24301DOPC   C1A30076  17.020   7.194  11.146 -0.1902  0.1327 -0.2507
24301DOPC   D2A30077  16.963   7.483  11.590 -0.1275 -0.3283  0.0984
24301DOPC   C3A30078  16.981   7.451  12.099  0.1986 -0.1899 -0.0837
24301DOPC   C4A30079  16.807   7.586  12.624  0.0121  0.2159 -0.0161
24301DOPC   C1B30080  17.151   6.345  11.426 -0.0192 -0.0551 -0.1243
24301DOPC   D2B30081  17.204   6.013  11.812  0.0981 -0.1919  0.0576
24301DOPC   C3B30082  17.332   6.015  12.261 -0.0354 -0.1925 -0.1504
24301DOPC   C4B30083  17.475   6.019  12.764  0.2320 -0.1502  0.0328
24302DOPC   NC330084   4.725   4.423  18.803  0.0692 -0.1078 -0.0915
24302DOPC   PO430085   4.345   4.458  18.667 -0.0963 -0.2265  0.1194
24302DOPC   GL130086   4.291   4.335  19.103  0.1204 -0.0100 -0.1893
24302DOPC   GL230087   4.546   4.390  19.187 -0.3218  0.0208  0.3007
24302DOPC   C1A30088   3.997   4.316  19.405 -0.1155 -0.2501 -0.1586
24302DOPC   D2A30089   3.744   4.350  19.835  0.2365 -0.2107 -0.1621
24302DOPC   C3A30090   3.456   4.058  20.065 -0.0635  0.0276 -0.2740
24302DOPC   C4A30091   3.432   3.612  20.309  0.0643  0.2990  0.3075
24302DOPC   C1B30092   4.600   4.452  19.576 -0.0939 -0.2676 -0.5154
24302DOPC   D2B30093   4.605   4.616  20.075  0.2897 -0.0493 -0.2741
24302DOPC   C3B30094   4.850   4.733  20.368  0.2309 -0.0854 -0.0401
24302DOPC   C4B30095   5.239   4.620  20.700  0.0928  0.0655  0.1765
24303DOPC   NC330096   9.948   1.668  12.747  0.0078 -0.3823 -0.0251
24303DOPC   PO430097  10.195   1.443  12.867 -0.0705  0.0847  0.2489
24303DOPC   GL130098  10.398   1.452  13.193  0.0204 -0.2462 -0.2982
24303DOPC   GL230099  10.516   1.232  13.272  0.1942  0.2901 -0.0216
24303DOPC   C1A30100  10.754   1.742  13.343  0.1251 -0.1483 -0.0958
24303DOPC   D2A30101  10.955   2.008  13.715  0.1479 -0.2364 -0.2017
24303DOPC   C3A30102  11.386   1.962  13.968  0.1085 -0.1686 -0.5644
24303DOPC   C4A30103  11.634   1.838  14.370 -0.1214 -0.0454  0.0289
24303DOPC   C1B30104  10.683   1.406  13.642  0.2798  0.0099  0.0308
24303DOPC   D2B30105  10.846   1.593  14.037 -0.0866 -0.0697  0.3845
24303DOPC   C3B30106  10.991   1.964  14.300  0.1274 -0.1463 -0.0094
24303DOPC   C4B30107  11.225   2.219  14.620 -0.4031  0.1372  0.2086
24304DOPC   NC330108   3.437   7.584  18.110 -0.2135 -0.1647  0.0201
24304DOPC   PO430109   3.588   7.341  18.426  0.0648 -0.0787 -0.2462
24304DOPC   GL130110   3.468   7.426  18.858  0.0545 -0.0167  0.1084
24304DOPC   GL230111   3.447   7.663  18.812  0.1947  0.0815 -0.2746
24304DOPC   C1A30112   3.149   7.147  19.010 -0.2720 -0.0575  0.0263
24304DOPC   D2A30113   2.836   7.013  19.391  0.1126 -0.0671  0.2695
24304DOPC   C3A30114   2.822   7.085  19.865 -0.0525  0.0521 -0.0484
24304DOPC   C4A30115   2.676   7.103  20.324  0.2321 -0.0504 -0.0983
24304DOPC   C1B30116   3.805   7.616  19.167 -0.2050  0.3948  0.1460
24304DOPC   D2B30117   3.754   7.803  19.646 -0.0762  0.3442  0.0041
24304DOPC   C3B30118   3.912   7.711  20.005 -0.2264  0.0882  0.1027
24304DOPC   C4B30119   4.064   7.491  20.413  0.1679  0.0340 -0.2116
24305DOPC   NC330120   8.076   3.805  16.059 -0.0029  0.1506 -0.1776
24305DOPC   PO430121   7.807   4.009  16.225 -0.4553 -0.1000 -0.0948
24305DOPC   GL130122   7.977   4.062  16.606  0.0397  0.1953 -0.2957
24305DOPC   GL230123   8.192   4.141  16.480 -0.0179  0.4444 -0.2876
24305DOPC   C1A30124   8.002   3.751  16.969 -0.1278 -0.0176  0.0002
24305DOPC   D2A30125   8.109   3.465  17.339  0.0222  0.0719 -0.0768
24305DOPC   C3A30126   8.228   3.301  17.792 -0.0184 -0.4828 -0.0740
24305DOPC   C4A30127   8.446   3.003  18.106 -0.1569  0.2668  0.0258
24305DOPC   C1B30128   8.595   4.050  16.612 -0.2203  0.1243  0.0224
24305DOPC   D2B30129   9.071   4.117  16.850  0.2707  0.1200 -0.3341
24305DOPC   C3B30130   9.361   4.084  17.196  0.1136 -0.0686  0.0242
24305DOPC   C4B30131   9.727   4.254  17.427  0.2166  0.1102 -0.1046
24306DOPC   NC330132  24.024   7.757  14.325  0.1265  0.0692  0.0430
24306DOPC   PO430133  23.659   7.936  14.418  0.0603 -0.1050  0.0775
24306DOPC   GL130134  23.348   7.907  14.649 -0.0629 -0.0690 -0.2538
24306DOPC   GL230135  23.352   8.166  14.845  0.0362  0.1672  0.0212
24306DOPC   C1A30136  23.091   7.627  14.823 -0.0055  0.0065 -0.0018
24306DOPC   D2A30137  22.769   7.433  15.129 -0.3277 -0.1617  0.2220
24306DOPC   C3A30138  22.929   7.140  14.841  0.0452  0.0301  0.1494
24306DOPC   C4A30139  23.149   6.750  14.804 -0.0136 -0.3241  0.1250
24306DOPC   C1B30140  23.201   8.151  15.213  0.2684  0.2974  0.1773
24306DOPC   D2B30141  23.061   8.082  15.703  0.2406  0.1555 -0.1667
24306DOPC   C3B30142  22.998   7.836  16.129  0.0763  0.0246  0.0088
24306DOPC   C4B30143  22.808   7.559  16.439  0.1652  0.1654  0.3106
24307DOPC   NC330144   6.082   1.527  18.073 -0.2784 -0.1577 -0.0392
24307DOPC   PO430145   6.361   1.588  17.810  0.0839 -0.2304  0.0403
24307DOPC   GL130146   6.726   1.491  18.044 -0.0003  0.2089 -0.1158
24307DOPC   GL230147   6.554   1.558  18.262  0.2031 -0.0806  0.1575
24307DOPC   C1A30148   7.016   1.495  18.317  0.0593  0.1596  0.0167
24307DOPC   D2A30149   7.209   1.538  18.787  0.1139  0.0993  0.1688
24307DOPC   C3A30150   7.563   1.664  18.987 -0.1035 -0.0936 -0.0082
24307DOPC   C4A30151   7.847   1.876  19.216 -0.0631  0.0159 -0.1241
24307DOPC   C1B30152   6.717   1.710  18.658 -0.1746 -0.1276  0.1114
24307DOPC   D2B30153   6.872   1.906  19.057  0.3643 -0.0355 -0.3304
24307DOPC   C3B30154   7.032   2.042  19.550 -0.0233 -0.1564  0.2671
24307DOPC   C4B30155   7.230   2.216  19.967 -0.1092  0.1796  0.0762
24308DOPC   NC330156  16.056   0.247  10.228  0.0867 -0.0932  0.3216
24308DOPC   PO430157  16.209   0.069  10.608 -0.0100 -0.3001  0.4450
24308DOPC   GL130158  16.210  -0.123  10.949  0.1002 -0.1057  0.0421
24308DOPC   GL230159  15.891  -0.015  11.042 -0.0128 -0.0134 -0.3879
24308DOPC   C1A30160  16.394   0.264  11.238 -0.1192  0.0899 -0.1841
24308DOPC   D2A30161  16.673   0.551  11.474  0.0863 -0.2479 -0.2586
24308DOPC   C3A30162  16.691   0.564  11.956 -0.1602  0.0587 -0.0203
24308DOPC   C4A30163  17.165   0.694  12.133  0.1888  0.0192  0.0376
24308DOPC   C1B30164  15.742   0.249  11.334  0.2078  0.0156 -0.0046
24308DOPC   D2B30165  15.873   0.622  11.655 -0.2206 -0.1302  0.0609
24308DOPC   C3B30166  15.733   0.538  12.105 -0.0914  0.2890 -0.1151
24308DOPC   C4B30167  15.450   0.175  12.293  0.1575 -0.0067  0.2105
24309DOPC   NC330168   2.272   6.257  17.376 -0.1509 -0.0487  0.1702
24309DOPC   PO430169   2.069   5.932  17.276 -0.0034 -0.1392  0.0182
24309DOPC   GL130170   1.803   5.773  17.543 -0.1213 -0.0205  0.3797
24309DOPC   GL230171   1.773   6.114  17.604  0.2515 -0.3378  0.4324
24309DOPC   C1A30172   1.912   5.743  18.006 -0.0499 -0.0563 -0.0116
24309DOPC   D2A30173   2.045   5.674  18.519  0.0470 -0.1656 -0.2353
24309DOPC   C3A30174   2.011   5.967  18.867 -0.3447 -0.0507  0.2075
24309DOPC   C4A30175   2.067   6.344  19.185 -0.0910 -0.2332 -0.2694
24309DOPC   C1B30176   1.692   6.166  18.039 -0.1294  0.1682  0.0850
24309DOPC   D2B30177   1.590   6.177  18.460 -0.1442 -0.1587  0.0063
24309DOPC   C3B30178   1.481   5.803  18.550 -0.3105  0.0851  0.2323
24309DOPC   C4B30179   1.219   5.437  18.757 -0.0675  0.1681  0.0035
24310DOPC   NC330180   1.307   4.631  16.929 -0.5826  0.1491 -0.0735
24310DOPC   PO430181   0.928   4.530  16.983 -0.0410 -0.1157  0.0873
24310DOPC   GL130182   0.655   4.701  17.208  0.1803 -0.2794  0.1531
24310DOPC   GL230183   0.853   4.683  17.434 -0.0634 -0.0769  0.0619
24310DOPC   C1A30184   0.415   5.083  17.241  0.1560 -0.0590  0.0280
24310DOPC   D2A30185   0.301   5.493  17.462 -0.0443  0.2573 -0.1106
24310DOPC   C3A30186   0.619   5.613  17.788  0.0374  0.0451  0.2097
24310DOPC   C4A30187   1.019   5.893  17.651  0.3609  0.1397  0.0828
24310DOPC   C1B30188   0.840   4.885  17.801  0.2333  0.0191 -0.4605
24310DOPC   D2B30189   0.656   5.125  18.106  0.3997  0.1616  0.0159
24310DOPC   C3B30190   0.248   5.040  18.324  0.0062 -0.1734  0.0819
24310DOPC   C4B30191  -0.176   5.009  18.600  0.1438 -0.0115  0.1104
24311DOPC   NC330192   0.330   5.770  15.945  0.3405 -0.0099  0.0187
24311DOPC   PO430193  -0.006   5.559  15.918  0.0132  0.2287  0.0365
24311DOPC   GL130194  -0.402   5.528  16.105 -0.0168  0.0886 -0.3232
24311DOPC   GL230195  -0.553   5.294  15.915 -0.2189 -0.0592 -0.0726
24311DOPC   C1A30196  -0.667   5.770  16.304 -0.0996 -0.1005 -0.2514
24311DOPC   D2A30197  -0.929   5.969  16.653 -0.0322  0.1277 -0.0607
24311DOPC   C3A30198  -1.262   5.968  16.961 -0.2113  0.1370 -0.1385
24311DOPC   C4A30199  -1.575   5.758  17.222  0.4229  0.0803  0.0297
24311DOPC   C1B30200  -0.854   5.050  16.067  0.0686 -0.2338  0.1935
24311DOPC   D2B30201  -1.268   4.736  16.011 -0.1272 -0.2316 -0.1634
24311DOPC   C3B30202  -1.677   4.805  15.823  0.0729 -0.0903 -0.0548
24311DOPC   C4B30203  -2.037   5.027  15.592  0.0075  0.0671 -0.0750
24312DOPC   NC330204   3.019   6.655  18.172 -0.3356 -0.1222  0.2683
24312DOPC   PO430205   2.658   6.803  18.038 -0.1520  0.0672  0.2841
24312DOPC   GL130206   2.467   6.855  18.359 -0.2360  0.2412 -0.2820
24312DOPC   GL230207   2.244   7.016  18.306 -0.1517  0.1595 -0.3535
24312DOPC   C1A30208   2.363   6.819  18.804  0.1078  0.1094 -0.1524
24312DOPC   D2A30209   2.331   6.759  19.337 -0.0367 -0.0726  0.3274
24312DOPC   C3A30210   2.570   6.396  19.479 -0.1020 -0.0829 -0.3514
24312DOPC   C4A30211   2.888   6.147  19.821  0.1656  0.1222  0.1460
24312DOPC   C1B30212   1.889   6.920  18.516 -0.2068  0.1771 -0.2077
24312DOPC   D2B30213   1.648   7.265  18.812  0.1987 -0.0856 -0.0494
24312DOPC   C3B30214   1.161   7.310  18.926  0.2966  0.1237 -0.1973
24312DOPC   C4B30215   0.735   7.474  19.098  0.0525 -0.3222  0.1800
24313DOPC   NC330216  18.042   2.957  10.095 -0.0871  0.0738 -0.2146
24313DOPC   PO430217  17.973   3.328  10.240 -0.1955  0.3680 -0.0203
24313DOPC   GL130218  17.684   3.255  10.589  0.0725 -0.0600  0.1394
24313DOPC   GL230219  17.934   3.093  10.716 -0.3199  0.0520 -0.3851
24313DOPC   C1A30220  17.399   3.057  10.820  0.0747  0.2870  0.1612
24313DOPC   D2A30221  17.332   2.767  11.262  0.3168 -0.0351 -0.3135
24313DOPC   C3A30222  17.120   2.867  11.667 -0.0256  0.1276  0.4202
24313DOPC   C4A30223  17.127   2.818  12.174  0.2690  0.2661  0.0579
24313DOPC   C1B30224  17.771   3.062  11.166  0.0805  0.3252 -0.0042
24313DOPC   D2B30225  17.695   2.884  11.591  0.0793  0.1401 -0.1868
24313DOPC   C3B30226  17.623   2.924  12.076  0.0105  0.0418 -0.0066
24313DOPC   C4B30227  17.435   2.851  12.561 -0.2081  0.0384 -0.1335
24314DOPC   NC330228   6.779   2.296  17.231  0.4694 -0.1250  0.0457
24314DOPC   PO430229   6.607   2.490  17.543  0.0617  0.0842  0.1544
24314DOPC   GL130230   6.816   2.608  17.967 -0.2308  0.0382 -0.2628
24314DOPC   GL230231   6.754   2.407  18.093  0.0709  0.0771 -0.1981
24314DOPC   C1A30232   6.626   2.913  18.321 -0.1985  0.2990 -0.0512
24314DOPC   D2A30233   6.667   2.786  18.762  0.1016 -0.2871 -0.1700
24314DOPC   C3A30234   6.423   2.596  19.072 -0.0574  0.5313 -0.0587
24314DOPC   C4A30235   6.355   2.319  19.502  0.1629 -0.1804  0.1290
24314DOPC   C1B30236   6.993   2.439  18.399 -0.1979  0.0778 -0.0098
24314DOPC   D2B30237   7.179   2.675  18.776  0.3969  0.1002 -0.0456
24314DOPC   C3B30238   7.063   2.917  19.144  0.1329 -0.0800  0.0235
24314DOPC   C4B30239   7.018   3.117  19.617  0.1040 -0.3356 -0.2841
24315DOPC   NC330240   0.941   5.786  16.344  0.0644  0.0224  0.0398
24315DOPC   PO430241   0.650   5.475  16.283 -0.1474 -0.2275  0.1395
24315DOPC   GL130242   0.245   5.503  16.301  0.2293 -0.1304  0.0694
24315DOPC   GL230243   0.154   5.228  16.440  0.0791 -0.0134 -0.0321
24315DOPC   C1A30244   0.209   5.856  16.620  0.1758 -0.1805 -0.0594
24315DOPC   D2A30245  -0.121   6.149  16.905  0.0426  0.1495  0.0685
24315DOPC   C3A30246  -0.514   6.227  16.983 -0.3260 -0.1743  0.2952
24315DOPC   C4A30247  -0.981   6.328  17.186  0.1084  0.0355 -0.0062
24315DOPC   C1B30248   0.033   5.068  16.839 -0.2766 -0.2264  0.6739
24315DOPC   D2B30249  -0.093   5.145  17.335  0.1029  0.0582 -0.1187
24315DOPC   C3B30250  -0.175   5.434  17.636  0.0854  0.0238 -0.3319
24315DOPC   C4B30251  -0.231   5.653  18.042  0.1859  0.1463  0.2405
24316DOPC   NC330252  21.630   4.139  12.619  0.0775  0.0377 -0.1208
24316DOPC   PO430253  21.609   4.536  12.525 -0.0065 -0.0419  0.1035
24316DOPC   GL130254  21.316   4.873  12.678 -0.1938 -0.0088  0.3794
24316DOPC   GL230255  21.423   4.755  12.887 -0.2913  0.1243  0.1848
24316DOPC   C1A30256  20.913   4.800  12.711 -0.1126  0.1710 -0.1218
24316DOPC   D2A30257  20.602   4.847  13.038  0.0067  0.0483 -0.1752
24316DOPC   C3A30258  20.424   4.758  13.402 -0.1336  0.3019 -0.1293
24316DOPC   C4A30259  20.046   4.664  13.718 -0.0954 -0.0583 -0.1843
24316DOPC   C1B30260  21.158   4.658  13.209  0.0112  0.0453  0.0060
24316DOPC   D2B30261  20.918   4.529  13.581  0.0185 -0.2467 -0.1100
24316DOPC   C3B30262  20.532   4.350  13.757 -0.0256 -0.0215 -0.1976
24316DOPC   C4B30263  20.168   4.195  13.899 -0.2049  0.0798 -0.0487
24317DOPC   NC330264  23.528   3.401  14.459 -0.2780 -0.0276 -0.2266
24317DOPC   PO430265  23.233   3.146  14.419  0.1373 -0.2631 -0.0232
24317DOPC   GL130266  23.100   3.010  14.788  0.2362 -0.2497 -0.1634
24317DOPC   GL230267  23.003   2.727  14.707 -0.0280  0.0694  0.0364
24317DOPC   C1A30268  22.759   2.993  15.085 -0.0974 -0.1447 -0.0165
24317DOPC   D2A30269  22.312   2.946  15.380  0.1030  0.0147  0.0030
24317DOPC   C3A30270  21.958   2.746  15.463 -0.2697  0.2742 -0.0787
24317DOPC   C4A30271  21.531   2.652  15.579 -0.0692 -0.4667 -0.2425
24317DOPC   C1B30272  23.123   2.305  14.845  0.0847 -0.1503  0.0358
24317DOPC   D2B30273  23.231   2.235  15.322  0.2559 -0.0609  0.0011
24317DOPC   C3B30274  23.100   2.032  15.672  0.1486 -0.1128  0.1456
24317DOPC   C4B30275  23.094   1.764  16.161 -0.3026  0.0235 -0.1630
24318DOPC   NC330276  10.514   0.441  13.010 -0.2185 -0.1872  0.1977
24318DOPC   PO430277  10.343   0.222  13.286  0.0688  0.0050 -0.0258
24318DOPC   GL130278  10.617  -0.042  13.495  0.2920 -0.1444  0.0589
24318DOPC   GL230279  10.771   0.088  13.315 -0.0437  0.0679  0.3970
24318DOPC   C1A30280  10.962  -0.083  13.735  0.0891  0.0618 -0.0347
24318DOPC   D2A30281  11.409  -0.070  13.841  0.3466  0.0063 -0.1870
24318DOPC   C3A30282  11.617   0.138  14.160 -0.2155  0.0915  0.1703
24318DOPC   C4A30283  11.649   0.400  14.611  0.2188 -0.0266  0.0366
24318DOPC   C1B30284  11.167   0.149  13.359 -0.2982 -0.0088  0.1971
24318DOPC   D2B30285  11.627  -0.108  13.398 -0.0621  0.0264  0.3098
24318DOPC   C3B30286  11.985  -0.082  13.711  0.2699 -0.1413 -0.1837
24318DOPC   C4B30287  12.369  -0.231  13.970 -0.0700 -0.0561  0.0093
24319DOPC   NC330288   9.168   6.943  14.309 -0.0772 -0.2800  0.0583
24319DOPC   PO430289   9.306   7.318  14.274  0.0456  0.2767  0.1355
24319DOPC   GL130290   9.583   7.501  14.074 -0.2425  0.1226 -0.0605
24319DOPC   GL230291   9.535   7.715  14.280  0.3289  0.0667  0.1057
24319DOPC   C1A30292   9.932   7.349  14.376  0.0681  0.1208  0.0028
24319DOPC   D2A30293  10.047   7.082  14.759 -0.1181  0.0768  0.2876
24319DOPC   C3A30294  10.418   6.795  14.866  0.0694  0.2554 -0.1127
24319DOPC   C4A30295  10.756   6.649  15.110 -0.1441 -0.1244  0.0455
24319DOPC   C1B30296   9.882   7.915  14.545 -0.0610  0.0595  0.0677
24319DOPC   D2B30297  10.271   8.127  14.700  0.1924  0.1780 -0.2491
24319DOPC   C3B30298  10.573   8.412  14.561 -0.0952  0.1493  0.0724
24319DOPC   C4B30299  10.921   8.650  14.837 -0.1616  0.1339  0.2901
24320DOPC   NC330300   2.036   4.232  17.931  0.3008 -0.1266 -0.0254
24320DOPC   PO430301   2.206   3.883  17.926  0.2143  0.1884 -0.2279
24320DOPC   GL130302   2.390   3.727  18.295  0.2002 -0.2891 -0.0652
24320DOPC   GL230303   2.361   4.004  18.343 -0.0011 -0.2337  0.0500
24320DOPC   C1A30304   2.406   3.476  18.658 -0.1396 -0.1236  0.3224
24320DOPC   D2A30305   2.531   3.315  19.092  0.1451  0.1524 -0.0001
24320DOPC   C3A30306   2.204   3.019  19.256  0.1768  0.4155 -0.1317
24320DOPC   C4A30307   1.955   2.764  19.496 -0.0304 -0.2093  0.0593
24320DOPC   C1B30308   2.418   4.183  18.702 -0.1165 -0.0238 -0.0022
24320DOPC   D2B30309   2.549   4.495  19.100 -0.1002 -0.2691 -0.0666
24320DOPC   C3B30310   2.166   4.566  19.306 -0.0431 -0.1960  0.0563
24320DOPC   C4B30311   1.761   4.632  19.541  0.1182 -0.0120 -0.1353
24321DOPC   NC330312  24.763   3.696  15.864 -0.0449  0.2287 -0.0672
24321DOPC   PO430313  24.491   3.767  15.570  0.0925 -0.0937 -0.0548
24321DOPC   GL130314  24.248   3.809  15.840 -0.1886 -0.3247 -0.1488
24321DOPC   GL230315  24.348   3.738  16.050 -0.3368  0.0851 -0.0331
24321DOPC   C1A30316  23.951   4.184  15.878 -0.0806  0.4105 -0.2381
24321DOPC   D2A30317  23.599   4.324  15.632 -0.1167  0.2222 -0.1369
24321DOPC   C3A30318  23.171   4.134  15.656 -0.2824 -0.1708  0.0123
24321DOPC   C4A30319  22.943   3.811  15.893 -0.1307  0.3393 -0.0997
24321DOPC   C1B30320  23.964   3.853  16.258 -0.2627  0.1036  0.0404
24321DOPC   D2B30321  23.590   3.978  16.549 -0.1436 -0.1803 -0.0499
24321DOPC   C3B30322  23.714   4.112  16.978 -0.0346 -0.0682 -0.3374
24321DOPC   C4B30323  23.822   4.252  17.432 -0.0646 -0.0049 -0.3706
24322DOPC   NC330324  23.259   4.439  14.604  0.1900  0.2126  0.0175
24322DOPC   PO430325  23.011   4.529  14.272  0.0041 -0.0533  0.0762
24322DOPC   GL130326  22.725   4.643  14.480 -0.0361 -0.1948 -0.2752
24322DOPC   GL230327  22.852   4.540  14.779 -0.1855  0.1516 -0.0417
24322DOPC   C1A30328  22.321   4.570  14.633  0.0761  0.0121  0.0299
24322DOPC   D2A30329  22.045   4.645  15.073  0.0473  0.1343  0.1477
24322DOPC   C3A30330  21.827   5.048  15.178  0.0351  0.1307  0.1048
24322DOPC   C4A30331  21.540   5.439  15.184 -0.0883  0.0931 -0.0092
24322DOPC   C1B30332  22.572   4.425  15.041 -0.0460  0.2745 -0.0496
24322DOPC   D2B30333  22.342   4.425  15.456  0.0350  0.0571  0.0719
24322DOPC   C3B30334  21.895   4.245  15.316  0.0916 -0.0062 -0.1330
24322DOPC   C4B30335  21.416   4.037  15.335  0.2669  0.5029 -0.1968
24323DOPC   NC330336  17.217   7.740  10.452  0.0615 -0.0428 -0.2417
24323DOPC   PO430337  16.854   7.866  10.465 -0.1343 -0.1803 -0.1022
24323DOPC   GL130338  16.703   7.840  10.870 -0.0214  0.3199  0.1136
24323DOPC   GL230339  16.551   8.105  10.830 -0.0116 -0.3510  0.0093
24323DOPC   C1A30340  16.639   7.578  11.187  0.0844 -0.1107 -0.0876
24323DOPC   D2A30341  16.527   7.297  11.531 -0.0575 -0.0947 -0.0765
24323DOPC   C3A30342  16.587   7.129  11.994 -0.0898 -0.0716  0.3514
24323DOPC   C4A30343  16.748   7.123  12.432 -0.0843 -0.1654  0.1233
24323DOPC   C1B30344  16.624   8.553  11.006 -0.1055 -0.0247 -0.1350
24323DOPC   D2B30345  16.813   8.907  11.304  0.2572 -0.0040 -0.3895
24323DOPC   C3B30346  16.748   8.873  11.769  0.0682 -0.1267 -0.0499
24323DOPC   C4B30347  16.727   8.773  12.285  0.0870 -0.3017  0.2341
24324DOPC   NC330348  22.198   1.781  13.186  0.0655  0.1457  0.1779
24324DOPC   PO430349  22.484   1.843  13.367  0.1428  0.2092 -0.0498
24324DOPC   GL130350  22.249   1.725  13.729 -0.0158 -0.0537 -0.1351
24324DOPC   GL230351  22.304   2.012  13.859 -0.1925 -0.0388 -0.1304
24324DOPC   C1A30352  21.961   1.584  14.013  0.2186  0.1542  0.2017
24324DOPC   D2A30353  21.604   1.537  14.329 -0.1917 -0.1064  0.0207
24324DOPC   C3A30354  21.463   1.964  14.473  0.1204  0.0694 -0.1374
24324DOPC   C4A30355  21.324   2.425  14.717  0.1979  0.1791  0.4946
24324DOPC   C1B30356  22.412   1.776  14.187 -0.0597  0.1111 -0.1643
24324DOPC   D2B30357  22.425   1.648  14.662 -0.0989 -0.3464 -0.1421
24324DOPC   C3B30358  22.234   1.185  14.738  0.1668 -0.2309 -0.3755
24324DOPC   C4B30359  22.028   0.888  15.067  0.3087  0.1241 -0.0745
24325DOPC   NC330360   9.155   4.454  14.312 -0.1036 -0.2398  0.0282
24325DOPC   PO430361   9.372   4.779  14.413 -0.0929  0.1916  0.1635
24325DOPC   GL130362   9.700   4.875  14.629 -0.3513 -0.2707 -0.0373
24325DOPC   GL230363   9.553   4.939  14.889 -0.0720  0.1559  0.0814
24325DOPC   C1A30364  10.104   4.880  14.673 -0.2282  0.2815  0.0626
24325DOPC   D2A30365  10.458   4.925  14.905  0.0931 -0.1113 -0.0233
24325DOPC   C3A30366  10.786   5.036  15.118  0.2328 -0.0216  0.1410
24325DOPC   C4A30367  10.928   4.994  15.599 -0.1595 -0.0858  0.1292
24325DOPC   C1B30368   9.881   4.820  15.169 -0.2261 -0.1444 -0.0759
24325DOPC   D2B30369  10.175   5.025  15.515 -0.0566 -0.0258  0.2161
24325DOPC   C3B30370  10.457   5.152  15.802 -0.2881  0.2060 -0.0604
24325DOPC   C4B30371  10.690   5.363  16.232  0.0155  0.1007  0.0261
24326DOPC   NC330372   6.510   4.096  17.762  0.1621 -0.1250  0.0841
24326DOPC   PO430373   6.345   4.087  18.132 -0.1342  0.0647 -0.2415
24326DOPC   GL130374   6.532   4.454  18.329 -0.0337 -0.3253 -0.1475
24326DOPC   GL230375   6.756   4.414  18.145  0.0441 -0.2056 -0.1289
24326DOPC   C1A30376   6.635   4.610  18.748 -0.1186  0.1598  0.0859
24326DOPC   D2A30377   6.748   4.861  19.127 -0.0105 -0.0371  0.0338
24326DOPC   C3A30378   6.499   4.891  19.555  0.0948  0.1432 -0.1696
24326DOPC   C4A30379   6.509   5.106  19.975 -0.0778 -0.1272 -0.1918
24326DOPC   C1B30380   7.031   4.571  18.469 -0.2273 -0.0455  0.1218
24326DOPC   D2B30381   7.232   4.705  18.903 -0.2539  0.0691  0.0804
24326DOPC   C3B30382   7.157   5.150  19.115 -0.2038 -0.0880  0.2793
24326DOPC   C4B30383   7.179   5.529  19.378 -0.1189  0.0231 -0.0612
24327DOPC   NC330384  15.980   3.153  10.389  0.1369 -0.3614 -0.2661
24327DOPC   PO430385  16.332   3.324  10.482 -0.1861 -0.2310  0.0548
24327DOPC   GL130386  16.538   3.308  10.817  0.1106  0.1958  0.0415
24327DOPC   GL230387  16.807   3.397  10.765 -0.0917  0.2785 -0.0669
24327DOPC   C1A30388  16.327   3.272  11.154  0.1691  0.0639  0.1078
24327DOPC   D2A30389  16.318   3.044  11.644  0.1774  0.0206  0.1572
24327DOPC   C3A30390  16.623   2.738  11.771 -0.1396  0.1285  0.2776
24327DOPC   C4A30391  16.798   2.419  12.148 -0.0336  0.1425 -0.0365
24327DOPC   C1B30392  17.148   3.516  10.960  0.1125  0.1797  0.1883
24327DOPC   D2B30393  17.680   3.549  11.014  0.1762 -0.1902 -0.4227
24327DOPC   C3B30394  18.155   3.451  11.118  0.1853  0.0342 -0.0145
24327DOPC   C4B30395  18.615   3.477  10.948  0.0580 -0.0997  0.0277
24328DOPC   NC330396   8.578   2.880  15.543  0.0579 -0.2690 -0.2059
24328DOPC   PO430397   8.410   3.242  15.532 -0.0996 -0.0050 -0.1761
24328DOPC   GL130398   8.597   3.419  15.823 -0.1077  0.0877  0.0091
24328DOPC   GL230399   8.381   3.520  15.985 -0.1994  0.0348 -0.0460
24328DOPC   C1A30400   8.843   3.112  16.114 -0.0622  0.3314  0.2576
24328DOPC   D2A30401   9.264   2.858  16.326 -0.4932 -0.3194 -0.2153
24328DOPC   C3A30402   9.723   2.949  16.331 -0.0376  0.0379  0.2114
24328DOPC   C4A30403  10.031   2.790  16.594  0.0297 -0.0502 -0.1264
24328DOPC   C1B30404   8.589   3.630  16.353 -0.0817  0.0521 -0.1776
24328DOPC   D2B30405   8.899   3.638  16.758  0.1789  0.1029  0.0826
24328DOPC   C3B30406   9.035   3.711  17.235  0.1082  0.1511  0.0355
24328DOPC   C4B30407   8.992   3.956  17.638 -0.2479 -0.0119  0.0143
24329DOPC   NC330408  20.832   5.325  11.925  0.0687 -0.1704 -0.2583
24329DOPC   PO430409  20.969   4.936  11.912 -0.0236  0.1010  0.3221
24329DOPC   GL130410  20.615   4.705  11.849 -0.4538 -0.3819  0.0782
24329DOPC   GL230411  20.420   4.821  11.719  0.2231 -0.0546  0.1122
24329DOPC   C1A30412  20.512   4.353  12.155  0.1635  0.0477 -0.0470
24329DOPC   D2A30413  20.679   4.130  12.520  0.2499  0.0586  0.2221
24329DOPC   C3A30414  20.478   4.461  12.767  0.0662 -0.2691 -0.0235
24329DOPC   C4A30415  20.108   4.485  13.092  0.0604  0.1242  0.0424
24329DOPC   C1B30416  20.168   4.683  11.946  0.0299 -0.0959  0.2382
24329DOPC   D2B30417  19.702   4.516  12.075 -0.0479  0.0428 -0.0269
24329DOPC   C3B30418  19.377   4.209  12.324  0.1780 -0.3208  0.0070
24329DOPC   C4B30419  18.987   3.968  12.514 -0.1267 -0.0427  0.1540
24330DOPC   NC330420   0.779   3.652  16.736  0.1643  0.0230 -0.2640
24330DOPC   PO430421   0.806   3.261  16.593  0.0534 -0.0629 -0.1878
24330DOPC   GL130422   0.489   3.170  16.879  0.1328  0.0803 -0.1040
24330DOPC   GL230423   0.332   3.354  16.691  0.2561  0.0188 -0.1398
24330DOPC   C1A30424   0.309   2.908  17.207  0.3003  0.0477 -0.1695
24330DOPC   D2A30425   0.240   2.888  17.697 -0.1944 -0.1279  0.1491
24330DOPC   C3A30426  -0.091   2.805  18.000 -0.0468 -0.3406 -0.1736
24330DOPC   C4A30427  -0.445   2.785  18.289  0.0259 -0.1967 -0.3736
24330DOPC   C1B30428   0.074   3.585  17.001  0.2937  0.1544  0.2390
24330DOPC   D2B30429  -0.059   3.704  17.389 -0.0359  0.0688 -0.0057
24330DOPC   C3B30430  -0.371   3.866  17.592 -0.1881 -0.1511  0.2609
24330DOPC   C4B30431  -0.821   3.985  17.837 -0.2472  0.0009 -0.2350
24331DOPC   NC330432   8.552   7.050  15.597 -0.1640 -0.0161 -0.0430
24331DOPC   PO430433   8.697   6.699  15.636 -0.1404  0.3182 -0.0553
24331DOPC   GL130434   9.030   6.752  15.884  0.1749 -0.0865  0.0855
24331DOPC   GL230435   9.170   6.820  15.642 -0.3467 -0.0523  0.1002
24331DOPC   C1A30436   9.356   6.744  16.147 -0.0299 -0.3216  0.0044
24331DOPC   D2A30437   9.618   6.817  16.536  0.1675  0.1299  0.2186
24331DOPC   C3A30438   9.862   7.217  16.608  0.2765 -0.1491 -0.1089
24331DOPC   C4A30439   9.945   7.700  16.583  0.0649  0.2529 -0.1009
24331DOPC   C1B30440   9.556   6.600  15.708 -0.0764  0.3640 -0.0639
24331DOPC   D2B30441  10.114   6.559  15.716  0.0773  0.1476  0.0259
24331DOPC   C3B30442  10.323   6.926  15.928  0.0203  0.2352 -0.1923
24331DOPC   C4B30443  10.601   7.048  16.329  0.0645 -0.1166 -0.0878
24332DOPC   NC330444  15.017   2.261  10.369 -0.3306  0.0861 -0.1119
24332DOPC   PO430445  15.098   2.620  10.286 -0.1972 -0.1303 -0.1794
24332DOPC   GL130446  15.182   2.722  10.713  0.2882 -0.0396  0.1213
24332DOPC   GL230447  15.410   2.808  10.772  0.1118 -0.3309  0.1488
24332DOPC   C1A30448  14.848   2.633  11.062  0.0852  0.0322  0.0768
24332DOPC   D2A30449  14.615   2.842  11.502 -0.4931  0.2851  0.1589
24332DOPC   C3A30450  14.778   2.668  11.904 -0.1368 -0.3239 -0.0120
24332DOPC   C4A30451  14.540   2.396  12.312 -0.1095 -0.1384  0.1018
24332DOPC   C1B30452  15.639   2.803  11.166  0.2956 -0.0679  0.0402
24332DOPC   D2B30453  15.619   2.600  11.629  0.1315 -0.2378 -0.1694
24332DOPC   C3B30454  15.782   2.916  11.849 -0.1571  0.0841 -0.2376
24332DOPC   C4B30455  16.148   3.174  12.101  0.2615  0.1744  0.0905
24333DOPC   NC330456   1.427   1.157  17.632 -0.2681  0.0166  0.3157
24333DOPC   PO430457   1.399   1.561  17.555 -0.1349 -0.0173 -0.0452
24333DOPC   GL130458   1.032   1.651  17.702 -0.2119 -0.2408  0.2441
24333DOPC   GL230459   1.035   1.338  17.770 -0.0436 -0.0270  0.1875
24333DOPC   C1A30460   0.763   1.799  17.889 -0.1654 -0.0694  0.0172
24333DOPC   D2A30461   0.378   2.045  18.150 -0.1424 -0.1328 -0.3256
24333DOPC   C3A30462  -0.018   1.833  18.072  0.0185 -0.2513 -0.0502
24333DOPC   C4A30463  -0.503   1.692  17.997  0.0844  0.1886  0.0967
24333DOPC   C1B30464   1.234   1.127  18.109  0.3563  0.0919 -0.1218
24333DOPC   D2B30465   1.236   0.685  18.422  0.1051 -0.4361 -0.0608
24333DOPC   C3B30466   1.100   0.466  18.747 -0.1698  0.2102 -0.0514
24333DOPC   C4B30467   1.159   0.004  19.024 -0.0730 -0.0461 -0.0101
24334DOPC   NC330468   3.562   2.714  18.031 -0.3018  0.0803 -0.1182
24334DOPC   PO430469   3.683   2.738  18.415 -0.0517 -0.1367 -0.0023
24334DOPC   GL130470   3.508   2.868  18.738 -0.0987  0.0518 -0.0624
24334DOPC   GL230471   3.688   2.739  18.897  0.0977  0.2870 -0.3230
24334DOPC   C1A30472   3.257   3.047  18.992  0.1035  0.0573 -0.0926
24334DOPC   D2A30473   2.896   3.194  19.378 -0.1280 -0.0477  0.3773
24334DOPC   C3A30474   2.502   3.284  19.561  0.1830 -0.3148 -0.0189
24334DOPC   C4A30475   2.088   3.278  19.783 -0.0336  0.0522  0.0135
24334DOPC   C1B30476   3.714   3.020  19.283  0.1464 -0.0209 -0.1874
24334DOPC   D2B30477   3.775   3.281  19.728  0.0540 -0.0978  0.0485
24334DOPC   C3B30478   3.679   3.207  20.149  0.0232  0.1848  0.3421
24334DOPC   C4B30479   3.635   2.988  20.542  0.0049 -0.0536  0.2417
24335DOPC   NC330480  14.005   5.280  10.595  0.1294 -0.0520 -0.0775
24335DOPC   PO430481  14.208   5.643  10.535  0.1695 -0.1156 -0.0455
24335DOPC   GL130482  14.367   5.630  10.936 -0.0143 -0.1140 -0.2411
24335DOPC   GL230483  14.103   5.534  11.039  0.0349  0.3032 -0.1818
24335DOPC   C1A30484  14.647   5.954  11.068  0.0173 -0.0784  0.3091
24335DOPC   D2A30485  14.649   6.462  10.994  0.0944  0.2317  0.0896
24335DOPC   C3A30486  15.045   6.686  11.046 -0.2713 -0.1957  0.0054
24335DOPC   C4A30487  15.488   6.806  10.982 -0.0652 -0.1421  0.1494
24335DOPC   C1B30488  14.034   5.438  11.498 -0.0624 -0.0217  0.0976
24335DOPC   D2B30489  14.380   5.415  11.871  0.0313  0.0414  0.0006
24335DOPC   C3B30490  14.388   5.460  12.326  0.0906  0.1952  0.2530
24335DOPC   C4B30491  14.512   5.519  12.778  0.0937 -0.1060  0.1521
24336DOPC   NC330492  17.330   5.678  10.501  0.0930 -0.0050  0.0597
24336DOPC   PO430493  17.093   5.939  10.702  0.0527 -0.2633 -0.3823
24336DOPC   GL130494  17.084   5.972  11.159  0.2474  0.1936 -0.1295
24336DOPC   GL230495  16.815   6.111  11.144 -0.2337 -0.1894 -0.1648
24336DOPC   C1A30496  17.190   5.657  11.466 -0.2853 -0.1418  0.1503
24336DOPC   D2A30497  17.490   5.604  11.881  0.0021  0.0966  0.1699
24336DOPC   C3A30498  17.273   5.466  12.270  0.0445 -0.1322 -0.1368
24336DOPC   C4A30499  17.119   5.162  12.652 -0.1086 -0.0834 -0.0730
24336DOPC   C1B30500  16.664   6.369  11.501 -0.2027 -0.2467 -0.2270
24336DOPC   D2B30501  16.332   6.741  11.595  0.0500  0.3282 -0.1805
24336DOPC   C3B30502  16.125   7.060  11.865 -0.2023 -0.0266  0.0524
24336DOPC   C4B30503  15.986   7.117  12.362 -0.1798 -0.0488  0.1739
24337DOPC   NC330504   2.164   6.573  18.204  0.0294  0.0459  0.0832
24337DOPC   PO430505   2.514   6.333  18.130 -0.2242  0.3920  0.1833
24337DOPC   GL130506   2.377   6.122  18.518 -0.1521 -0.2170  0.2026
24337DOPC   GL230507   2.107   6.109  18.401 -0.0024  0.5178  0.2947
24337DOPC   C1A30508   2.548   6.091  18.887 -0.0727 -0.0454  0.2481
24337DOPC   D2A30509   2.602   5.899  19.303  0.0236 -0.1888 -0.0540
24337DOPC   C3A30510   2.379   5.933  19.696  0.3783 -0.2759  0.0884
24337DOPC   C4A30511   2.122   5.730  20.097 -0.1538  0.1607  0.0703
24337DOPC   C1B30512   2.015   6.449  18.663 -0.0849  0.1824  0.0866
24337DOPC   D2B30513   1.866   6.720  19.003 -0.0472  0.0600 -0.5727
24337DOPC   C3B30514   1.687   6.547  19.388  0.0864  0.0986 -0.2450
24337DOPC   C4B30515   1.401   6.115  19.535  0.2186 -0.2335  0.0168
24338DOPC   NC330516  14.594   4.739  10.654  0.1375  0.3382 -0.2927
24338DOPC   PO430517  14.209   4.813  10.751  0.1072  0.1308  0.0569
24338DOPC   GL130518  14.278   5.156  11.049  0.1641 -0.2374  0.4464
24338DOPC   GL230519  13.992   5.113  11.119  0.4259  0.2594  0.0020
24338DOPC   C1A30520  14.527   5.340  11.374 -0.1870  0.0126  0.0184
24338DOPC   D2A30521  14.875   5.528  11.741  0.0473  0.0950 -0.3199
24338DOPC   C3A30522  15.178   5.386  12.022 -0.1855  0.3433  0.2315
24338DOPC   C4A30523  15.138   5.338  12.571  0.0733  0.0603  0.1792
24338DOPC   C1B30524  14.094   4.949  11.493 -0.3336 -0.0699  0.1067
24338DOPC   D2B30525  14.185   4.929  11.951 -0.2546 -0.5087 -0.0539
24338DOPC   C3B30526  14.147   4.925  12.371  0.3204  0.0760 -0.3011
24338DOPC   C4B30527  14.139   5.156  12.774  0.0842 -0.3878 -0.0094
24339DOPC   NC330528  12.082   5.823  11.419  0.1272 -0.0371  0.0461
24339DOPC   PO430529  12.380   5.566  11.530 -0.1245  0.0217  0.2039
24339DOPC   GL130530  12.737   5.713  11.524  0.1555  0.2565  0.5748
24339DOPC   GL230531  12.733   5.412  11.563 -0.4045 -0.0767  0.3165
24339DOPC   C1A30532  13.116   5.906  11.727  0.1613  0.1942  0.1453
24339DOPC   D2A30533  13.424   6.068  12.092  0.0173 -0.0097  0.3187
24339DOPC   C3A30534  13.839   5.901  12.219 -0.1363  0.2264  0.0158
24339DOPC   C4A30535  14.298   6.019  12.307 -0.0839  0.1433 -0.1384
24339DOPC   C1B30536  12.901   5.346  11.986  0.0365  0.3279  0.0442
24339DOPC   D2B30537  12.982   5.376  12.472 -0.1249  0.1254  0.0791
24339DOPC   C3B30538  13.186   5.090  12.777  0.1046 -0.1012 -0.0727
24339DOPC   C4B30539  13.274   4.624  12.960 -0.0245  0.1579 -0.0293
24340DOPA   PO430540   8.638   1.138  14.890  0.2287 -0.1414  0.1014
24340DOPA   GL130541   9.058   0.967  14.960  0.1773  0.0948  0.1505
24340DOPA   GL230542   9.095   1.052  15.193  0.2980 -0.0087  0.1249
24340DOPA   C1A30543   9.463   0.966  14.690 -0.3039  0.2329  0.1057
24340DOPA   D2A30544   9.799   0.614  14.648  0.1635  0.4472 -0.3242
24340DOPA   C3A30545  10.203   0.799  14.826  0.3210  0.4996  0.2467
24340DOPA   C4A30546  10.541   0.878  15.154 -0.0900 -0.1103 -0.3611
24340DOPA   C1B30547   9.398   0.959  15.421  0.2619  0.2695  0.3414
24340DOPA   D2B30548   9.707   0.740  15.773  0.2534  0.0817  0.0436
24340DOPA   C3B30549   9.563   0.743  16.183  0.0242  0.2255 -0.1418
24340DOPA   C4B30550   9.536   0.747  16.681 -0.1306 -0.2239  0.1381
24341DOPA   PO430551   8.552   2.368  14.367 -0.0937 -0.0169  0.1101
24341DOPA   GL130552   8.905   2.533  14.429  0.1278 -0.3152  0.1970
24341DOPA   GL230553   8.897   2.722  14.571  0.1425 -0.2657  0.1409
24341DOPA   C1A30554   9.345   2.328  14.588 -0.0786  0.0761  0.2048
24341DOPA   D2A30555   9.707   2.112  14.696  0.0686  0.0237  0.1946
24341DOPA   C3A30556   9.883   2.169  15.088  0.0411  0.0650 -0.0541
24341DOPA   C4A30557  10.234   2.143  15.399  0.1049 -0.2423 -0.0897
24341DOPA   C1B30558   8.948   2.776  14.974  0.0325 -0.0282 -0.1231
24341DOPA   D2B30559   8.830   3.189  15.237 -0.1443 -0.0910  0.0743
24341DOPA   C3B30560   9.123   3.175  15.596  0.2118 -0.0445  0.2291
24341DOPA   C4B30561   9.421   3.123  15.929 -0.1620 -0.0137  0.0733
24342DOPA   PO430562   6.631   5.045  17.790  0.2882 -0.0332  0.1994
24342DOPA   GL130563   6.867   4.845  18.095 -0.0327  0.1855 -0.0780
24342DOPA   GL230564   6.643   4.885  18.307  0.2970 -0.2486  0.0248
24342DOPA   C1A30565   7.176   5.175  18.254  0.1342  0.0717  0.0924
24342DOPA   D2A30566   7.408   5.612  18.342 -0.0248  0.0702 -0.1528
24342DOPA   C3A30567   7.734   5.659  18.558  0.0069 -0.2020 -0.0125
24342DOPA   C4A30568   8.198   5.696  18.692 -0.1240 -0.0976  0.1106
24342DOPA   C1B30569   6.869   5.034  18.637 -0.1303 -0.1602  0.0355
24342DOPA   D2B30570   7.348   5.200  18.689 -0.2131 -0.1104 -0.2732
24342DOPA   C3B30571   7.564   5.470  18.999 -0.1936  0.0724 -0.2731
24342DOPA   C4B30572   8.017   5.238  18.926 -0.1379  0.0763 -0.3380
24343DOPA   PO430573   8.849   3.829  14.209  0.0557  0.0716 -0.1276
24343DOPA   GL130574   9.033   3.468  14.464 -0.0233  0.1708 -0.2899
24343DOPA   GL230575   9.311   3.717  14.485  0.1006  0.2910  0.6050
24343DOPA   C1A30576   9.170   3.226  14.818  0.1541  0.0953  0.2582
24343DOPA   D2A30577   9.452   3.298  15.186 -0.1025  0.4710  0.1508
24343DOPA   C3A30578   9.907   3.344  15.385 -0.0146 -0.0972 -0.0185
24343DOPA   C4A30579  10.363   3.269  15.585  0.1473 -0.4085 -0.0880
24343DOPA   C1B30580   9.651   3.681  14.785 -0.3261 -0.2778  0.1803
24343DOPA   D2B30581  10.044   3.762  15.029  0.1585  0.1825  0.2515
24343DOPA   C3B30582  10.274   3.895  15.416  0.1081  0.1632  0.1219
24343DOPA   C4B30583  10.456   3.895  15.826  0.0081  0.1507  0.2748
24344DOPA   PO430584  21.825   1.830  12.854 -0.2679 -0.1878  0.0403
24344DOPA   GL130585  21.491   2.026  12.934 -0.1281  0.1906 -0.2452
24344DOPA   GL230586  21.279   1.822  12.816 -0.1020 -0.0240  0.6830
24344DOPA   C1A30587  21.247   2.288  13.159  0.1837  0.1136 -0.1714
24344DOPA   D2A30588  20.751   2.413  13.196 -0.1947 -0.0316  0.2261
24344DOPA   C3A30589  20.412   2.411  13.549 -0.4280 -0.0633 -0.0785
24344DOPA   C4A30590  20.112   2.634  13.876 -0.2633  0.0058 -0.3775
24344DOPA   C1B30591  21.066   1.789  13.166 -0.0230 -0.0784 -0.0990
24344DOPA   D2B30592  21.018   1.657  13.666 -0.1700 -0.1166  0.1358
24344DOPA   C3B30593  20.716   1.744  13.968  0.1664 -0.1886  0.0203
24344DOPA   C4B30594  20.536   1.566  14.391  0.0234 -0.0505 -0.3192
24345DOPA   PO430595   4.096   5.723  18.190  0.0322 -0.1297 -0.0300
24345DOPA   GL130596   3.863   5.551  18.491  0.2046  0.2977 -0.2120
24345DOPA   GL230597   4.116   5.525  18.618 -0.2060  0.0520 -0.1091
24345DOPA   C1A30598   3.525   5.501  18.832  0.1241 -0.2016  0.2182
24345DOPA   D2A30599   3.061   5.366  18.784 -0.1316 -0.1452  0.1499
24345DOPA   C3A30600   2.795   5.384  19.179 -0.3352 -0.0506  0.1724
24345DOPA   C4A30601   2.426   5.385  19.505 -0.1915 -0.0605  0.0036
24345DOPA   C1B30602   3.929   5.774  18.950  0.0942 -0.0342  0.1052
24345DOPA   D2B30603   3.855   6.164  19.312  0.1166  0.1473  0.0085
24345DOPA   C3B30604   3.767   6.259  19.771 -0.1179  0.3162  0.2545
24345DOPA   C4B30605   4.062   6.473  20.070 -0.2943  0.2288 -0.0366
24346DOPA   PO430606   3.116   2.593  17.987 -0.1035 -0.0150 -0.1048
24346DOPA   GL130607   2.806   2.577  18.266 -0.6301  0.1536  0.2520
24346DOPA   GL230608   2.592   2.349  18.269  0.3392 -0.2066 -0.3062
24346DOPA   C1A30609   2.767   2.369  18.681  0.1050  0.0632  0.1883
24346DOPA   D2A30610   2.643   2.249  19.113  0.1842  0.0557  0.0094
24346DOPA   C3A30611   2.685   2.235  19.582  0.0459 -0.3169  0.2185
24346DOPA   C4A30612   2.964   2.079  20.004  0.0440  0.0781 -0.1820
24346DOPA   C1B30613   2.276   2.380  18.575  0.0354  0.0338  0.1926
24346DOPA   D2B30614   2.117   2.557  18.988  0.0795 -0.1190  0.0722
24346DOPA   C3B30615   1.698   2.559  19.170 -0.3279  0.0505 -0.0501
24346DOPA   C4B30616   1.393   2.421  19.416  0.2215 -0.1368 -0.2101
24347DOPA   PO430617   6.161   1.132  18.459  0.0888  0.2513  0.0447
24347DOPA   GL130618   6.183   1.404  18.717  0.2225  0.1964 -0.0925
24347DOPA   GL230619   6.449   1.309  18.795  0.1140 -0.2856  0.1543
24347DOPA   C1A30620   6.043   1.508  19.081 -0.0608 -0.0554 -0.3651
24347DOPA   D2A30621   6.103   1.761  19.558  0.0212 -0.1103  0.2504
24347DOPA   C3A30622   6.245   1.962  19.905 -0.1080 -0.1034 -0.1351
24347DOPA   C4A30623   6.658   2.244  19.918 -0.0220 -0.0682  0.3383
24347DOPA   C1B30624   6.688   1.466  19.127  0.2695 -0.2663  0.3409
24347DOPA   D2B30625   7.086   1.608  19.354 -0.0011 -0.0454  0.1490
24347DOPA   C3B30626   7.523   1.593  19.505  0.1326  0.1570  0.0951
24347DOPA   C4B30627   7.815   1.470  19.828  0.0565 -0.2413  0.1312
24348DOPA   PO430628   0.528   4.518  16.603 -0.1150  0.1250 -0.1582
24348DOPA   GL130629   0.377   4.492  16.986 -0.1113 -0.1707  0.2166
24348DOPA   GL230630   0.466   4.298  17.117  0.4495  0.0024  0.0789
24348DOPA   C1A30631   0.015   4.715  17.176 -0.1136 -0.0302 -0.1746
24348DOPA   D2A30632  -0.429   4.911  17.034  0.1272 -0.0719 -0.1073
24348DOPA   C3A30633  -0.886   5.016  17.015  0.1033  0.0048  0.0205
24348DOPA   C4A30634  -1.268   5.265  17.069 -0.1140 -0.2000 -0.0657
24348DOPA   C1B30635   0.186   4.155  17.413  0.1815  0.1009 -0.2386
24348DOPA   D2B30636  -0.012   4.235  17.812 -0.1124  0.1701 -0.0088
24348DOPA   C3B30637  -0.188   4.591  17.678 -0.0442 -0.2240  0.2925
24348DOPA   C4B30638  -0.507   5.008  17.566 -0.0178 -0.0181  0.0348
24349DOPA   PO430639  12.172   7.556  11.718  0.0448  0.1502  0.3172
24349DOPA   GL130640  12.551   7.528  11.842  0.1371  0.3963  0.2451
24349DOPA   GL230641  12.650   7.335  11.811  0.0886  0.2114 -0.1267
24349DOPA   C1A30642  12.837   7.831  11.966 -0.3405  0.0006 -0.0540
24349DOPA   D2A30643  13.250   7.905  12.264 -0.1383 -0.2203 -0.0610
24349DOPA   C3A30644  13.393   7.915  12.650 -0.2258  0.0911 -0.1903
24349DOPA   C4A30645  13.519   7.646  13.048 -0.1376 -0.1522 -0.0365
24349DOPA   C1B30646  13.020   7.272  11.984  0.0084  0.2551 -0.3319
24349DOPA   D2B30647  13.472   7.081  12.190 -0.1099  0.0529  0.0557
24349DOPA   C3B30648  13.821   7.028  12.455  0.0624  0.1767 -0.1044
24349DOPA   C4B30649  13.964   6.704  12.717  0.2274 -0.1411 -0.0898
24350DOPA   PO430650   8.130   4.666  15.797  0.3387 -0.0276  0.0945
24350DOPA   GL130651   8.421   4.543  16.022 -0.4279 -0.1517 -0.0165
24350DOPA   GL230652   8.230   4.294  15.986 -0.1934  0.0934 -0.1831
24350DOPA   C1A30653   8.775   4.393  16.320  0.0805  0.1038 -0.4176
24350DOPA   D2A30654   9.059   3.987  16.349 -0.2568 -0.1127 -0.4406
24350DOPA   C3A30655   9.409   3.778  16.603 -0.3203  0.2839 -0.0481
24350DOPA   C4A30656   9.500   3.582  17.008 -0.1598  0.0703  0.2166
24350DOPA   C1B30657   8.602   3.998  15.990 -0.0276  0.2543  0.0598
24350DOPA   D2B30658   8.960   3.684  15.913  0.1094  0.1496 -0.0186
24350DOPA   C3B30659   9.110   3.515  16.286 -0.1846  0.2945  0.1236
24350DOPA   C4B30660   9.296   3.270  16.605  0.0419  0.2902 -0.1579
24351DOPA   PO430661   7.289   5.325  16.916  0.0505 -0.0265 -0.0707
24351DOPA   GL130662   7.673   5.478  17.135 -0.0223  0.2738  0.1021
24351DOPA   GL230663   7.474   5.394  17.406 -0.2578  0.0067  0.3391
24351DOPA   C1A30664   8.073   5.383  17.082  0.5821 -0.0254 -0.1510
24351DOPA   D2A30665   8.445   5.102  17.331  0.1302 -0.0161 -0.0855
24351DOPA   C3A30666   8.775   4.785  17.303  0.3118  0.0827  0.2146
24351DOPA   C4A30667   9.083   4.396  17.438  0.0401  0.1735  0.0980
24351DOPA   C1B30668   7.581   5.165  17.751 -0.0322 -0.0519 -0.2608
24351DOPA   D2B30669   7.477   4.842  18.112 -0.3697 -0.0012 -0.1605
24351DOPA   C3B30670   7.623   4.814  18.501  0.1585 -0.1303  0.0705
24351DOPA   C4B30671   7.719   4.881  19.013  0.0982 -0.0339  0.0956
24352DOPA   PO430672  18.314   0.058  10.731 -0.1801 -0.0098  0.0877
24352DOPA   GL130673  18.358   0.221  11.087 -0.1572 -0.1257  0.0461
24352DOPA   GL230674  18.142   0.404  11.046  0.0396 -0.4935 -0.2406
24352DOPA   C1A30675  18.458   0.010  11.424 -0.0298  0.0746 -0.0953
24352DOPA   D2A30676  18.539  -0.135  11.893 -0.0930  0.1182 -0.1410
24352DOPA   C3A30677  18.967  -0.274  11.966  0.0101 -0.2264 -0.0375
24352DOPA   C4A30678  19.276  -0.592  12.047 -0.2251  0.0720  0.0181
24352DOPA   C1B30679  18.171   0.577  11.432  0.0985 -0.0243 -0.1781
24352DOPA   D2B30680  18.024   0.650  11.936 -0.1742 -0.2713  0.1953
24352DOPA   C3B30681  18.085   0.430  12.323 -0.2414 -0.0204 -0.3341
24352DOPA   C4B30682  18.184   0.402  12.829  0.1037 -0.1527 -0.3441
24353DOPA   PO430683   7.774   3.431  16.056 -0.3148  0.2567  0.0045
24353DOPA   GL130684   8.139   3.432  16.312 -0.2161  0.3110  0.0134
24353DOPA   GL230685   8.117   3.564  16.499  0.0152 -0.3446 -0.2934
24353DOPA   C1A30686   8.384   3.130  16.457  0.2294  0.0382  0.0266
24353DOPA   D2A30687   8.867   3.139  16.657  0.0131  0.1779  0.1938
24353DOPA   C3A30688   9.082   3.137  17.088  0.2111  0.2492  0.1545
24353DOPA   C4A30689   9.064   3.263  17.523 -0.0941 -0.1149 -0.1932
24353DOPA   C1B30690   8.441   3.566  16.799  0.0379 -0.0854  0.2333
24353DOPA   D2B30691   8.662   3.413  17.245  0.0668  0.1341 -0.1662
24353DOPA   C3B30692   8.703   3.501  17.743  0.1092 -0.2007  0.0616
24353DOPA   C4B30693   8.823   3.325  18.118  0.0340  0.0842 -0.0841
24354DOPA   PO430694   8.263   7.194  15.940 -0.1803  0.0811  0.0940
24354DOPA   GL130695   8.605   7.441  16.128  0.0279 -0.0606 -0.2025
24354DOPA   GL230696   8.411   7.478  16.363  0.0314 -0.0616 -0.0174
24354DOPA   C1A30697   8.974   7.418  16.335  0.1564 -0.0839  0.0629
24354DOPA   D2A30698   9.462   7.284  16.239  0.0262  0.2461 -0.1672
24354DOPA   C3A30699   9.791   6.981  16.071 -0.2494  0.2140  0.0637
24354DOPA   C4A30700   9.853   6.503  16.133 -0.0258 -0.2366 -0.0652
24354DOPA   C1B30701   8.465   7.093  16.605 -0.0877 -0.1394 -0.0454
24354DOPA   D2B30702   8.615   6.637  16.838  0.3162 -0.0007  0.0033
24354DOPA   C3B30703   9.084   6.539  16.993 -0.0446 -0.0712  0.4280
24354DOPA   C4B30704   9.559   6.514  17.095 -0.3718 -0.1058 -0.1229
24355DOPA   PO430705   0.269   3.753  16.360  0.0852 -0.2510 -0.0668
24355DOPA   GL130706   0.298   3.896  16.757 -0.4087 -0.4806 -0.4680
24355DOPA   GL230707   0.291   4.144  16.683  0.2615  0.1510  0.0593
24355DOPA   C1A30708   0.475   3.854  17.180 -0.3226 -0.0223 -0.2068
24355DOPA   D2A30709   0.413   3.807  17.681 -0.2244 -0.0644 -0.0159
24355DOPA   C3A30710   0.306   4.027  18.102  0.1571  0.0026  0.0545
24355DOPA   C4A30711   0.065   4.218  18.434  0.0882  0.1592 -0.0293
24355DOPA   C1B30712   0.024   4.233  16.983 -0.1718 -0.0119  0.0535
24355DOPA   D2B30713  -0.372   4.282  17.266  0.0714 -0.0993 -0.1714
24355DOPA   C3B30714  -0.636   4.371  17.600 -0.1762 -0.0640  0.0182
24355DOPA   C4B30715  -1.027   4.458  17.887 -0.0329 -0.3404  0.0113
24356DOPA   PO430716   2.147   0.017  17.668 -0.1196  0.1386  0.1912
24356DOPA   GL130717   1.897   0.187  17.941  0.2243 -0.2178  0.1150
24356DOPA   GL230718   1.801   0.348  17.678  0.0874 -0.1377  0.2597
24356DOPA   C1A30719   1.823   0.052  18.443  0.3437 -0.0032 -0.0171
24356DOPA   D2A30720   1.915  -0.155  18.835 -0.0042  0.1589  0.0233
24356DOPA   C3A30721   1.589  -0.265  19.165 -0.0417 -0.0686 -0.1307
24356DOPA   C4A30722   1.156  -0.405  19.427 -0.0571 -0.1988 -0.2033
24356DOPA   C1B30723   1.366   0.176  17.834 -0.1360  0.1274 -0.2563
24356DOPA   D2B30724   1.333  -0.243  18.131  0.1975 -0.2877 -0.2416
24356DOPA   C3B30725   1.367  -0.119  18.575 -0.0713  0.2533 -0.0098
24356DOPA   C4B30726   1.616   0.220  18.901 -0.0678  0.0524 -0.0943
24357DOPA   PO430727   1.787   0.851  17.418 -0.1158 -0.1759 -0.0765
24357DOPA   GL130728   1.372   0.764  17.337 -0.1295 -0.0701 -0.1268
24357DOPA   GL230729   1.154   0.900  17.306 -0.1004 -0.2275  0.0320
24357DOPA   C1A30730   1.204   0.402  17.378 -0.0400 -0.0887  0.3412
24357DOPA   D2A30731   0.848   0.007  17.350 -0.0940 -0.0685  0.2779
24357DOPA   C3A30732   0.906  -0.264  17.711  0.0401  0.2328 -0.2249
24357DOPA   C4A30733   0.779  -0.405  18.189  0.1468  0.1532  0.1297
24357DOPA   C1B30734   1.028   0.830  17.702  0.2754 -0.0102 -0.0266
24357DOPA   D2B30735   0.741   1.115  18.028  0.0045  0.2087  0.1634
24357DOPA   C3B30736   0.334   0.994  18.241  0.0204 -0.3617  0.2627
24357DOPA   C4B30737   0.099   0.619  18.308 -0.3511 -0.1295 -0.0285
24358DOPA   PO430738  16.780   4.970  10.692  0.0039  0.3058 -0.0958
24358DOPA   GL130739  16.698   5.093  11.059  0.0111  0.0005 -0.1160
24358DOPA   GL230740  16.403   4.975  11.009  0.1471  0.0937 -0.4215
24358DOPA   C1A30741  16.769   5.518  11.280  0.1778 -0.1401  0.1279
24358DOPA   D2A30742  16.718   5.872  11.539  0.0560 -0.1741  0.0614
24358DOPA   C3A30743  16.914   5.731  11.991  0.2206 -0.0642 -0.0883
24358DOPA   C4A30744  16.915   5.784  12.514  0.0393  0.2426 -0.0957
24358DOPA   C1B30745  16.411   4.925  11.464 -0.0612 -0.1184  0.0913
24358DOPA   D2B30746  16.664   5.228  11.770  0.0165 -0.1562 -0.0354
24358DOPA   C3B30747  17.135   5.183  11.842 -0.0406  0.0030  0.2480
24358DOPA   C4B30748  17.561   5.134  12.053 -0.1751  0.0639 -0.0239
24359DOPA   PO430749  17.847   6.398  10.711  0.1828  0.0061  0.2788
24359DOPA   GL130750  17.769   6.740  11.000  0.1326  0.0311  0.0491
24359DOPA   GL230751  17.483   6.668  10.954 -0.1073  0.0162 -0.0175
24359DOPA   C1A30752  17.780   6.957  11.343 -0.0519 -0.0256  0.0492
24359DOPA   D2A30753  17.976   6.943  11.760  0.1105 -0.0346 -0.1191
24359DOPA   C3A30754  17.887   6.994  12.212  0.0182 -0.2013 -0.3302
24359DOPA   C4A30755  17.599   6.987  12.645 -0.0991  0.1194 -0.1199
24359DOPA   C1B30756  17.295   6.834  11.362 -0.1338 -0.2365  0.2062
24359DOPA   D2B30757  17.372   7.069  11.678 -0.0405  0.0062 -0.0695
24359DOPA   C3B30758  17.263   7.000  12.107  0.0814  0.0981 -0.0800
24359DOPA   C4B30759  17.163   6.743  12.507  0.0789  0.0358 -0.1882
24360DOPA   PO430760   2.905   7.636  18.069 -0.0009 -0.0247 -0.1720
24360DOPA   GL130761   2.855   7.659  18.462 -0.0654  0.1512  0.1273
24360DOPA   GL230762   3.077   7.779  18.613  0.2798  0.0056 -0.1866
24360DOPA   C1A30763   2.482   7.827  18.592 -0.1492 -0.0325 -0.0310
24360DOPA   D2A30764   2.177   8.031  18.953  0.1109 -0.1448 -0.0965
24360DOPA   C3A30765   2.035   7.783  19.354  0.1445  0.1800  0.0666
24360DOPA   C4A30766   1.875   7.888  19.838  0.3287  0.0624  0.0480
24360DOPA   C1B30767   3.025   7.626  19.005  0.0290 -0.1759  0.1511
24360DOPA   D2B30768   2.874   7.496  19.440 -0.2476 -0.2798  0.1560
24360DOPA   C3B30769   2.409   7.369  19.605 -0.1954 -0.0395  0.2248
24360DOPA   C4B30770   2.007   7.411  19.909 -0.0546 -0.0410  0.1120
24361DOPA   PO430771  17.681   1.289  10.423 -0.2119 -0.1980 -0.2689
24361DOPA   GL130772  17.483   1.592  10.768  0.0888  0.1511 -0.2012
24361DOPA   GL230773  17.782   1.485  10.955 -0.2728 -0.2577  0.1164
24361DOPA   C1A30774  17.250   2.026  10.673 -0.1918  0.1382 -0.1649
24361DOPA   D2A30775  17.433   2.472  10.852 -0.0479 -0.0633  0.2106
24361DOPA   C3A30776  17.615   2.347  11.306 -0.0675 -0.4109  0.3465
24361DOPA   C4A30777  17.557   2.453  11.813 -0.1202 -0.1902 -0.0321
24361DOPA   C1B30778  17.798   1.353  11.370 -0.0524  0.0690 -0.2898
24361DOPA   D2B30779  17.606   1.433  11.740 -0.2426 -0.0617  0.0146
24361DOPA   C3B30780  17.686   1.385  12.192  0.0066  0.1786 -0.0393
24361DOPA   C4B30781  17.655   1.558  12.627  0.0802  0.0022 -0.0941
24362DOPA   PO430782  11.300   5.027  12.340 -0.1105 -0.5243 -0.1217
24362DOPA   GL130783  11.222   5.062  12.743 -0.0756 -0.4397  0.0703
24362DOPA   GL230784  11.177   4.823  12.813 -0.0608  0.0114 -0.0650
24362DOPA   C1A30785  11.561   5.369  12.924  0.1576  0.0974  0.1930
24362DOPA   D2A30786  11.936   5.630  13.125 -0.0799 -0.0993 -0.1146
24362DOPA   C3A30787  11.950   5.532  13.576 -0.1359  0.0161 -0.0939
24362DOPA   C4A30788  12.483   5.683  13.764  0.0724  0.0627 -0.3083
24362DOPA   C1B30789  11.429   4.743  13.194  0.1575  0.1368  0.1195
24362DOPA   D2B30790  11.719   4.610  13.451  0.1093 -0.0571  0.2147
24362DOPA   C3B30791  12.083   4.567  13.735  0.0956 -0.1627  0.0317
24362DOPA   C4B30792  12.447   4.732  13.995  0.0087 -0.1539 -0.1038
24363DOPA   PO430793   5.866   6.943  18.128  0.1078  0.1992 -0.1248
24363DOPA   GL130794   6.083   6.857  18.517 -0.0033 -0.0140 -0.2529
24363DOPA   GL230795   6.334   7.006  18.461  0.0446 -0.1266 -0.0997
24363DOPA   C1A30796   6.109   6.662  18.895  0.0324 -0.1596 -0.0076
24363DOPA   D2A30797   5.961   6.211  19.107  0.3179  0.1053 -0.1344
24363DOPA   C3A30798   5.927   5.952  19.462 -0.1165  0.1266  0.0972
24363DOPA   C4A30799   5.952   5.766  19.895 -0.0548  0.0429  0.0064
24363DOPA   C1B30800   6.438   7.108  18.845  0.1151 -0.0381 -0.1502
24363DOPA   D2B30801   6.802   7.246  19.145 -0.0043  0.2510  0.3729
24363DOPA   C3B30802   7.039   7.430  19.542 -0.2832 -0.0427 -0.3406
24363DOPA   C4B30803   7.279   7.436  20.010  0.1930  0.0033  0.0462
24364DOPA   PO430804  12.950   6.971  11.100 -0.1503  0.0303  0.2947
24364DOPA   GL130805  13.000   7.137  11.498 -0.0626 -0.1397  0.2529
24364DOPA   GL230806  12.786   6.976  11.597 -0.0973 -0.1972 -0.0425
24364DOPA   C1A30807  13.140   7.557  11.617  0.3598 -0.2307  0.0328
24364DOPA   D2A30808  13.266   8.136  11.652  0.4033  0.0042 -0.1206
24364DOPA   C3A30809  13.315   8.318  12.036 -0.0140 -0.3412 -0.3706
24364DOPA   C4A30810  13.153   8.511  12.489 -0.2361 -0.1324  0.1031
24364DOPA   C1B30811  13.071   6.774  11.797  0.2704 -0.0729  0.3425
24364DOPA   D2B30812  13.405   6.600  12.036  0.2818 -0.2003 -0.0274
24364DOPA   C3B30813  13.579   6.429  12.448  0.2095 -0.0640  0.3491
24364DOPA   C4B30814  13.379   6.337  12.881 -0.2906  0.1626 -0.1857
24365W        W30815  24.751   5.349   4.794  0.0703 -0.2340 -0.0549
24366W        W30816  11.020   6.188   7.794  0.0466  0.1554  0.2853
24367W        W30817  11.877   1.230  32.289  0.1464  0.0586  0.1019
24368W        W30818  13.976   2.043   1.007 -0.1678  0.1130 -0.2510
24369W        W30819  11.554   3.127   6.905  0.0788  0.2829 -0.1803
24370W        W30820  23.946   7.519   5.936  0.0397  0.1877 -0.3133
24371W        W30821   6.752   6.502  14.250 -0.3675 -0.0831 -0.3053
24372W        W30822  20.493   6.124   1.856 -0.2047  0.1677  0.0805
24373W        W30823  24.457   7.670  28.522 -0.2127 -0.4021 -0.0842
24374W        W30824   4.651   2.042  15.551  0.2377  0.2074 -0.0855
24375W        W30825   1.906   5.207   7.751 -0.0856 -0.1312  0.1981
24376W        W30826   9.372   1.753  13.434  0.0883  0.0635 -0.0063
24377W        W30827  17.964   0.396  29.531 -0.0118  0.1281 -0.0850
24378W        W30828   6.007   3.976   4.267  0.2190 -0.0733 -0.3047
24379W        W30829  19.435   3.166  32.653 -0.0546 -0.0507  0.0988
24380W        W30830  21.248   5.141   7.821  0.0165  0.5121  0.1196
24381W        W30831  13.876   5.994  32.322  0.1572 -0.2027  0.1720
24382W        W30832   2.117   3.138  24.964  0.3994  0.2001  0.1025
24383W        W30833   2.860   6.791   6.726 -0.3065 -0.0476 -0.2351
24384W        W30834  16.748   4.676  11.151  0.0137 -0.0161 -0.1599
24385W        W30835  13.878   2.103  26.071 -0.2195 -0.1752 -0.3104
24386W        W30836   7.147   2.775  16.209 -0.0093  0.0385 -0.0028
24387W        W30837   3.999   0.356  25.253 -0.0839 -0.3166  0.1661
24388W        W30838  22.959   6.571   4.139 -0.0142 -0.3008  0.1123
24389W        W30839  17.910   2.915  29.820 -0.1449  0.1267  0.1056
24390W        W30840  19.432   7.432  28.868  0.1841 -0.2464 -0.0808
24391W        W30841  24.335   7.223  22.141 -0.1046  0.0087 -0.1062
24392W        W30842  20.166   7.441  20.324  0.1554 -0.1698 -0.2805
24393W        W30843  15.977   1.250  26.183  0.3597  0.1505  0.4588
24394W        W30844   1.578   0.207   7.000 -0.0638  0.0683 -0.1194
24395W        W30845   2.818   6.769  15.036 -0.1552  0.0603  0.0133
24396W        W30846  20.443   2.559  22.950 -0.0230  0.1309 -0.3430
24397W        W30847  12.179   5.634   3.868  0.1946  0.1194 -0.1798
24398W        W30848   5.445   1.736  24.495  0.0228 -0.0055  0.1129
24399W        W30849  14.253   0.819   9.605 -0.1440  0.1489 -0.0987
24400W        W30850  24.725   3.976   8.212 -0.1053 -0.2680  0.0653
24401W        W30851  17.013   5.940   5.518 -0.1789  0.0159 -0.2256
24402W        W30852  24.127   4.040  27.145 -0.2063  0.1126 -0.0914
24403W        W30853   8.043   1.861  11.746  0.1589 -0.2013 -0.2564
24404W        W30854   3.521   1.729  15.118 -0.0083 -0.3357 -0.2061
24405W        W30855  21.050   2.167   6.484 -0.3453  0.0278 -0.1615
24406W        W30856  12.442   4.899  21.192  0.2074 -0.0005  0.0513
24407W        W30857  10.560   2.802   9.472 -0.1901 -0.0834  0.0334
24408W        W30858   0.669   2.919  13.007 -0.0500 -0.0819  0.1162
24409W        W30859   2.877   4.299  27.027 -0.1671 -0.1890  0.2733
24410W        W30860  16.676   4.109  28.113 -0.4134  0.3069  0.4430
24411W        W30861  16.251   0.547  28.907 -0.5068 -0.0745  0.0770
24412W        W30862  21.060   2.161   7.853  0.0789  0.1051  0.0446
24413W        W30863   6.517   0.752   1.694 -0.0252 -0.1365 -0.1073
24414W        W30864  17.058   2.536  24.773  0.1308  0.0367 -0.0381
24415W        W30865  18.134   1.877  21.980  0.1659 -0.2080  0.1272
24416W        W30866  14.770   0.171  16.497 -0.0489 -0.0574 -0.0894
24417W        W30867  18.580   5.347   9.426 -0.0064 -0.0163  0.1308
24418W        W30868   9.518   4.307  29.225  0.1945 -0.0370  0.1402
24419W        W30869   3.851   5.531   5.705 -0.1648 -0.1782  0.1067
24420W        W30870  14.559   3.813  27.965 -0.2552 -0.0487 -0.0877
24421W        W30871   5.485   2.827  13.267 -0.1548 -0.4064  0.0521
24422W        W30872  20.768   2.527  20.389 -0.1176 -0.0182 -0.2604
24423W        W30873   1.845   1.915  13.396  0.4131 -0.1212 -0.0460
24424W        W30874  17.445   4.596   2.086  0.0024  0.1047  0.1060
24425W        W30875   8.977   5.134  26.602 -0.0051 -0.2278 -0.1276
24426W        W30876   5.540   6.258  26.216  0.2574  0.0387  0.0604
24427W        W30877  18.704   0.683  21.873  0.0409 -0.0466 -0.2477
24428W        W30878  17.986   3.852  26.335 -0.0403  0.1793 -0.1812
24429W        W30879  13.390   1.178   9.550  0.1347  0.1294  0.1614
24430W        W30880  22.119   4.290   7.071  0.2117  0.1129 -0.0714
24431W        W30881  16.423   7.487  16.469 -0.1741  0.0003 -0.1057
24432W        W30882  17.297   3.960  32.949 -0.0341  0.1100 -0.0587
24433W        W30883  18.221   0.605  30.983  0.0188  0.0010  0.1591
24434W        W30884   4.131   6.526  17.269 -0.3502 -0.3598  0.3432
24435W        W30885   7.139   7.572  14.138 -0.0537 -0.1042 -0.0103
24436W        W30886   5.283   7.750   9.414  0.0275  0.1292 -0.2369
24437W        W30887  16.192   5.943  17.218  0.1252  0.0172 -0.1168
24438W        W30888  22.047   2.306  18.526 -0.0591 -0.2123  0.1970
24439W        W30889  14.086   1.158  19.055  0.3053  0.0796 -0.1743
24440W        W30890   8.239   6.519  15.565  0.2488  0.0077  0.3612
24441W        W30891  16.506   6.702  30.071  0.0226  0.1190  0.2456
24442W        W30892   0.918   1.303  25.028 -0.1510 -0.1689 -0.2564
24443W        W30893   3.601   2.304   4.612  0.3109  0.0864 -0.1498
24444W        W30894   9.744   5.441  29.696 -0.2162  0.1715 -0.1753
24445W        W30895   4.020   6.419  10.922  0.0610 -0.2361  0.0418
24446W        W30896  24.087   2.468  29.400  0.0855 -0.0227  0.0506
24447W        W30897   7.687   5.869  13.425 -0.1331  0.1714 -0.0940
24448W        W30898  21.335   6.350  29.829  0.1035 -0.2059  0.0568
24449W        W30899   1.224   5.179  30.602  0.2920  0.1563  0.0562
24450W        W30900  11.147   6.749  27.971  0.1445 -0.2064 -0.1128
24451W        W30901   0.643   3.147   8.184  0.2277 -0.0528 -0.3327
24452W        W30902  17.846   2.728  30.896  0.1457 -0.0512 -0.2075
24453W        W30903  10.681   4.817   5.524 -0.5363  0.0347  0.2263
24454W        W30904  16.130   4.432  19.852  0.0817  0.0356  0.1196
24455W        W30905   3.269   3.373  22.790  0.1423  0.0067  0.1428
24456W        W30906  19.600   4.382   7.219 -0.3174  0.0568 -0.1663
24457W        W30907  22.682   4.713  27.229 -0.0089 -0.3857  0.3244
24458W        W30908   5.582   0.453  17.549  0.0057  0.0137 -0.2414
24459W        W30909  18.633   5.183  17.149 -0.0650 -0.1906 -0.2603
24460W        W30910  11.725   4.592   2.690  0.0525 -0.0951 -0.1020
24461W        W30911   4.440   5.113  26.640  0.2441  0.0271 -0.3008
24462W        W30912   2.169   4.155   1.387  0.0188  0.1322  0.0453
24463W        W30913   0.046   3.944   6.758  0.0205 -0.0256 -0.2077
24464W        W30914  14.070   6.332   7.917 -0.0252  0.1011 -0.0636
24465W        W30915  17.696   0.949   0.439  0.0055 -0.2239  0.0538
24466W        W30916   3.831   6.165  27.485 -0.4403  0.1117  0.0981
24467W        W30917   4.818   0.941  30.396  0.0796 -0.0759 -0.2158
24468W        W30918   6.559   6.083  15.184  0.2744 -0.2733  0.0958
24469W        W30919  16.760   0.299   8.361 -0.0504  0.0153 -0.3044
24470W        W30920   0.145   5.097   9.513 -0.2777  0.1570  0.1009
24471W        W30921  11.040   1.385  27.108  0.2340  0.0191  0.1543
24472W        W30922   7.410   7.792  30.162 -0.1456  0.3334 -0.1746
24473W        W30923   7.995   4.237   1.746 -0.1946 -0.3781 -0.1755
24474W        W30924  20.474   2.033  28.894  0.1222 -0.2442 -0.0407
24475W        W30925   8.635   0.096  26.367  0.0173 -0.1395  0.4309
24476W        W30926   5.872   5.987   1.074  0.0292 -0.1232 -0.3916
24477W        W30927  11.733   6.931   0.473 -0.1324 -0.1984 -0.1305
24478W        W30928   2.129   1.424  22.699 -0.0130 -0.1670 -0.1075
24479W        W30929  18.875   5.222   4.011 -0.0677  0.0404  0.1276
24480W        W30930   2.665   2.842  26.865  0.0751 -0.0239  0.0634
24481W        W30931  17.999   0.424  24.594  0.0875 -0.1346 -0.2632
24482W        W30932  10.831   4.309   1.547  0.1998  0.2396  0.2200
24483W        W30933  19.396   4.656   4.324 -0.1552 -0.2443  0.0904
24484W        W30934  17.589   5.796  22.143  0.0660  0.0984  0.4124
24485W        W30935  22.148   5.849  22.629 -0.1045 -0.3355  0.2727
24486W        W30936  19.411   4.213   6.304 -0.0781  0.3281  0.2045
24487W        W30937  20.429   3.146  21.668 -0.0046  0.1667 -0.0153
24488W        W30938   7.175   1.400  24.947  0.1070 -0.0494 -0.2513
24489W        W30939  21.911   4.686  29.762  0.0734  0.0537  0.1904
24490W        W30940  24.651   6.229   1.596 -0.2059  0.0834  0.1370
24491W        W30941  17.204   4.051  26.724 -0.2109  0.1136 -0.1169
24492W        W30942  20.125   7.553  22.532  0.1348  0.0676 -0.0914
24493W        W30943   2.493   1.923  11.911  0.0794 -0.1290  0.1650
24494W        W30944   1.632   5.313  23.322 -0.0918  0.0532 -0.1059
24495W        W30945  14.572   6.410  16.387  0.0005  0.1766  0.0326
24496W        W30946  13.304   7.589  16.741  0.2195  0.0111  0.1120
24497W        W30947   1.662   3.400  12.829 -0.0279  0.0906 -0.1506
24498W        W30948  18.205   2.770   9.643  0.0469  0.2382  0.1440
24499W        W30949  15.220   7.429  28.784 -0.2819 -0.1554 -0.0206
24500W        W30950  10.538   5.835  20.756 -0.0483  0.1089  0.2240
24501W        W30951   2.685   3.972   2.012  0.0337 -0.1132 -0.4505
24502W        W30952   9.625   3.602  22.447  0.0358 -0.0982 -0.2386
24503W        W30953   9.698   0.174  25.415 -0.0847  0.2249  0.5025
24504W        W30954  14.432   0.279  22.344  0.0050  0.0687  0.0145
24505W        W30955  21.316   0.159  32.533 -0.4224  0.1507 -0.0903
24506W        W30956  13.216   3.879   2.570 -0.2282  0.2470 -0.0732
24507W        W30957  23.284   6.075   7.575  0.0930  0.1000 -0.0500
24508W        W30958  21.311   4.079  11.735 -0.1607  0.0804  0.0566
24509W        W30959  22.995   3.177  12.191  0.2418 -0.0302 -0.2333
24510W        W30960  17.827   1.783  33.036 -0.1870  0.1880 -0.0791
24511W        W30961   1.346   3.027   4.856 -0.2441  0.0634  0.2590
24512W        W30962  24.298   4.584   2.108 -0.0146 -0.0480 -0.0874
24513W        W30963  20.068   1.614  24.096 -0.0185  0.0168 -0.0826
24514W        W30964   5.418   6.479  12.503  0.0863  0.2120 -0.3193
24515W        W30965   6.531   3.587   5.439 -0.0909  0.1702  0.2814
24516W        W30966   0.308   6.358   7.388  0.1063  0.0060  0.3345
24517W        W30967  10.013   6.401  23.305 -0.2120 -0.0493 -0.1585
24518W        W30968   7.243   2.893   4.418 -0.0508  0.0208  0.1149
24519W        W30969   8.629   5.716  12.847  0.1127  0.0874 -0.0035
24520W        W30970  16.635   5.823  27.645  0.1953  0.0596  0.3365
24521W        W30971  11.636   6.939   1.850  0.0300 -0.1421  0.1582
24522W        W30972  15.433   3.122  22.807 -0.2115 -0.0085 -0.0364
24523W        W30973   4.244   3.148   3.856  0.0201 -0.1339  0.1756
24524W        W30974  18.587   0.812   1.546 -0.1167  0.0648 -0.3082
24525W        W30975  16.185   4.116  19.386  0.2029 -0.2788 -0.0308
24526W        W30976  17.222   6.606  27.804 -0.2164  0.1105 -0.0476
24527W        W30977   6.331   4.698  29.421  0.0380  0.1759 -0.1160
24528W        W30978   1.893   2.273  12.976  0.1109 -0.1705 -0.1836
24529W        W30979  24.150   7.159  12.421  0.0321  0.0622  0.3828
24530W        W30980  14.735   7.519   9.174  0.1505 -0.1604 -0.0300
24531W        W30981  22.831   5.366  28.422 -0.0096  0.3119  0.0615
24532W        W30982  22.340   5.029  10.267  0.0487 -0.2292  0.0312
24533W        W30983   2.359   3.845  25.721  0.3601 -0.2173 -0.1791
24534W        W30984   3.478   0.356   9.506  0.0046 -0.0212  0.1509
24535W        W30985   4.298   2.468  27.843 -0.1533 -0.0071  0.1342
24536W        W30986  16.790   2.549   0.656  0.2562  0.1857 -0.5291
24537W        W30987   7.999   6.638  13.613  0.1973 -0.0172 -0.1730
24538W        W30988  11.395   4.325   7.573  0.2823 -0.2881 -0.1800
24539W        W30989   6.318   6.036  24.451 -0.1144  0.4223 -0.1093
24540W        W30990   8.254   4.422   2.205  0.2132  0.0323  0.1066
24541W        W30991   2.155   4.065  22.838  0.0967 -0.1177 -0.0906
24542W        W30992  18.668   0.431  25.681  0.0481  0.0505 -0.2956
24543W        W30993  22.350   6.592   7.694  0.2067  0.1003  0.0315
24544W        W30994   5.303   0.180  18.127  0.0500 -0.2037  0.0172
24545W        W30995  21.914   6.410   7.981 -0.0105 -0.2884 -0.2298
24546W        W30996   0.980   4.324  30.843  0.0357  0.0910  0.1103
24547W        W30997   2.824   1.111  16.035 -0.2335  0.0550 -0.1276
24548W        W30998  15.164   4.368  31.004 -0.1693 -0.1329  0.1723
24549W        W30999   1.479   2.189  32.596 -0.0728 -0.1183 -0.0591
24550W        W31000  13.799   5.233  28.627  0.1899  0.2509 -0.1626
24551W        W31001  12.324   3.826   9.240  0.1660  0.0037 -0.3727
24552W        W31002  23.072   4.757   1.815  0.3011 -0.0423 -0.1709
24553W        W31003  14.558   4.822  10.169 -0.1897  0.0277  0.1149
24554W        W31004   7.249   7.039  10.502  0.1669  0.1069  0.1506
24555W        W31005   0.986   3.553   4.568 -0.0656 -0.2255  0.1152
24556W        W31006  16.339   2.125   6.632  0.0168 -0.0658 -0.0380
24557W        W31007  21.295   0.433   5.309  0.2938 -0.0383  0.1082
24558W        W31008   2.344   6.164   8.387 -0.2835  0.2875  0.0184
24559W        W31009   0.317   6.764  24.471 -0.0991 -0.1552  0.0513
24560W        W31010  14.396   4.828  32.210  0.3048 -0.0244  0.3180
24561W        W31011  24.879   1.636   5.127  0.1011 -0.1705 -0.1194
24562W        W31012  15.689   6.281  23.722 -0.4276 -0.0231  0.0973
24563W        W31013  12.185   6.238  21.378 -0.0236 -0.0476 -0.0644
24564W        W31014   4.062   0.406  29.972 -0.0525  0.1833 -0.1474
24565W        W31015   8.833   3.040  32.998 -0.1290 -0.0198  0.1558
24566W        W31016  11.452   6.439  22.411 -0.2761  0.1102 -0.1162
24567W        W31017  11.108   2.717   8.615  0.0331 -0.0837  0.0518
24568W        W31018  11.480   5.287  28.274 -0.0758 -0.0988 -0.1113
24569W        W31019   2.738   3.123  30.119  0.0481 -0.1840 -0.1277
24570W        W31020  10.995   2.090   2.571  0.1740  0.1717 -0.0747
24571W        W31021   7.216   0.580  15.806 -0.0987  0.2007 -0.2831
24572W        W31022   4.534   0.720   7.783  0.1058  0.0802  0.2766
24573W        W31023  24.377   7.164  23.671 -0.3361 -0.1862  0.3046
24574W        W31024  18.493   1.609   4.668 -0.1577  0.2669  0.1940
24575W        W31025   3.004   4.159  28.278  0.2624 -0.1676  0.1183
24576W        W31026  18.397   6.746  30.291  0.0013 -0.3464 -0.0138
24577W        W31027  24.233   2.488   7.069 -0.1637 -0.3596 -0.2915
24578W        W31028   4.203   6.232  12.286 -0.0534 -0.3884  0.0578
24579W        W31029   3.254   6.005   4.232 -0.1569 -0.1300  0.0004
24580W        W31030  22.314   3.146   1.520 -0.0932  0.0573 -0.1539
24581W        W31031  18.097   2.993  20.936 -0.1205  0.0536  0.0587
24582W        W31032  19.831   0.131   7.505  0.0540 -0.0475 -0.2419
24583W        W31033  18.270   4.819  30.443 -0.0050 -0.0207  0.3173
24584W        W31034  24.207   1.503   7.771  0.0426 -0.2731 -0.0475
24585W        W31035  19.615   1.516   9.387  0.2673 -0.0665  0.1349
24586W        W31036   0.292   5.424   4.909  0.1018 -0.1612  0.1216
24587W        W31037  14.753   4.619  19.348 -0.4732  0.1218  0.3370
24588W        W31038  11.230   4.147   1.205  0.0918  0.1513  0.0900
24589W        W31039  18.931   7.609   6.718 -0.1457 -0.1621 -0.1109
24590W        W31040   9.683   0.611  28.072  0.0477 -0.0985  0.0171
24591W        W31041  24.820   6.862  22.697 -0.1268  0.1299  0.3641
24592W        W31042   1.928   3.974  16.610  0.0151  0.1431 -0.2461
24593W        W31043   7.696   6.325   3.143  0.2141 -0.1234  0.1019
24594W        W31044  13.661   2.573   2.361  0.0283 -0.0942 -0.0039
24595W        W31045   5.870   6.696  30.265 -0.2794  0.0909 -0.0041
24596W        W31046  17.099   2.918  32.341  0.0027  0.0663  0.0596
24597W        W31047   7.019   3.926  25.944  0.1263 -0.3415  0.2201
24598W        W31048  10.307   6.692  20.496  0.1369  0.1154  0.1488
24599W        W31049  20.475   5.136  32.316  0.1038  0.3611 -0.2963
24600W        W31050  18.472   4.044  19.109  0.0870 -0.1231 -0.1257
24601W        W31051  12.511   7.618  23.954  0.1962 -0.0742 -0.0992
24602W        W31052  13.179   5.913   4.842  0.0855 -0.0620 -0.0212
24603W        W31053  19.036   3.069  23.517  0.2516  0.0891 -0.2367
24604W        W31054   8.312   3.994   5.465 -0.0534 -0.1427 -0.0418
24605W        W31055  18.635   0.901   0.742 -0.1922  0.0958 -0.1658
24606W        W31056   5.721   3.869  16.678 -0.0131  0.0306 -0.2776
24607W        W31057  10.014   0.469   0.698 -0.0361  0.2601  0.4804
24608W        W31058   0.549   1.729  25.945  0.2391 -0.0825  0.2760
24609W        W31059  20.034   3.675  10.559 -0.0433  0.0583  0.0917
24610W        W31060   3.895   3.085   8.512 -0.4932 -0.0723 -0.0673
24611W        W31061  17.127   5.351  32.782  0.0789 -0.0070 -0.0569
24612W        W31062   7.850   2.936  10.257  0.1058  0.0397  0.1707
24613W        W31063  11.429   2.474  22.152 -0.0174 -0.0966 -0.2046
24614W        W31064  13.884   4.963   1.643 -0.1081  0.0782  0.0428
24615W        W31065  21.123   0.791   0.690  0.1578 -0.0183 -0.3023
24616W        W31066  12.544   5.816   8.868  0.3249 -0.1207 -0.0054
24617W        W31067   6.123   4.127  31.170  0.1206 -0.2526 -0.3069
24618W        W31068  10.699   3.960  10.397 -0.2035  0.3129 -0.1413
24619W        W31069  18.846   6.030  28.457 -0.0281 -0.1088 -0.1757
24620W        W31070  15.613   4.390   1.190 -0.0712 -0.1995  0.1300
24621W        W31071  13.149   0.492  24.068 -0.1007  0.2653 -0.1983
24622W        W31072   6.358   1.746  10.454  0.3270 -0.2006 -0.4105
24623W        W31073   0.520   3.209  32.569 -0.3581 -0.0748 -0.1064
24624W        W31074  18.166   4.221  32.849  0.2307  0.3129 -0.1715
24625W        W31075  24.076   1.258  27.411 -0.0260  0.0587 -0.1696
24626W        W31076   0.130   5.295  26.580 -0.1421 -0.2837 -0.2467
24627W        W31077   7.327   3.968  31.836  0.0876  0.0947 -0.2658
24628W        W31078  20.622   1.022   6.784  0.1122  0.1804 -0.0225
24629W        W31079   3.021   4.247  15.208  0.0419  0.1499 -0.0656
24630W        W31080   3.421   0.306  17.113  0.2280 -0.0753  0.0501
24631W        W31081   6.295   0.323  15.248  0.4022 -0.2483  0.0747
24632W        W31082  15.854   0.247  27.359  0.0864  0.1018  0.1752
24633W        W31083  24.111   0.741   7.505  0.3869 -0.0657  0.0292
24634W        W31084  21.687   4.018   5.887  0.0714 -0.4738  0.0363
24635W        W31085   3.633   4.117  16.071 -0.1862 -0.0479  0.0100
24636W        W31086   6.373   1.777  24.550 -0.3082  0.1690 -0.4471
24637W        W31087  14.676   2.459  10.629 -0.3282  0.1266  0.0405
24638W        W31088  17.605   3.406  32.885  0.0861 -0.2653 -0.0756
24639W        W31089   3.494   7.797   2.963 -0.0303  0.0201 -0.1529
24640W        W31090  19.881   7.281  24.804 -0.2149 -0.0766 -0.2315
24641W        W31091   8.153   1.285   6.892 -0.0647  0.4741 -0.0227
24642W        W31092  16.444   6.193  22.549 -0.0036 -0.1418 -0.3143
24643W        W31093  17.750   1.534  22.095  0.0461 -0.1846 -0.2123
24644W        W31094  19.918   1.238  26.860  0.0873 -0.0304 -0.0810
24645W        W31095   2.118   4.721  29.121  0.2408 -0.0586  0.1429
24646W        W31096  14.576   0.318  20.163 -0.2560 -0.1220  0.1475
24647W        W31097   5.065   4.991  27.391 -0.3104 -0.0363  0.0646
24648W        W31098  16.503   3.311  15.200  0.0978 -0.1211 -0.2536
24649W        W31099  20.256   3.604  21.785  0.1247 -0.1349  0.0105
24650W        W31100  18.106   4.420   4.785 -0.1196  0.2265  0.1257
24651W        W31101   9.992   6.873  23.443 -0.3919 -0.0657  0.0093
24652W        W31102   5.702   4.409   5.030  0.3673  0.4057  0.1399
24653W        W31103   7.679   4.995   0.925  0.1054 -0.4502 -0.1658
24654W        W31104  19.041   5.144   9.467 -0.0035  0.1278 -0.3402
24655W        W31105  22.001   5.165   5.516  0.0109 -0.0991  0.3403
24656W        W31106   5.326   7.138  14.304  0.0100 -0.1882 -0.1211
24657W        W31107  11.440   4.276   9.280 -0.0935  0.0483  0.1474
24658W        W31108   3.369   1.138  12.772 -0.0281 -0.2796 -0.0098
24659W        W31109   3.812   4.656  22.969  0.0244 -0.1271 -0.1496
24660W        W31110  13.594   3.213  31.438  0.1479  0.3237 -0.0391
24661W        W31111   0.168   5.074  13.572 -0.1128 -0.1401 -0.2512
24662W        W31112  22.805   6.189   6.982  0.1486 -0.2128 -0.3728
24663W        W31113  20.056   4.387  25.811  0.0424 -0.2565  0.1617
24664W        W31114  21.429   1.911  10.479 -0.0906 -0.4534 -0.1223
24665W        W31115   5.859   1.349  12.616 -0.0897 -0.1575  0.7664
24666W        W31116  20.162   3.160  24.778 -0.2710  0.3570 -0.2065
24667W        W31117  22.117   5.150  26.450 -0.1361  0.2586  0.2581
24668W        W31118  17.689   3.309  31.259  0.0610  0.1528  0.0020
24669W        W31119   7.915   1.204  26.119  0.0010 -0.0121 -0.1740
24670W        W31120  13.593   7.615  25.237  0.0054  0.0739 -0.0336
24671W        W31121   5.114   6.996  15.485 -0.3082  0.0875 -0.2815
24672W        W31122  15.261   5.681   9.389 -0.2080  0.1068 -0.0915
24673W        W31123   1.488   6.891  27.228 -0.4729  0.1327 -0.0549
24674W        W31124  23.343   3.669  23.159 -0.4626  0.1900 -0.1481
24675W        W31125   9.844   2.507   1.978  0.1470 -0.3639 -0.3269
24676W        W31126  16.302   1.587   6.529  0.0336 -0.1358  0.1183
24677W        W31127   2.725   3.521   1.266  0.2755  0.2950  0.0675
24678W        W31128  13.160   7.677  28.760 -0.0257 -0.0881 -0.0020
24679W        W31129   4.420   5.836  15.334 -0.2657  0.0651 -0.3091
24680W        W31130  24.668   5.005  27.756 -0.1824 -0.1650 -0.2102
24681W        W31131  23.744   4.805   5.858  0.1241  0.0001 -0.1518
24682W        W31132   8.687   2.945  25.792 -0.1138  0.4389 -0.3135
24683W        W31133  24.218   3.481  25.760  0.2671  0.4692 -0.0088
24684W        W31134   8.036   1.115   0.934  0.0681 -0.2541  0.2663
24685W        W31135  12.825   3.615  21.695  0.0240 -0.3126 -0.1677
24686W        W31136  16.533   3.665  16.618 -0.0253 -0.1211  0.1359
24687W        W31137  21.845   7.263   6.603 -0.1583 -0.0111  0.1638
24688W        W31138  14.730   6.372  17.272 -0.1071 -0.1713 -0.0284
24689W        W31139  19.648   7.418  20.541  0.3239  0.0317  0.0071
24690W        W31140  22.814   5.032  14.222 -0.0307  0.0690  0.3669
24691W        W31141   4.269   6.466   6.562  0.1918 -0.1110 -0.0721
24692W        W31142  13.961   7.763   8.226 -0.1991  0.1787 -0.0856
24693W        W31143  19.612   0.552  25.771  0.1371 -0.1233 -0.0532
24694W        W31144  14.322   3.857   6.011 -0.2429  0.0050  0.0216
24695W        W31145   2.500   4.501  31.815 -0.1575  0.0356  0.3510
24696W        W31146   6.217   2.690  13.153 -0.0324 -0.2437  0.0921
24697W        W31147  14.570   5.018  22.987  0.0290 -0.1653 -0.0815
24698W        W31148  20.856   3.693  27.717  0.1839 -0.0423 -0.0420
24699W        W31149   8.421   7.287  14.728  0.2554 -0.0439  0.1209
24700W        W31150   1.291   0.212  10.797  0.0619 -0.2991 -0.0379
24701W        W31151  11.998   4.197   8.504  0.1104  0.2289 -0.1226
24702W        W31152  23.373   1.568  26.454  0.1038 -0.0167  0.2758
24703W        W31153  23.875   7.792  10.833  0.2808 -0.1236  0.1531
24704W        W31154  22.306   7.681  13.036 -0.2234 -0.3817 -0.3410
24705W        W31155   2.042   4.731  31.896  0.2010 -0.4668 -0.1327
24706W        W31156   7.817   1.637  29.506  0.0843  0.1798 -0.3190
24707W        W31157   3.867   5.573  31.910 -0.0881  0.2139  0.1632
24708W        W31158  15.090   4.171  20.882  0.0059 -0.2472  0.0058
24709W        W31159   6.195   7.459   9.819  0.1462 -0.1589 -0.1226
24710W        W31160   5.637   2.787  25.524 -0.3571 -0.1439  0.0380
24711W        W31161  14.465   2.765  28.770 -0.0001  0.4288  0.2284
24712W        W31162  17.084   3.459  24.458  0.1557 -0.3268  0.0300
24713W        W31163   9.548   2.561  27.944 -0.1147 -0.0157  0.4501
24714W        W31164  13.459   2.073  28.451 -0.0134 -0.2849 -0.0948
24715W        W31165  24.620   4.153  27.472  0.1651  0.0493 -0.3585
24716W        W31166  12.651   7.799  11.463  0.0822  0.1203 -0.1692
24717W        W31167  18.966   4.392  20.989 -0.2691  0.2945  0.0950
24718W        W31168  16.862   4.870   0.629  0.1385 -0.4151 -0.0343
24719W        W31169   0.351   3.715   5.152 -0.0590 -0.1880 -0.1302
24720W        W31170  20.083   4.310  21.785  0.2701 -0.2134 -0.2782
24721W        W31171   5.921   1.090   9.363 -0.2808 -0.0385  0.6349
24722W        W31172  18.762   6.131  20.191  0.0403  0.1916  0.3126
24723W        W31173  10.632   3.982  21.967  0.0453  0.1484 -0.0728
24724W        W31174  16.973   1.718   9.423 -0.0831 -0.1425  0.0735
24725W        W31175  15.794   1.581  16.002  0.1841 -0.0808 -0.1668
24726W        W31176  20.678   3.255   8.949 -0.0649 -0.0049  0.2926
24727W        W31177   3.798   2.939  30.065 -0.1668 -0.0491 -0.0151
24728W        W31178   3.869   5.320  26.833 -0.0533 -0.1952 -0.0349
24729W        W31179   5.413   0.817  18.751  0.1421 -0.0146  0.4034
24730W        W31180   1.156   5.060  32.070 -0.1698 -0.3583  0.2709
24731W        W31181  24.458   2.093   5.782 -0.1998  0.4381 -0.2534
24732W        W31182   1.704   6.642   5.881  0.1555 -0.0515  0.0642
24733W        W31183   8.504   4.923  11.331 -0.1025 -0.1703 -0.1945
24734W        W31184  10.812   6.716   0.610  0.0281 -0.0518  0.0797
24735W        W31185  21.832   6.600  24.878 -0.1267 -0.0081  0.1738
24736W        W31186  21.691   5.131   7.043  0.2099  0.5342  0.1371
24737W        W31187  13.727   6.158   4.245  0.0911  0.0655  0.1180
24738W        W31188   1.193   2.020  28.363  0.1952 -0.1914 -0.3105
24739W        W31189  18.019   4.840   4.410 -0.1803 -0.2445 -0.0470
24740W        W31190   0.047   0.536   5.647  0.0211  0.1959 -0.4037
24741W        W31191  13.346   3.477   0.338  0.1012  0.0109 -0.1995
24742W        W31192  11.048   3.007   1.653 -0.1760 -0.0128 -0.2279
24743W        W31193  24.681   0.853  30.129 -0.1713 -0.3080 -0.1072
24744W        W31194  17.912   5.142   2.689  0.0088 -0.1526  0.0747
24745W        W31195   2.409   1.224  23.566 -0.2192 -0.2204  0.1874
24746W        W31196  20.452   7.624  31.758  0.4219  0.0246  0.0881
24747W        W31197   2.526   2.614  28.200  0.0025 -0.0635 -0.2912
24748W        W31198  14.158   2.246   3.558 -0.2213 -0.0397  0.1603
24749W        W31199  23.326   1.294  25.031 -0.1124  0.1555  0.2485
24750W        W31200   6.965   1.976  16.894 -0.0124  0.2401 -0.0698
24751W        W31201  11.304   4.989   2.596  0.0279 -0.3150 -0.0043
24752W        W31202   0.946   7.383   6.050 -0.0914 -0.0436  0.1034
24753W        W31203   2.819   2.146  29.960 -0.0093 -0.2570  0.1750
24754W        W31204  17.168   2.270   2.176 -0.1117  0.3252  0.0276
24755W        W31205  15.595   1.887  32.420  0.1334  0.0474  0.2068
24756W        W31206  14.449   2.230  22.991 -0.1072  0.0746  0.0373
24757W        W31207  17.921   3.019  28.885 -0.1518 -0.1554  0.1656
24758W        W31208   6.605   1.710  27.907 -0.0463 -0.2990  0.1408
24759W        W31209  10.310   0.384   9.165 -0.2232  0.1037  0.1683
24760W        W31210  18.022   0.674  18.829  0.0273 -0.1739 -0.2158
24761W        W31211  15.512   2.858  32.201  0.2069 -0.2912  0.1690
24762W        W31212   6.470   0.197   9.959 -0.0377  0.0136 -0.0731
24763W        W31213  12.716   1.269   0.743 -0.1639 -0.3524  0.1101
24764W        W31214  17.985   6.017  16.898 -0.3858 -0.2095 -0.0636
24765W        W31215  17.040   4.512  21.878 -0.1676  0.0132  0.1334
24766W        W31216  10.261   7.579   3.011 -0.1332  0.0985 -0.0112
24767W        W31217   6.160   4.642  26.365  0.3127  0.0604 -0.3356
24768W        W31218   2.526   6.941   2.026 -0.2937  0.1844  0.1121
24769W        W31219   2.612   0.036  28.259 -0.4333  0.1392 -0.2621
24770W        W31220  19.051   2.637  15.340 -0.1212 -0.3105  0.1822
24771W        W31221  24.536   3.694   5.883 -0.2399  0.0040  0.0175
24772W        W31222  15.729   5.622  21.825  0.1425  0.0293  0.1038
24773W        W31223  20.680   0.752   0.840  0.0378 -0.0896 -0.0392
24774W        W31224  20.216   6.427   4.540 -0.0823 -0.2380 -0.2892
24775W        W31225  16.075   2.527  15.210 -0.1797  0.0238  0.2208
24776W        W31226   2.900   4.073  32.509 -0.2327 -0.0607 -0.3412
24777W        W31227  16.340   2.765  10.515 -0.1525  0.1159  0.2528
24778W        W31228  15.190   7.066  29.994 -0.1346 -0.1043 -0.1838
24779W        W31229  11.923   4.171  31.452 -0.1385  0.2177 -0.2561
24780W        W31230  13.338   5.913  19.379 -0.1591  0.0978 -0.0222
24781W        W31231  19.288   4.823  26.032  0.0495 -0.0162 -0.2070
24782W        W31232  13.956   1.453   0.618 -0.0839 -0.2456  0.1785
24783W        W31233  12.282   6.535   0.450 -0.0815 -0.0438  0.0001
24784W        W31234  22.204   2.397  11.671  0.1307 -0.3102 -0.0141
24785W        W31235  22.617   3.670  28.116 -0.0418  0.0984  0.1075
24786W        W31236   3.988   6.383   3.627 -0.1812 -0.0258  0.1352
24787W        W31237  18.145   4.657   5.267  0.1235  0.2609  0.2370
24788W        W31238  24.226   6.132  13.447  0.3363  0.1043 -0.3114
24789W        W31239  23.372   5.485  21.605  0.0771  0.1989  0.1337
24790W        W31240   7.268   1.441   4.755  0.1397  0.3451  0.1098
24791W        W31241  12.366   1.745  19.691 -0.0788 -0.1265 -0.0570
24792W        W31242   9.043   6.517  12.696  0.0933  0.2383 -0.1202
24793W        W31243   2.299   6.393  14.432 -0.0115  0.0639  0.1849
24794W        W31244  15.982   4.812  22.204  0.0813 -0.2490 -0.2068
24795W        W31245   0.161   6.222  14.269  0.5200  0.0504 -0.3149
24796W        W31246   8.920   6.426  24.109 -0.4187  0.0330  0.1569
24797W        W31247  15.666   5.474  18.045 -0.2262 -0.1465 -0.3410
24798W        W31248  10.042   2.765  10.803 -0.0280  0.0491  0.3725
24799W        W31249   6.902   2.008  13.629  0.1651  0.0357  0.0812
24800W        W31250   4.509   3.658  30.616  0.2000  0.3190  0.1439
24801W        W31251   7.304   4.014   1.217 -0.0670  0.0089 -0.0561
24802W        W31252  14.738   0.045  30.050  0.3341 -0.1481  0.0661
24803W        W31253  14.907   0.270   4.074  0.1823 -0.1076 -0.1396
24804W        W31254   0.776   6.305   0.704  0.1300 -0.0393  0.0561
24805W        W31255   6.621   7.524  14.306 -0.0633 -0.0568 -0.0815
24806W        W31256  24.708   0.288  14.098  0.1564 -0.0876  0.0061
24807W        W31257  24.752   1.507   0.880 -0.2057 -0.3070  0.3450
24808W        W31258  18.249   3.533  16.804 -0.0576  0.0049 -0.1431
24809W        W31259  19.038   6.285   8.530 -0.3078 -0.0965 -0.2338
24810W        W31260  24.211   4.848  32.010 -0.1961  0.2450 -0.1165
24811W        W31261   8.811   2.212   4.636 -0.1175 -0.0961 -0.2064
24812W        W31262   0.996   1.269   7.721 -0.2378 -0.2253 -0.3428
24813W        W31263   4.640   1.868   4.316 -0.1755  0.0006  0.0818
24814W        W31264  11.433   0.714   3.792 -0.5015 -0.2853  0.1374
24815W        W31265  23.374   6.262  23.676  0.0559  0.0972  0.0138
24816W        W31266   0.271   7.160   2.642  0.1629  0.1019 -0.1099
24817W        W31267  12.050   0.050   9.926 -0.1704 -0.1022 -0.0253
24818W        W31268   8.390   4.151   1.419  0.0620  0.0621 -0.1217
24819W        W31269   6.846   6.727  15.878  0.0044  0.1533  0.4416
24820W        W31270  10.440   5.495   2.866 -0.2214  0.0197  0.3458
24821W        W31271  19.873   2.251  23.506  0.2760 -0.0800  0.0107
24822W        W31272   5.076   6.216  11.024 -0.1073  0.0245 -0.0637
24823W        W31273  15.874   6.173  14.810 -0.0106 -0.4478 -0.0200
24824W        W31274   8.360   7.173  31.903  0.0184 -0.2980  0.1903
24825W        W31275  12.402   1.527  29.144  0.0184 -0.0326  0.5353
24826W        W31276   4.924   0.878  30.957  0.3689  0.0021 -0.0889
24827W        W31277   2.853   0.924   0.318  0.0601 -0.1115 -0.0230
24828W        W31278  20.029   1.692  25.529 -0.0887 -0.0862 -0.2218
24829W        W31279  20.930   3.092   0.810 -0.1061  0.2035 -0.2519
24830W        W31280  20.267   0.241  28.815  0.1229 -0.1569 -0.1295
24831W        W31281  12.928   5.576   8.080 -0.1466  0.0069  0.0683
24832W        W31282  19.593   0.336  23.872  0.1895 -0.1945  0.0324
24833W        W31283   0.255   3.278  15.511 -0.2738  0.1967 -0.2328
24834W        W31284   6.173   5.513  13.742 -0.3805 -0.0040  0.2996
24835W        W31285  20.450   2.592  18.522 -0.1387  0.1633 -0.0175
24836W        W31286  12.657   5.157   9.380 -0.0779 -0.0594  0.0266
24837W        W31287  11.773   6.382   8.868 -0.1914  0.2450 -0.2011
24838W        W31288  24.862   1.299   9.003  0.0097 -0.0515 -0.3453
24839W        W31289   2.194   4.709  10.494  0.0741  0.1808 -0.1411
24840W        W31290  15.385   5.311  22.731 -0.3497 -0.0265 -0.1929
24841W        W31291  21.224   7.645   0.624 -0.1091 -0.4269  0.1284
24842W        W31292  21.804   5.653   3.987 -0.2913  0.0376 -0.1089
24843W        W31293  17.733   4.219  28.193 -0.1706 -0.0545  0.2756
24844W        W31294  11.942   3.375   5.933  0.1560 -0.1042  0.4632
24845W        W31295   4.055   0.618  26.932  0.0218  0.2784  0.3997
24846W        W31296   7.601   7.282  15.332  0.1172 -0.0883 -0.1748
24847W        W31297  22.815   7.211  19.997 -0.4962 -0.2410  0.0404
24848W        W31298  16.050   4.023  15.928  0.1391 -0.1367  0.2006
24849W        W31299   0.847   5.518   9.135  0.1279 -0.3709  0.0159
24850W        W31300   6.294   1.955  31.022 -0.0857 -0.0507  0.1511
24851W        W31301  17.592   0.887  30.425 -0.2742 -0.0406 -0.2000
24852W        W31302  24.025   3.763  13.608  0.2823  0.1275  0.2080
24853W        W31303  20.708   6.925  23.626 -0.0627 -0.3119  0.0666
24854W        W31304  20.015   3.164   0.332 -0.0827  0.0927 -0.0231
24855W        W31305   4.616   7.563  12.402  0.0875  0.0820 -0.1610
24856W        W31306  15.508   4.873  22.460  0.0955 -0.0811 -0.0293
24857W        W31307  15.947   5.172  23.102  0.0468  0.0785  0.2703
24858W        W31308  13.718   0.621  22.976  0.1550  0.0230 -0.0897
24859W        W31309  13.830   6.592   1.109 -0.0513 -0.3048 -0.2858
24860W        W31310  20.960   6.719   6.788  0.0639  0.0087 -0.2344
24861W        W31311   4.233   3.400  28.274  0.1392 -0.1751 -0.0908
24862W        W31312   0.132   1.323   8.030  0.1154 -0.0671  0.1089
24863W        W31313  18.452   0.211  17.792  0.0071  0.0118  0.1756
24864W        W31314  14.704   5.154  31.987  0.2650 -0.1911  0.0951
24865W        W31315  17.124   4.837   3.886 -0.6177  0.1315 -0.2505
24866W        W31316  16.665   2.918  28.548 -0.0133 -0.2271  0.2067
24867W        W31317  24.952   6.128  32.190  0.0226  0.2297  0.2683
24868W        W31318   5.904   2.833   5.279 -0.0239 -0.0377  0.0546
24869W        W31319   3.473   4.447   7.341 -0.2659  0.1187 -0.0315
24870W        W31320   7.618   7.020  14.839  0.0011  0.0163  0.1197
24871W        W31321  13.205   0.187   2.696 -0.4002  0.1951 -0.0786
24872W        W31322  18.445   2.018  15.934 -0.3692  0.3658 -0.0039
24873W        W31323  11.573   2.669   0.975 -0.0964  0.0429  0.0529
24874W        W31324  15.754   0.134   5.037 -0.0079  0.0436  0.0847
24875W        W31325  17.289   0.611  31.096  0.0246  0.0425  0.0808
24876W        W31326   9.340   4.695  29.581  0.0170  0.3579 -0.1649
24877W        W31327  15.262   4.941   9.606  0.2325 -0.1424  0.0156
24878W        W31328   7.717   7.177   4.019 -0.0684  0.1571  0.3196
24879W        W31329  17.911   4.574   0.506  0.3366  0.0941  0.0869
24880W        W31330  20.490   4.617  17.989  0.2377  0.2786 -0.1459
24881W        W31331  12.949   3.056  22.767 -0.2696 -0.3455  0.0936
24882W        W31332  19.912   3.515  31.943  0.1943  0.1402 -0.0820
24883W        W31333  15.455   3.489  18.355  0.3211 -0.1307 -0.0004
24884W        W31334  14.777   0.655  24.609  0.2202  0.1762 -0.0209
24885W        W31335   3.637   1.657   0.954 -0.2031  0.1135  0.0033
24886W        W31336   7.084   7.334  30.921 -0.2237 -0.0886  0.1399
24887W        W31337  14.101   0.145  25.979  0.2303  0.2012 -0.1817
24888W        W31338   8.169   7.291   4.169  0.3848 -0.0409 -0.1088
24889W        W31339  22.541   1.203  23.497  0.2918  0.0294 -0.1118
24890W        W31340  11.762   3.486   1.511  0.1531 -0.0043  0.3052
24891W        W31341  16.850   1.028  15.601 -0.2319 -0.0153 -0.2998
24892W        W31342   9.591   1.796  25.123  0.1171  0.0000 -0.2145
24893W        W31343  17.329   7.049   8.705 -0.1244 -0.0765  0.3464
24894W        W31344  23.877   2.563  27.512 -0.2254 -0.0956  0.0897
24895W        W31345  20.100   0.449   9.570  0.0364  0.1425  0.2824
24896W        W31346   5.963   1.574   4.558 -0.1941  0.0641 -0.0509
24897W        W31347   5.382   2.110  23.547  0.0220 -0.0790 -0.2063
24898W        W31348   0.805   5.252  10.612 -0.1874 -0.0715 -0.2385
24899W        W31349   4.611   5.861  24.153  0.1469 -0.0075 -0.1443
24900W        W31350  22.244   4.904  20.178  0.1120  0.0345 -0.0775
24901W        W31351  16.472   4.145   9.265 -0.1205 -0.0342  0.1064
24902W        W31352  11.304   2.617  20.742  0.0150  0.0035  0.0325
24903W        W31353   3.195   2.411  13.465  0.3333 -0.3168  0.0348
24904W        W31354   7.707   0.569  30.116 -0.2172 -0.0326 -0.0351
24905W        W31355   0.825   7.423  22.506 -0.1230 -0.1719  0.0694
24906W        W31356  17.050   0.272   7.312 -0.3042 -0.0647  0.2928
24907W        W31357   8.186   7.275  12.506 -0.1455  0.1880 -0.0835
24908W        W31358  24.273   4.849  22.597  0.0225  0.1641  0.0885
24909W        W31359   8.799   5.712   9.441  0.0840  0.1631  0.0099
24910W        W31360  23.331   4.303   6.554 -0.1099  0.1626 -0.2903
24911W        W31361  15.998   6.572  19.861 -0.1910  0.0639  0.0626
24912W        W31362  23.512   3.533  21.300  0.1549  0.0030 -0.2589
24913W        W31363  10.867   6.288  29.562 -0.0755 -0.0814  0.0792
24914W        W31364   5.104   6.165   5.276 -0.1156  0.1242 -0.0795
24915W        W31365  10.799   4.738  24.312 -0.3002  0.0284  0.2010
24916W        W31366   4.437   5.667  15.794 -0.0466 -0.0769  0.3816
24917W        W31367  22.229   6.907  11.892 -0.4273 -0.1655 -0.0419
24918W        W31368  21.397   3.082  10.999 -0.0868 -0.0476  0.2536
24919W        W31369   1.617   0.890  31.824  0.3206  0.2668  0.0211
24920W        W31370  16.767   0.879   0.446  0.0301  0.0835  0.0008
24921W        W31371   6.953   1.755  28.649 -0.1006  0.2431 -0.2881
24922W        W31372  22.349   0.346  31.935  0.0898 -0.2166  0.0111
24923W        W31373  12.553   4.805  33.009  0.1758  0.3352 -0.1960
24924W        W31374  11.695   0.651  19.096  0.2795 -0.2527  0.1643
24925W        W31375  24.408   0.042  32.000  0.1997 -0.0409 -0.2080
24926W        W31376  11.348   4.407  22.473  0.1449  0.2896 -0.0816
24927W        W31377   0.824   1.857  15.462 -0.0211 -0.2277 -0.3782
24928W        W31378   1.996   5.745   6.250 -0.3027 -0.2219  0.3559
24929W        W31379   8.978   7.213   1.936  0.3102  0.0649  0.1550
24930W        W31380   7.274   5.473  25.153  0.1062  0.2139 -0.0695
24931W        W31381  24.105   4.150  32.566 -0.0622  0.1160  0.0907
24932W        W31382   5.857   3.307   2.693 -0.1547 -0.1968  0.1334
24933W        W31383   8.807   1.051  13.921  0.1859 -0.0620  0.0091
24934W        W31384  22.984   5.906  32.395 -0.4384  0.0623  0.1337
24935W        W31385  23.638   5.334   2.248 -0.0232  0.0285 -0.2733
24936W        W31386  17.254   5.316  28.979 -0.0889  0.2431  0.0321
24937W        W31387   3.517   6.403  23.215 -0.1411  0.2339 -0.0193
24938W        W31388  13.912   4.934  30.215 -0.2065  0.2006 -0.0299
24939W        W31389  19.675   4.537  32.933 -0.0291 -0.0251  0.0276
24940W        W31390   5.789   5.671   1.817 -0.1794 -0.0915  0.0310
24941W        W31391  23.178   5.151   5.159 -0.0661 -0.2601  0.1927
24942W        W31392  11.117   5.707  22.605 -0.2234 -0.1710 -0.3681
24943W        W31393  11.340   3.934   6.337  0.1025  0.4115 -0.1862
24944W        W31394   0.602   6.245  30.702 -0.1006 -0.0518 -0.0057
24945W        W31395   1.918   1.919   3.101 -0.0431 -0.1309  0.2791
24946W        W31396  24.700   3.896   1.645  0.1812 -0.0621  0.1310
24947W        W31397   2.356   7.397  23.065  0.3207 -0.2821 -0.0196
24948W        W31398  17.919   7.660  27.648  0.0724 -0.1811  0.0023
24949W        W31399  17.139   7.423  27.266 -0.0753  0.2079 -0.0626
24950W        W31400  23.384   1.485   8.109  0.1589 -0.1596 -0.1117
24951W        W31401  24.463   6.184   4.227  0.3170 -0.1320  0.3129
24952W        W31402   0.878   1.241  26.526 -0.0256 -0.1839 -0.1803
24953W        W31403  13.960   7.736  19.129  0.1653  0.1305 -0.0779
24954W        W31404  23.434   7.269  26.922 -0.1315 -0.0931  0.1298
24955W        W31405  17.787   5.671   5.083  0.2438 -0.0744 -0.2642
24956W        W31406   4.010   0.292   1.307  0.3356 -0.1400 -0.1342
24957W        W31407  10.007   5.773   3.107  0.0600 -0.2622 -0.0417
24958W        W31408   9.664   7.574   3.053 -0.1450 -0.0189 -0.1788
24959W        W31409  18.334   2.869  30.675 -0.0258 -0.0562  0.0711
24960W        W31410   3.510   7.478  32.776 -0.0892 -0.1657  0.1905
24961W        W31411  17.558   6.719   9.339  0.0206  0.0005  0.2881
24962W        W31412  18.859   4.436   5.671 -0.1985 -0.1020 -0.1878
24963W        W31413   4.608   7.012  28.163  0.1220  0.0959  0.0835
24964W        W31414  23.722   3.331  23.369 -0.1183 -0.0282  0.2105
24965W        W31415  16.631   1.302   7.769 -0.0081  0.1080  0.2918
24966W        W31416  12.798   5.524  29.870  0.0912 -0.0692  0.0404
24967W        W31417  11.903   2.422  30.615 -0.1143  0.1058 -0.0745
24968W        W31418   1.551   0.638   1.025  0.1854 -0.4142  0.0730
24969W        W31419  13.945   4.317   7.344  0.3972 -0.0028  0.0800
24970W        W31420  13.253   1.753  16.728 -0.2031  0.1739  0.2873
24971W        W31421  17.571   3.284  16.260  0.3816  0.0916 -0.0103
24972W        W31422  10.824   5.146   0.758 -0.0024 -0.0092 -0.0444
24973W        W31423  15.802   7.507  32.149 -0.1103 -0.1256  0.3598
24974W        W31424  16.367   4.076  27.693 -0.2667 -0.0895 -0.2216
24975W        W31425   0.087   4.001  25.183  0.2051  0.1007 -0.1882
24976W        W31426  18.577   3.385  30.405 -0.0190  0.0964  0.0602
24977W        W31427   0.954   7.698   5.641  0.2814 -0.0014  0.2399
24978W        W31428  13.979   2.853   6.950  0.1771 -0.1139 -0.0236
24979W        W31429  22.670   3.586  20.593 -0.1086  0.0438  0.2344
24980W        W31430  23.409   6.474  24.152 -0.1638  0.1069  0.1628
24981W        W31431  18.198   7.338  31.387  0.1917  0.2938  0.2257
24982W        W31432   4.796   1.631  31.139 -0.1001  0.1765 -0.2159
24983W        W31433  15.991   6.716  14.861 -0.0181 -0.3050  0.1404
24984W        W31434  24.052   5.191   5.640 -0.3834 -0.0914  0.1003
24985W        W31435   4.138   1.514  17.513 -0.1129  0.5600 -0.0640
24986W        W31436   8.819   0.610   9.286 -0.0022  0.0026 -0.1573
24987W        W31437  11.538   5.634   1.247 -0.0152  0.2100 -0.1485
24988W        W31438  15.298   3.817  19.509  0.1415  0.1194 -0.3072
24989W        W31439  12.535   2.468  25.668 -0.0262  0.0808  0.2352
24990W        W31440  22.309   7.032   3.865 -0.3627  0.0504 -0.2069
24991W        W31441  19.166   7.510  29.374  0.1474  0.0094  0.2564
24992W        W31442   4.713   4.901  24.273 -0.5697 -0.0254 -0.0406
24993W        W31443  13.098   5.375   1.782  0.2597  0.4260  0.0382
24994W        W31444  16.088   6.420   5.792 -0.1749 -0.0222 -0.0246
24995W        W31445  21.942   2.757  27.879  0.0570 -0.1582 -0.2863
24996W        W31446   5.260   5.674  17.194  0.0146 -0.1507  0.2276
24997W        W31447   1.116   5.742   6.803  0.0574  0.2401  0.2391
24998W        W31448   4.719   1.970  17.759 -0.0689  0.1105 -0.0664
24999W        W31449   2.847   1.615   7.852  0.0609  0.1330  0.4082
25000W        W31450  19.127   6.207  24.163  0.0695 -0.0397 -0.1715
25001W        W31451   0.295   0.268  32.722  0.0648 -0.0510 -0.3296
25002W        W31452  14.057   4.778  19.632  0.0694  0.1454 -0.0631
25003W        W31453   1.991   4.705   7.824 -0.1656 -0.1738 -0.1415
25004W        W31454  22.939   2.084  13.391 -0.0867  0.0169  0.1865
25005W        W31455  21.522   0.052  25.581  0.3012  0.0653  0.1234
25006W        W31456  19.855   3.598  17.481  0.2170 -0.0058  0.0617
25007W        W31457  23.808   6.679  30.368  0.3662  0.2640 -0.1460
25008W        W31458   1.300   7.728  14.898 -0.0475  0.2945  0.1949
25009W        W31459   9.015   2.219   2.771  0.1074 -0.1926  0.0724
25010W        W31460  12.105   0.442   8.004  0.1109 -0.1681 -0.1191
25011W        W31461   3.739   4.013  30.369 -0.0176  0.1776  0.1714
25012W        W31462   5.756   6.226  26.631  0.0508  0.2288  0.0612
25013W        W31463  17.999   2.314  17.795 -0.2070 -0.1841 -0.0270
25014W        W31464  13.100   5.415   5.697 -0.1169  0.0397  0.3701
25015W        W31465   8.639   7.106  22.321  0.0144  0.0139  0.3305
25016W        W31466   3.740   5.185   5.109 -0.2008  0.2289 -0.0891
25017W        W31467  13.958   5.769  28.628  0.0509 -0.2491 -0.2084
25018W        W31468  21.598   1.494  10.860 -0.1232 -0.0977 -0.0148
25019W        W31469  24.092   2.295   3.092  0.0444  0.1736  0.2364
25020W        W31470  18.462   1.430  18.454 -0.0374 -0.2485  0.1914
25021W        W31471   9.142   0.832  23.587  0.2591  0.0824  0.3092
25022W        W31472   8.767   4.861  12.536  0.3954  0.2503  0.1728
25023W        W31473   6.263   2.180   0.426 -0.0885 -0.0189  0.0826
25024W        W31474  10.179   4.185  20.366 -0.0079  0.0099 -0.4682
25025W        W31475  12.233   2.903  18.089  0.0891 -0.0890 -0.0318
25026W        W31476   0.701   0.881   6.534  0.2672  0.2657  0.0585
25027W        W31477  11.921   3.048   4.606  0.3183 -0.1638 -0.2812
25028W        W31478  23.888   4.378  27.952  0.0019  0.3575 -0.1474
25029W        W31479   4.060   1.580   0.077 -0.1057  0.2817  0.0554
25030W        W31480   2.554   1.978   8.038 -0.2122 -0.0455  0.1024
25031W        W31481   7.573   1.089   5.016  0.1353 -0.1977 -0.2824
25032W        W31482   3.163   7.712   8.642  0.2736 -0.1191 -0.1522
25033W        W31483  21.579   1.105  11.601 -0.1670  0.0722  0.0279
25034W        W31484   5.911   6.637   0.178  0.0837  0.2863  0.2430
25035W        W31485  21.442   3.893  24.716  0.1207 -0.1734  0.1574
25036W        W31486   7.137   2.628  29.065  0.1101 -0.0501 -0.1906
25037W        W31487   9.773   1.677   0.741 -0.1652 -0.2664  0.0571
25038W        W31488  15.690   3.538  23.708 -0.2076  0.2374  0.1579
25039W        W31489   3.113   6.409  29.679  0.4603  0.0082  0.0423
25040W        W31490  21.303   5.763   5.118 -0.1687  0.0053 -0.1037
25041W        W31491   9.785   3.794  29.842 -0.0367 -0.0843  0.2149
25042W        W31492  22.595   1.397  32.336 -0.3107 -0.0981  0.0119
25043W        W31493  22.836   5.754  26.371 -0.0917 -0.0571 -0.4522
25044W        W31494   2.112   0.318  16.728 -0.0462 -0.3457  0.2578
25045W        W31495  14.498   5.979  17.711  0.2202 -0.1986  0.0567
25046W        W31496   2.165   7.364   0.827  0.2567 -0.0717  0.2773
25047W        W31497  22.987   2.538  12.414 -0.1351 -0.1093  0.0528
25048W        W31498   9.181   1.875  31.321  0.1467  0.0548 -0.4504
25049W        W31499   1.106   3.594  32.447  0.2639  0.1452 -0.0319
25050W        W31500  18.836   7.606  32.502  0.0998 -0.0371  0.1832
25051W        W31501   4.816   5.676  32.415 -0.0456  0.0566 -0.0861
25052W        W31502   2.511   7.364  14.908  0.1412  0.3266 -0.0162
25053W        W31503   7.892   4.074   2.239  0.2821  0.0201 -0.3996
25054W        W31504   9.232   3.022  12.434  0.1491 -0.1255 -0.1649
25055W        W31505  18.582   1.662  24.424  0.0634  0.0606 -0.0561
25056W        W31506  20.163   4.424  19.779 -0.2617  0.1213 -0.0432
25057W        W31507   8.941   4.452   0.986  0.3393  0.4164  0.2371
25058W        W31508  18.310   6.355   1.694 -0.1177 -0.2148  0.1277
25059W        W31509  14.673   3.123  26.977 -0.0511  0.2498  0.0936
25060W        W31510  14.817   3.436   4.760  0.0232  0.0630 -0.0156
25061W        W31511   2.103   3.303  31.489  0.0464 -0.1721  0.0863
25062W        W31512  11.114   2.346  30.778  0.0451 -0.1148 -0.2931
25063W        W31513   0.280   3.979  26.370  0.3338  0.0689  0.1127
25064W        W31514   2.328   3.333   6.238 -0.2155 -0.0454 -0.1178
25065W        W31515   1.085   2.470  24.227 -0.0689  0.1211  0.1416
25066W        W31516   0.939   4.321  27.238  0.0304  0.0018  0.3823
25067W        W31517  23.020   3.962  20.487  0.3002 -0.0287 -0.0328
25068W        W31518  19.821   5.122  11.278 -0.2602  0.1009 -0.0700
25069W        W31519  17.795   1.888  27.715 -0.1170  0.0078 -0.3472
25070W        W31520  19.359   0.489  16.738 -0.0892  0.2621  0.2856
25071W        W31521  17.253   1.863  29.169  0.2720 -0.1687  0.1308
25072W        W31522  11.640   6.698  18.707  0.1699 -0.0115 -0.3212
25073W        W31523  22.624   3.547  21.804  0.1955 -0.3246 -0.2584
25074W        W31524  10.334   0.505   6.659  0.2385 -0.0827  0.1218
25075W        W31525  15.491   2.797   1.017  0.1250 -0.1906  0.1184
25076W        W31526  16.858   4.552  23.177  0.0380 -0.1582  0.1279
25077W        W31527  13.988   1.601   9.248  0.3329 -0.1969 -0.4851
25078W        W31528  20.271   1.063  18.524  0.0840  0.0690 -0.1040
25079W        W31529   5.431   6.515  10.847  0.3074 -0.0002 -0.0321
25080W        W31530  16.751   7.026  10.425 -0.4643  0.2046  0.2100
25081W        W31531  10.054   1.960  32.449 -0.1000 -0.0592  0.1551
25082W        W31532  22.906   6.187   0.254 -0.2405  0.1131 -0.0646
25083W        W31533  17.847   3.990   3.559 -0.1748 -0.1881  0.0077
25084W        W31534   1.012   3.806  29.801 -0.4023 -0.2867 -0.2491
25085W        W31535  18.586   0.750  28.807 -0.2396 -0.0005 -0.2205
25086W        W31536   7.892   2.837  11.696  0.1232 -0.1347 -0.3558
25087W        W31537  19.661   0.655  29.666 -0.2476 -0.2241  0.0581
25088W        W31538  10.939   7.641   7.637 -0.0447  0.2611 -0.0350
25089W        W31539  20.460   1.969  22.523  0.3321 -0.0775  0.0479
25090W        W31540  17.456   7.787  23.663  0.1965 -0.2005 -0.0321
25091W        W31541  12.541   1.030   9.881 -0.0890 -0.2351  0.0739
25092W        W31542  21.641   2.638  21.318  0.0570  0.0017  0.3162
25093W        W31543   1.181   2.856   8.968 -0.0965  0.3515  0.2074
25094W        W31544   3.023   1.313   9.704  0.1501  0.1838 -0.1666
25095W        W31545  20.042   7.335  21.857 -0.1543  0.0272  0.0789
25096W        W31546   7.506   0.531  30.787 -0.0215  0.0057  0.0296
25097W        W31547  18.394   1.240   3.800 -0.2097 -0.1775  0.0637
25098W        W31548   9.471   0.658  12.277 -0.0343  0.2501  0.1109
25099W        W31549  24.661   3.205  25.886 -0.0541  0.0133  0.0880
25100W        W31550  18.605   0.991  29.191 -0.2729 -0.2198 -0.0858
25101W        W31551  19.552   3.498  26.669  0.1254  0.0104  0.2924
25102W        W31552  20.722   1.371  25.009  0.1371  0.0541 -0.0821
25103W        W31553   6.434   3.094   0.784 -0.0066  0.0431 -0.0049
25104W        W31554   5.521   6.050  11.241 -0.0532  0.1620  0.1783
25105W        W31555   1.506   3.552  30.355  0.0409 -0.0268  0.1996
25106W        W31556   7.274   7.589   9.087 -0.1052  0.1005 -0.1397
25107W        W31557   0.729   7.081   7.696  0.2773  0.0019 -0.4000
25108W        W31558   1.854   5.556  30.797  0.0223 -0.0410  0.2036
25109W        W31559   9.436   3.334   2.937 -0.3929  0.3658  0.0056
25110W        W31560  21.865   7.104  20.375 -0.1360 -0.1782  0.1965
25111W        W31561   5.614   4.445   6.580 -0.0310 -0.0603  0.0136
25112W        W31562   4.265   6.978  15.666  0.1679 -0.1204  0.0977
25113W        W31563   4.911   1.529  24.143 -0.0180  0.1187  0.0696
25114W        W31564  12.015   7.408   3.183 -0.2288  0.5044  0.3711
25115W        W31565   6.794   2.578   2.019  0.3410  0.1623  0.1191
25116W        W31566   0.306   1.724   6.713 -0.0764 -0.2156  0.0568
25117W        W31567   2.827   4.378  29.566  0.0062  0.0362  0.1205
25118W        W31568  21.580   0.046   9.461  0.2148 -0.1677  0.3410
25119W        W31569  22.315   2.877  23.206 -0.1661 -0.0860 -0.1389
25120W        W31570   9.881   3.980  10.953  0.3607  0.2612  0.0674
25121W        W31571   4.413   4.020  32.674  0.1570  0.0187 -0.0705
25122W        W31572  10.942   2.412  19.390  0.0622 -0.0822  0.0999
25123W        W31573   1.797   0.836  11.309  0.2692 -0.1145 -0.2035
25124W        W31574  13.478   1.177  28.920  0.0488 -0.1553  0.0313
25125W        W31575  14.399   3.743  28.940 -0.1133 -0.0217  0.0957
25126W        W31576   2.160   0.363   6.402 -0.3762 -0.0516  0.0401
25127W        W31577  10.704   4.977   7.695 -0.0011 -0.2273  0.1039
25128W        W31578  13.129   0.342  17.194 -0.0617 -0.6491  0.0368
25129W        W31579  24.390   4.732  25.070 -0.0123  0.3406  0.1110
25130W        W31580  17.236   4.615   3.161 -0.1409 -0.1846 -0.2716
25131W        W31581  24.568   7.230   5.155 -0.1097  0.2217  0.0178
25132W        W31582  15.351   2.831  26.234  0.2217 -0.0224 -0.2553
25133W        W31583   0.722   2.307  11.242 -0.0556  0.1603  0.1699
25134W        W31584  13.495   6.599  11.094 -0.1526  0.2477  0.0769
25135W        W31585  21.570   3.119  26.511 -0.2524 -0.0893  0.2043
25136W        W31586   9.447   6.727  11.660 -0.0089 -0.2363 -0.0352
25137W        W31587   1.047   1.345   2.257 -0.3451  0.0782 -0.1626
25138W        W31588   0.412   6.761  14.843 -0.1474 -0.4427 -0.0007
25139W        W31589  24.298   5.360  21.817 -0.1112 -0.0951  0.3056
25140W        W31590  15.734   6.666  20.308  0.1477  0.1932 -0.1646
25141W        W31591   6.546   4.802  14.724  0.2358 -0.1203  0.0309
25142W        W31592  21.137   6.994  23.365  0.0079 -0.2056  0.2268
25143W        W31593   9.476   7.057   0.961 -0.3024  0.0289 -0.0288
25144W        W31594   0.018   2.690  32.071 -0.0907  0.0969 -0.1814
25145W        W31595  23.385   4.992   8.443  0.1979  0.0554  0.0236
25146W        W31596  23.397   1.376   7.573 -0.0136  0.2355 -0.0228
25147W        W31597  22.764   4.689   5.940  0.0786  0.0215 -0.0793
25148W        W31598  16.305   3.897   6.573 -0.1627  0.0357 -0.1515
25149W        W31599  10.575   3.615  32.498 -0.1827  0.3552 -0.1180
25150W        W31600   0.586   6.653  14.365 -0.1665  0.3528 -0.0375
25151W        W31601   3.058   2.462  12.857 -0.1152  0.0635  0.0004
25152W        W31602  14.800   6.171  16.778 -0.0094  0.0860 -0.1803
25153W        W31603   8.185   7.112   1.325 -0.0741 -0.1108 -0.1696
25154W        W31604  17.848   2.441   7.509 -0.0655 -0.0761  0.2440
25155W        W31605   1.435   2.884  26.694 -0.0116  0.1502 -0.1414
25156W        W31606   5.717   3.549   9.098  0.1395 -0.0166 -0.0478
25157W        W31607   3.089   3.694   4.885 -0.3172 -0.1749 -0.1348
25158W        W31608   4.704   1.753  13.783  0.2866 -0.1378 -0.2859
25159W        W31609   4.142   1.759  18.860  0.2071 -0.1123 -0.0478
25160W        W31610   4.461   1.985  11.853  0.0238  0.0202  0.0907
25161W        W31611  12.295   5.593   7.094  0.2040  0.2884  0.0396
25162W        W31612   0.425   1.454  12.787  0.1060  0.0933  0.2152
25163W        W31613  14.714   7.637  18.434  0.0352 -0.3517  0.3971
25164W        W31614  20.884   5.919   4.557  0.0274 -0.0770 -0.1134
25165W        W31615  15.833   5.148  32.759  0.3124  0.1265 -0.1819
25166W        W31616   2.166   1.287  13.948 -0.2077 -0.0127  0.3005
25167W        W31617  18.925   2.298  31.911  0.3086  0.2399  0.0491
25168W        W31618  21.925   0.261   2.584  0.0922  0.0827  0.0293
25169W        W31619  14.806   0.147   0.428 -0.1181 -0.1574  0.1825
25170W        W31620  17.339   3.148  19.128 -0.1002  0.0414 -0.0355
25171W        W31621  11.036   1.165   2.394 -0.1212 -0.5390  0.1308
25172W        W31622  16.827   3.368  31.986  0.1056  0.2938  0.0965
25173W        W31623  19.533   3.720   8.569 -0.0781 -0.0926 -0.0125
25174W        W31624  21.669   5.593  19.045  0.0359 -0.1407 -0.2027
25175W        W31625  18.300   4.835   5.728 -0.1434 -0.1040 -0.2374
25176W        W31626  22.668   2.865  22.375 -0.0741 -0.2931 -0.0868
25177W        W31627  20.586   5.399  17.400 -0.0614 -0.0485  0.0633
25178W        W31628  14.921   2.583   5.958  0.1721  0.1681  0.1936
25179W        W31629  16.088   4.171  29.337 -0.0187  0.0940  0.0965
25180W        W31630  16.388   7.212   7.513  0.1121 -0.0911  0.2480
25181W        W31631  14.302   5.543   6.801  0.0226 -0.0358  0.2366
25182W        W31632  22.070   6.461   1.233  0.0816 -0.1263 -0.2767
25183W        W31633  10.420   5.089  20.252 -0.0289  0.1815 -0.0263
25184W        W31634  16.744   5.868  22.807 -0.0592  0.1587  0.0538
25185W        W31635   7.042   2.388  28.545  0.0397 -0.0669 -0.1490
25186W        W31636  19.401   2.228  10.018 -0.2554  0.0256 -0.0789
25187W        W31637   4.264   5.086  27.136  0.0646 -0.0949  0.0122
25188W        W31638  21.988   6.870  24.367  0.0402 -0.0585 -0.0089
25189W        W31639   6.821   3.659  24.383  0.1306 -0.3428 -0.1555
25190W        W31640  11.585   2.035  19.029 -0.0959 -0.0337 -0.0985
25191W        W31641  24.152   6.967  13.561  0.1850  0.1921 -0.0776
25192W        W31642  18.644   5.222   7.372 -0.0175 -0.0369  0.0497
25193W        W31643   6.590   5.619  24.443  0.0151 -0.0744 -0.2534
25194W        W31644   7.976   5.988  32.339  0.1076 -0.1679  0.0257
25195W        W31645  17.769   1.405   7.938 -0.1298 -0.0814  0.1314
25196W        W31646  16.626   5.819   2.718 -0.0188  0.1185  0.4106
25197W        W31647   1.608   7.593   7.671 -0.1379  0.0219 -0.0668
25198W        W31648  18.229   3.504   1.505  0.0209 -0.2159  0.2110
25199W        W31649  10.301   5.675  19.002  0.2038 -0.0661  0.0344
25200W        W31650  20.659   5.848  30.621  0.1701  0.0461  0.1752
25201W        W31651   0.811   4.212   8.820  0.0516 -0.3441 -0.0050
25202W        W31652  10.871   2.354  22.886  0.0724  0.0704  0.0216
25203W        W31653  14.588   3.681  19.100 -0.2116 -0.0599 -0.2362
25204W        W31654   1.422   4.586  27.209  0.0858 -0.0431  0.1100
25205W        W31655  17.546   3.044  30.191  0.1479 -0.1638  0.0750
25206W        W31656  15.537   1.087  17.312  0.0840  0.0082  0.0328
25207W        W31657  23.162   1.113  29.783  0.0634 -0.1723 -0.3468
25208W        W31658   3.230   1.106  16.469  0.0651 -0.1874 -0.0526
25209W        W31659  12.273   0.310  19.702 -0.1503  0.0650 -0.0342
25210W        W31660   8.499   2.049  23.377  0.2243 -0.0058 -0.2948
25211W        W31661  21.428   4.400  19.108  0.0389 -0.1708  0.0838
25212W        W31662  13.477   1.785  10.173  0.0561 -0.0864  0.1967
25213W        W31663   2.918   2.069  31.649  0.0475 -0.0162 -0.1116
25214W        W31664  24.935   3.570  14.972 -0.1865  0.2442 -0.0980
25215W        W31665  23.262   5.952   7.100 -0.1413  0.1601  0.0071
25216W        W31666  13.563   5.565   9.586  0.1361 -0.0411  0.1304
25217W        W31667   7.991   7.105  13.843  0.1095 -0.0788 -0.2793
25218W        W31668  21.398   3.561  18.301  0.0443  0.0652 -0.1172
25219W        W31669   4.507   0.105  24.345  0.0066  0.0052 -0.3456
25220W        W31670  18.372   7.119  21.921  0.1501 -0.0413  0.0805
25221W        W31671   7.953   4.139  31.865  0.1564 -0.0341 -0.3016
25222W        W31672  20.293   4.296   4.206  0.0809  0.1778  0.0951
25223W        W31673  22.706   3.038  21.633  0.0407 -0.0460  0.3061
25224W        W31674  16.808   7.099  26.821 -0.1163 -0.1836  0.2071
25225W        W31675   2.488   4.595  23.981  0.2236  0.0595  0.1658
25226W        W31676  16.239   4.794  26.195 -0.1698  0.0757  0.2973
25227W        W31677   3.426   3.924  31.712 -0.0506 -0.2025  0.1333
25228W        W31678  20.495   0.432  11.006  0.1667 -0.0337 -0.2215
25229W        W31679   2.101   1.106  11.692 -0.1393 -0.1545 -0.0942
25230W        W31680  13.011   5.347  21.066  0.1450  0.1256  0.2202
25231W        W31681  14.157   0.342  31.282  0.2043  0.0394 -0.2077
25232W        W31682   6.021   6.296   7.340 -0.0546  0.1156  0.5237
25233W        W31683   0.432   4.332   4.383 -0.0101 -0.0892  0.0728
25234W        W31684  11.927   5.877  25.617  0.2001 -0.0192 -0.1202
25235W        W31685  16.771   3.343  18.537 -0.2982  0.0117 -0.0605
25236W        W31686  24.189   0.195  11.572 -0.1346  0.0602  0.0632
25237W        W31687   1.187   5.028  26.892  0.0117 -0.2853 -0.4526
25238W        W31688  12.475   2.469   8.544  0.1074 -0.2271  0.0190
25239W        W31689  11.511   2.398  28.496 -0.2072 -0.0337  0.1159
25240W        W31690   2.731   5.028   7.175  0.2651  0.3456  0.1186
25241W        W31691  22.013   2.076   3.395 -0.2049 -0.0792  0.0993
25242W        W31692  15.421   6.632  20.780  0.4451 -0.1275  0.1559
25243W        W31693  17.258   2.148  29.621 -0.1788 -0.3575  0.1266
25244W        W31694   1.018   4.984   4.009  0.0415 -0.0978 -0.0548
25245W        W31695   3.276   7.138   0.008  0.0426  0.1073 -0.1633
25246W        W31696   5.548   3.103  17.689 -0.1670  0.1745 -0.2088
25247W        W31697  12.139   6.575   2.896  0.1600  0.1098 -0.3076
25248W        W31698   5.766   5.142  32.959  0.2195 -0.0683  0.2730
25249W        W31699  15.151   3.582   2.678 -0.0869 -0.0437  0.1178
25250W        W31700  24.866   5.331  15.467 -0.0096 -0.1141  0.0276
25251W        W31701  13.412   5.083  30.923  0.1412  0.1143  0.1856
25252W        W31702  17.710   1.486   2.533  0.0736  0.1600  0.3412
25253W        W31703   6.344   5.118  10.684 -0.0068  0.0645  0.1169
25254W        W31704  18.264   1.009  32.215  0.2017  0.4125  0.0312
25255W        W31705  19.558   1.493   0.098  0.0389 -0.3207  0.0072
25256W        W31706   7.666   2.364  26.024 -0.1052 -0.0564 -0.1612
25257W        W31707  15.117   5.345  18.687 -0.1759 -0.0511 -0.2882
25258W        W31708  18.255   2.564  20.106 -0.0080 -0.3123  0.2256
25259W        W31709  20.443   6.310  18.318 -0.2581 -0.1076  0.1798
25260W        W31710  12.912   4.411  28.807  0.2646  0.0363 -0.0815
25261W        W31711  23.654   3.793  10.808  0.3385 -0.0513  0.0967
25262W        W31712  21.348   2.402  29.367  0.1030 -0.1124  0.1552
25263W        W31713   7.193   6.834   4.639 -0.6140 -0.0876 -0.0322
25264W        W31714   1.942   1.741  24.123  0.0686 -0.3589 -0.2199
25265W        W31715   9.583   1.168   7.395 -0.3114 -0.0675  0.0568
25266W        W31716   5.605   2.840  28.031  0.2709  0.0554  0.1416
25267W        W31717   0.195   6.891   2.084  0.3226 -0.0022  0.0675
25268W        W31718   2.519   5.660   4.809  0.3381  0.4324  0.3293
25269W        W31719  21.860   0.107  23.272  0.2668  0.2795  0.2793
25270W        W31720  10.471   6.975   8.695 -0.4138 -0.2107  0.3471
25271W        W31721  23.775   3.503  12.047  0.1948 -0.0084 -0.3463
25272W        W31722   9.734   7.052  25.669 -0.1113 -0.2204 -0.1553
25273W        W31723  19.268   2.488  22.190  0.2967  0.2119 -0.0382
25274W        W31724  12.738   1.718   4.990 -0.1950  0.0974  0.3830
25275W        W31725  16.895   3.671   6.543  0.0174  0.0926  0.4341
25276W        W31726   0.502   7.401   5.795  0.1758 -0.0458 -0.0999
25277W        W31727   4.189   7.198   1.841 -0.0360  0.1338  0.2529
25278W        W31728  22.896   3.898   2.590  0.2269 -0.1639 -0.3281
25279W        W31729  17.350   1.080   1.768 -0.1619  0.2547 -0.1195
25280W        W31730   7.361   4.860   2.479  0.0832  0.1507 -0.1712
25281W        W31731  14.262   0.901  18.671  0.1197 -0.1258  0.2318
25282W        W31732  10.608   4.639  11.878  0.0193  0.1083  0.0589
25283W        W31733  19.431   2.651  29.221 -0.1578  0.0398  0.0656
25284W        W31734  11.024   6.065  31.798 -0.0637  0.0370 -0.2640
25285W        W31735   0.665   0.435  28.323 -0.0273 -0.2554  0.1538
25286W        W31736  17.848   5.150  24.839 -0.3539 -0.1259  0.1404
25287W        W31737  20.072   7.739   4.371  0.2129  0.0140 -0.1134
25288W        W31738  18.679   4.709  17.579  0.2332 -0.3425 -0.0116
25289W        W31739  18.238   6.163  31.152 -0.0647 -0.0911 -0.1770
25290W        W31740  18.678   0.539  23.154  0.3301 -0.0187 -0.1429
25291W        W31741   1.840   7.274   0.428 -0.0711 -0.2630 -0.0330
25292W        W31742   3.001   3.609  31.665 -0.1142  0.1525  0.1484
25293W        W31743  21.840   4.416   8.060 -0.0479 -0.0028 -0.1226
25294W        W31744  20.355   4.792  29.058 -0.1248  0.2310 -0.1290
25295W        W31745  23.455   6.743  31.339  0.1417 -0.2038 -0.1761
25296W        W31746  15.637   3.583   8.795 -0.3005 -0.1066  0.1085
25297W        W31747   5.412   4.390  23.951  0.0843  0.1526  0.0173
25298W        W31748   9.189   3.777  14.995  0.1091  0.2800  0.0613
25299W        W31749  17.609   1.783  10.394 -0.1801 -0.0088  0.1418
25300W        W31750   5.024   0.386  12.325  0.0117  0.2160  0.0552
25301W        W31751  23.102   3.623   1.164  0.0839 -0.0738 -0.0990
25302W        W31752   7.890   0.198  24.056  0.0162  0.0530  0.2759
25303W        W31753  17.306   4.241  19.269  0.1647 -0.0371 -0.0295
25304W        W31754   8.767   5.482  23.738  0.0094  0.1387  0.3535
25305W        W31755  24.538   3.184  29.817  0.0272  0.2284 -0.1567
25306W        W31756  19.766   1.808  31.829 -0.1342 -0.3381 -0.1575
25307W        W31757  20.406   3.400  28.424  0.0865  0.1433 -0.1232
25308W        W31758   2.685   4.818   3.749  0.0167  0.0300 -0.1553
25309W        W31759  18.793   1.392  32.068 -0.0598 -0.0077  0.0814
25310W        W31760  15.891   6.719  21.570 -0.0273 -0.1715  0.0794
25311W        W31761  12.508   4.455  21.536 -0.0777  0.0300 -0.0038
25312W        W31762   7.781   6.729  26.980  0.0136  0.3172 -0.2051
25313W        W31763  13.922   3.329  26.487  0.1391  0.1722  0.0297
25314W        W31764  22.268   4.138  32.711 -0.0319 -0.1968  0.1159
25315W        W31765  17.965   3.652   9.424  0.0463  0.1168 -0.4914
25316W        W31766  17.032   1.329  15.198  0.3264  0.2324  0.2348
25317W        W31767  20.623   7.551   1.348 -0.1549 -0.1417  0.1864
25318W        W31768  22.741   2.717   5.287 -0.1349 -0.1174  0.0911
25319W        W31769   9.731   5.165  30.249 -0.0690 -0.3713 -0.2980
25320W        W31770   0.787   0.290  13.175 -0.0912 -0.2862  0.0084
25321W        W31771  13.056   7.644   6.068 -0.0403  0.1580  0.3183
25322W        W31772  17.142   6.668  19.583 -0.0248  0.0240  0.1513
25323W        W31773   1.481   6.143  28.044  0.1473 -0.0595 -0.0017
25324W        W31774  16.693   5.351  20.836  0.3492  0.1341  0.1408
25325W        W31775   3.939   4.345  16.393  0.0795 -0.0125 -0.0906
25326W        W31776  19.527   2.082   0.818 -0.3684  0.1055 -0.0881
25327W        W31777  22.478   5.218   7.542 -0.1007  0.0572 -0.0627
25328W        W31778   7.026   5.215   8.517 -0.2968  0.1392 -0.2792
25329W        W31779   0.090   1.744  25.273  0.2736 -0.0766 -0.3445
25330W        W31780  21.144   7.705  29.135 -0.2694 -0.0218 -0.0461
25331W        W31781   4.250   1.751   1.503  0.1573 -0.1021 -0.1926
25332W        W31782   7.419   0.208  22.588 -0.0281 -0.0318 -0.1808
25333W        W31783  16.788   3.765   2.259 -0.1267  0.1437  0.1931
25334W        W31784   4.340   7.313  16.537  0.2760 -0.0015  0.0033
25335W        W31785  21.542   4.578  26.915  0.1212 -0.0448  0.2095
25336W        W31786  17.451   5.530  32.085  0.0435 -0.3335  0.2009
25337W        W31787  20.922   5.233  30.322 -0.0351 -0.2570 -0.1236
25338W        W31788  10.323   2.130  21.860  0.1449  0.0709 -0.1455
25339W        W31789   0.188   1.863  22.518  0.1771  0.2470  0.3831
25340W        W31790  17.221   0.570   7.886  0.0192 -0.1119 -0.3269
25341W        W31791  19.358   4.231  20.698  0.1756  0.2438  0.1546
25342W        W31792  18.387   3.601   2.320 -0.2392 -0.3908  0.3409
25343W        W31793   4.761   2.041  29.822  0.0930 -0.1777  0.0231
25344W        W31794   6.584   2.596   0.606  0.1378 -0.0750 -0.1674
25345W        W31795   4.485   4.656   1.539  0.3208  0.0699  0.1823
25346W        W31796   1.508   5.990   7.869 -0.1465  0.3303  0.0732
25347W        W31797  19.891   3.639  22.750 -0.0065 -0.1775  0.0444
25348W        W31798   0.358   1.409  29.849 -0.0468 -0.1397 -0.1459
25349W        W31799   1.043   7.401  29.028 -0.1831 -0.2302  0.3872
25350W        W31800  15.761   0.667  30.209 -0.1186 -0.2406 -0.0918
25351W        W31801  16.751   4.212  24.882  0.2986 -0.0676 -0.2578
25352W        W31802   5.402   7.340   7.469  0.0949 -0.3953 -0.0887
25353W        W31803  12.425   6.437  19.567 -0.2542  0.2525  0.3549
25354W        W31804   7.950   3.731   7.976 -0.0717  0.0430  0.0059
25355W        W31805   3.734   1.769  28.855 -0.0419 -0.1241 -0.1410
25356W        W31806  10.799   2.470  29.658 -0.2977  0.1286  0.3846
25357W        W31807  14.790   5.540   9.267 -0.0649 -0.0555 -0.1130
25358W        W31808   7.801   6.639  11.717 -0.1215 -0.0527 -0.1681
25359W        W31809   5.340   5.569   1.723  0.2566  0.1215  0.0001
25360W        W31810   6.080   6.805   0.676  0.1417 -0.1305 -0.2420
25361W        W31811   4.369   3.532  25.457 -0.1235  0.2533  0.2481
25362W        W31812  15.722   5.568   8.354 -0.0700 -0.2306 -0.0620
25363W        W31813   5.645   7.310   9.276  0.2607  0.1202 -0.0532
25364W        W31814   2.774   0.865  32.340 -0.0080  0.3358 -0.0756
25365W        W31815  20.275   2.109  25.747 -0.1420  0.0207  0.0078
25366W        W31816   4.849   2.650   6.873 -0.2960 -0.1143 -0.3464
25367W        W31817  12.077   0.999  31.388  0.1974 -0.1450 -0.0874
25368W        W31818  18.871   7.643  21.197  0.0075 -0.0824  0.2719
25369W        W31819   0.736   2.284  32.670  0.1866 -0.1364  0.3382
25370W        W31820  20.680   4.483  19.815  0.1436  0.0686 -0.2885
25371W        W31821  18.645   5.376  24.315 -0.6449  0.0360 -0.2684
25372W        W31822   4.966   5.274  24.110 -0.1004 -0.3189 -0.1743
25373W        W31823  12.119   6.263   1.441 -0.1773  0.1806  0.1945
25374W        W31824  11.590   5.255  28.792 -0.0036 -0.0263  0.2418
25375W        W31825  13.209   7.058   8.947  0.2198  0.1925 -0.1845
25376W        W31826   8.790   6.572   2.971  0.0694 -0.0953  0.0139
25377W        W31827   2.924   7.143  32.198  0.1699  0.1119  0.1877
25378W        W31828  20.236   4.854   2.681 -0.0185  0.1659 -0.1840
25379W        W31829  17.025   7.241  28.740 -0.0941 -0.0976  0.0068
25380W        W31830  16.946   1.286   0.742 -0.0836  0.1354  0.1608
25381W        W31831   3.315   0.173   8.140  0.0398 -0.1998  0.1187
25382W        W31832   4.375   5.404  17.926  0.1173 -0.1928 -0.0883
25383W        W31833   0.835   6.734   6.011  0.0487 -0.0961  0.2657
25384W        W31834  21.233   7.378   9.595  0.3329  0.0741  0.1116
25385W        W31835  17.744   1.698  19.598 -0.0590 -0.1068 -0.0062
25386W        W31836  24.132   3.204  29.535 -0.0540 -0.3754 -0.0322
25387W        W31837  22.766   0.412  32.209  0.1929  0.0439  0.1880
25388W        W31838   1.775   1.780   9.845 -0.0856  0.0761  0.0187
25389W        W31839   8.050   5.971   8.917  0.2840 -0.1005 -0.1757
25390W        W31840   0.393   2.707  22.420  0.0688  0.0618  0.3579
25391W        W31841  15.417   2.333  21.520  0.0447  0.1063  0.2352
25392W        W31842   9.337   4.545  27.660 -0.0059 -0.0935  0.1712
25393W        W31843  20.120   2.601  10.565 -0.1396 -0.2070  0.2790
25394W        W31844  15.015   3.957   4.667 -0.1602  0.0050  0.2826
25395W        W31845  13.053   1.395   2.254 -0.0715  0.1625 -0.1366
25396W        W31846  19.998   4.568   0.425  0.3472  0.2451  0.1424
25397W        W31847  13.503   0.461  27.335 -0.1828 -0.3460  0.2653
25398W        W31848  20.713   0.647   3.934 -0.0490 -0.0836 -0.1227
25399W        W31849   4.739   5.591  23.768  0.0691 -0.4738 -0.0556
25400W        W31850   4.678   4.306  27.881 -0.1364 -0.0103  0.1571
25401W        W31851  11.054   4.709   1.799  0.0272  0.0364 -0.1924
25402W        W31852   4.865   4.808  32.191 -0.1992  0.0780 -0.0378
25403W        W31853   4.142   1.328   1.268 -0.1241  0.0083  0.1502
25404W        W31854   9.174   2.532   4.112 -0.2642 -0.0612 -0.2382
25405W        W31855  24.250   6.233  27.053 -0.0837  0.2390  0.1257
25406W        W31856   2.274   0.342   2.301  0.2368 -0.0709  0.5005
25407W        W31857   3.266   1.944   1.938 -0.0821  0.0014  0.0222
25408W        W31858  16.098   5.331   8.676  0.0825 -0.0286  0.1137
25409W        W31859  21.202   5.898  30.126  0.0935 -0.1756  0.1326
25410W        W31860  21.186   1.680   1.931  0.2425 -0.0378 -0.1650
25411W        W31861  18.789   3.744   9.895  0.2383 -0.0646 -0.1588
25412W        W31862  23.919   3.350  28.817  0.1143  0.0775  0.0731
25413W        W31863  16.489   5.381  17.440 -0.0068  0.2122  0.0436
25414W        W31864   1.829   3.098   0.399 -0.2888  0.0636 -0.3103
25415W        W31865   4.694   2.561   2.511 -0.4270  0.0280  0.3612
25416W        W31866  18.711   3.010  24.554  0.2696  0.0049  0.1482
25417W        W31867  11.867   0.993  26.433 -0.4752 -0.0395 -0.2216
25418W        W31868  12.809   0.752  26.794  0.3736  0.3152  0.1209
25419W        W31869   8.809   5.891   2.466  0.0065  0.0044  0.0830
25420W        W31870   7.234   6.059   9.847  0.0030 -0.1153  0.0243
25421W        W31871  12.584   7.493   9.391  0.5934 -0.2256  0.1720
25422W        W31872  12.360   3.371   0.588  0.1669 -0.2093  0.2349
25423W        W31873  11.894   5.979  25.067 -0.2129 -0.2070 -0.0524
25424W        W31874  12.881   5.965   2.530  0.0308  0.2283  0.4503
25425W        W31875  13.346   5.251  25.614 -0.3315  0.0796  0.0342
25426W        W31876  22.311   7.325   6.590  0.0615  0.1078 -0.2089
25427W        W31877  23.669   7.085   5.106 -0.0029 -0.1275 -0.0882
25428W        W31878   2.022   0.866  22.993 -0.0607  0.1512 -0.1086
25429W        W31879   4.626   6.554   6.925  0.6110 -0.0472 -0.0635
25430W        W31880   6.468   6.747  30.870  0.1592  0.1526 -0.2236
25431W        W31881  11.365   4.857  33.006 -0.2323 -0.2322 -0.2973
25432W        W31882  20.246   6.220   2.263  0.0356  0.1256 -0.1263
25433W        W31883   7.520   3.487  30.550  0.2798  0.3044  0.2952
25434W        W31884   2.573   3.090  27.974  0.1288 -0.1007 -0.3595
25435W        W31885   1.482   2.850   9.799 -0.0840 -0.1921  0.1556
25436W        W31886   2.061   2.526   3.196 -0.2446  0.1356 -0.0931
25437W        W31887  12.425   3.079  20.982 -0.2083 -0.0297  0.1722
25438W        W31888  21.297   4.523  27.872 -0.3167  0.0476 -0.0868
25439W        W31889   8.200   6.451   0.697  0.1708 -0.2222  0.0804
25440W        W31890  17.528   7.532  19.346 -0.0667 -0.3020  0.0957
25441W        W31891   6.142   0.271  23.359 -0.2983 -0.1224 -0.0226
25442W        W31892  19.170   0.308  25.467  0.2556  0.0782 -0.0058
25443W        W31893   8.740   0.385   5.722  0.1341  0.1856 -0.2886
25444W        W31894   6.799   5.626   8.255  0.1969 -0.1174  0.0481
25445W        W31895   7.458   2.138  13.695  0.2008 -0.1630  0.0663
25446W        W31896  23.065   7.183  11.563 -0.1867 -0.2182  0.2487
25447W        W31897   8.794   2.385  29.786  0.0200  0.1321  0.0239
25448W        W31898  12.965   1.397  27.336  0.2059  0.0661 -0.0185
25449W        W31899   2.422   1.016  15.702  0.1001  0.1913 -0.4175
25450W        W31900  19.614   5.644   8.264 -0.0081  0.0330  0.1063
25451W        W31901  11.309   7.715  28.299  0.0146  0.0490  0.3449
25452W        W31902   1.802   0.072   5.929  0.3029  0.1866 -0.1214
25453W        W31903  18.374   7.464  17.281 -0.1178  0.3877  0.0089
25454W        W31904  22.446   2.779  27.863 -0.2545 -0.0865  0.1320
25455W        W31905  15.090   2.355  29.449  0.1179 -0.2539  0.2872
25456W        W31906  12.709   6.025  30.710  0.1719  0.0474 -0.1791
25457W        W31907  19.996   0.521   7.844  0.4393  0.0033 -0.1266
25458W        W31908  17.552   4.004  28.646  0.1219  0.1822  0.0860
25459W        W31909   5.115   0.302   6.966  0.0034 -0.3818 -0.1091
25460W        W31910  20.338   3.100  22.936 -0.2065 -0.2613 -0.0725
25461W        W31911  16.888   0.765   9.723 -0.1035  0.1053 -0.1030
25462W        W31912  13.746   1.821  17.624 -0.2641  0.0329  0.0342
25463W        W31913   2.778   6.119   0.611 -0.0613 -0.1997 -0.0555
25464W        W31914  22.130   4.796  27.171 -0.3025  0.1079  0.0614
25465W        W31915  11.793   5.849  31.029 -0.0585 -0.2120  0.1234
25466W        W31916  20.682   5.238  30.737  0.1252  0.1787 -0.0561
25467W        W31917   1.197   2.040  24.549  0.1228  0.2168 -0.1847
25468W        W31918  19.566   3.333  20.104 -0.1500  0.0172 -0.2846
25469W        W31919  19.778   2.635  26.500  0.0626 -0.2337 -0.1278
25470W        W31920  17.086   1.985   6.351 -0.0352 -0.1884  0.0058
25471W        W31921  14.426   2.033  23.456 -0.2037 -0.3644 -0.0578
25472W        W31922   0.682   4.028   6.296 -0.3066 -0.2404  0.0950
25473W        W31923   4.113   6.748   0.157  0.1207 -0.0613 -0.0692
25474W        W31924   1.341   3.654   8.575  0.0293 -0.0549  0.0065
25475W        W31925   4.673   6.723   6.407 -0.1244 -0.2437 -0.1201
25476W        W31926  22.678   6.471  14.172  0.3580 -0.0021 -0.0165
25477W        W31927  12.540   2.744   3.968  0.1425 -0.2041  0.2407
25478W        W31928  15.098   2.724  14.481  0.0327 -0.3033 -0.0605
25479W        W31929  24.525   2.648  23.419  0.1942  0.1175  0.0857
25480W        W31930  16.732   6.322   5.335 -0.0156  0.0086  0.0212
25481W        W31931   4.705   3.908  22.315 -0.0199 -0.0063 -0.1820
25482W        W31932  19.996   6.644  31.491 -0.0157  0.2806  0.0818
25483W        W31933   1.402   7.067  10.154 -0.2429 -0.0535  0.1793
25484W        W31934  10.246   0.228  10.168  0.2502  0.0486 -0.0308
25485W        W31935  22.935   0.468  25.858  0.3490 -0.0412 -0.0082
25486W        W31936   1.235   0.642  31.421 -0.2470 -0.0266 -0.1106
25487W        W31937   1.074   4.591  27.609  0.0625  0.1579 -0.0394
25488W        W31938   3.254   7.446   1.607  0.5061  0.3846  0.3238
25489W        W31939  13.313   2.282   3.952 -0.0707 -0.1619 -0.2653
25490W        W31940   3.795   6.492  13.626 -0.3392 -0.0065  0.2204
25491W        W31941  19.635   3.820   1.059  0.1744  0.1753 -0.0131
25492W        W31942  19.466   0.822   3.381 -0.1313  0.3048 -0.2728
25493W        W31943  12.376   3.024  26.515  0.3030  0.1114 -0.3815
25494W        W31944  10.587   1.564  22.290 -0.0272 -0.0630 -0.2613
25495W        W31945  21.155   6.366  20.834 -0.0277 -0.0700  0.0681
25496W        W31946  14.419   4.307   4.200  0.0173  0.0645 -0.0668
25497W        W31947  14.922   7.415  19.323  0.1877  0.1129  0.1132
25498W        W31948  12.100   0.451  10.417 -0.1392 -0.1666  0.2021
25499W        W31949   8.587   7.728  29.475 -0.1529 -0.0929 -0.0941
25500W        W31950   4.456   1.099  12.139 -0.0056 -0.1307 -0.2506
25501W        W31951  22.499   0.337  18.948  0.1161  0.0899 -0.0628
25502W        W31952  23.624   5.351  14.124 -0.1637 -0.1806  0.2145
25503W        W31953  19.999   1.548  21.373 -0.0604  0.2609 -0.1316
25504W        W31954   4.413   4.475  24.369 -0.5036 -0.0954 -0.0590
25505W        W31955  21.010   5.387   9.187 -0.0244 -0.0633 -0.0445
25506W        W31956  24.614   0.296  30.016 -0.4381 -0.0260  0.1851
25507W        W31957  18.531   7.529  28.465  0.0221  0.0610 -0.4733
25508W        W31958  16.885   0.622  24.807 -0.2498 -0.2790  0.1935
25509W        W31959   7.283   3.595   6.485  0.1332 -0.1084 -0.0572
25510W        W31960  16.001   5.930  25.423  0.1916 -0.0931 -0.0220
25511W        W31961   1.165   0.237   2.468  0.0154 -0.0839  0.2530
25512W        W31962  23.699   5.287   1.712  0.1227  0.0131 -0.3650
25513W        W31963   7.916   1.196  31.847 -0.1608  0.0197  0.0734
25514W        W31964  22.090   5.702  32.261 -0.3011  0.1579 -0.2400
25515W        W31965   0.195   7.729  15.214 -0.2083  0.3719 -0.0476
25516W        W31966  14.923   0.972  23.815  0.0980 -0.0941  0.0378
25517W        W31967   9.630   5.973  14.510 -0.2400  0.1059 -0.0144
25518W        W31968   8.187   4.376  14.009  0.3235  0.1547 -0.0965
25519W        W31969  24.233   5.806  28.407 -0.0548  0.0008 -0.3163
25520W        W31970  16.560   4.345  14.652  0.0145 -0.1143  0.0210
25521W        W31971  15.674   1.392   8.622 -0.0206 -0.1119 -0.0608
25522W        W31972  20.718   7.442  20.311 -0.1286  0.0862 -0.0113
25523W        W31973   4.087   2.437  12.007  0.0487  0.0086  0.1350
25524W        W31974   4.667   3.205  25.674  0.2037  0.1236  0.3855
25525W        W31975  14.666   5.262   8.782 -0.5558 -0.1229 -0.0007
25526W        W31976  23.280   6.652  20.559 -0.0073  0.0501  0.2156
25527W        W31977  20.984   2.248  10.802  0.0625  0.0304 -0.0161
25528W        W31978   2.772   0.066  14.930  0.0748  0.2016 -0.0052
25529W        W31979   9.386   6.130  23.932  0.0436 -0.2500  0.0553
25530W        W31980   0.780   6.336  25.082 -0.2631  0.0175 -0.0873
25531W        W31981   1.987   4.861  26.342 -0.1013 -0.1238 -0.1629
25532W        W31982  12.600   5.976  28.238  0.2227  0.0578  0.0684
25533W        W31983   2.618   0.033  13.602  0.0662  0.1326  0.0946
25534W        W31984  15.423   7.645  18.618  0.0406  0.3766 -0.5167
25535W        W31985   7.511   0.606   7.925  0.0754 -0.0622  0.1177
25536W        W31986  20.625   3.892   3.330  0.2018 -0.1272  0.1241
25537W        W31987  14.171   6.297  32.712  0.2667 -0.0234 -0.0969
25538W        W31988  23.496   7.425  22.251  0.1805 -0.1153  0.1828
25539W        W31989  20.404   6.645  22.593 -0.0924 -0.3223  0.0780
25540W        W31990   6.430   7.042   9.494 -0.3983  0.1298  0.0238
25541W        W31991  14.013   6.536  24.691  0.2926  0.0592 -0.1994
25542W        W31992  16.254   4.789   1.832 -0.3968 -0.0477 -0.2270
25543W        W31993  22.112   0.558  27.344 -0.0904  0.2061 -0.2269
25544W        W31994  12.838   1.361  19.637  0.0640 -0.0672  0.0369
25545W        W31995  16.946   1.793  16.137  0.2242 -0.2611 -0.0868
25546W        W31996   0.959   1.514  26.099  0.2195 -0.2795  0.2114
25547W        W31997  11.105   4.653   4.584  0.1950  0.2078  0.0403
25548W        W31998  24.276   0.074  27.262 -0.0218 -0.0677  0.2683
25549W        W31999  11.603   5.629  32.565 -0.0939  0.2437 -0.1021
25550W        W32000  22.413   5.085   4.350  0.0550 -0.0225 -0.1167
25551W        W32001  17.010   3.364   7.715  0.0900  0.2932 -0.0199
25552W        W32002   9.740   4.595  31.565 -0.0595  0.0276  0.0789
25553W        W32003   2.472   5.937   3.131  0.0436 -0.0511  0.1393
25554W        W32004  23.801   4.655  14.046 -0.4093 -0.0018 -0.1504
25555W        W32005  22.748   3.927  21.533  0.0089  0.0107  0.0935
25556W        W32006  12.003   7.629   5.312 -0.1702 -0.1462 -0.2328
25557W        W32007  15.037   5.427  16.508  0.0256 -0.1625  0.1991
25558W        W32008   9.397   2.304  10.348 -0.0811  0.0265 -0.0139
25559W        W32009  17.623   2.150  32.778 -0.0267 -0.1559 -0.0898
25560W        W32010   2.677   4.988   6.180 -0.1136 -0.2130  0.1093
25561W        W32011   9.145   6.850  29.365  0.0044 -0.0701 -0.3137
25562W        W32012  19.223   2.515   2.926 -0.1418  0.0196 -0.2394
25563W        W32013   8.628   6.212  22.694 -0.3028 -0.2251 -0.1016
25564W        W32014  16.246   2.226  20.902  0.0403  0.0504  0.1217
25565W        W32015   2.014   5.481   6.783  0.2416  0.0439 -0.0470
25566W        W32016   8.156   0.713  29.544 -0.3008  0.1100 -0.1468
25567W        W32017  24.373   2.728   4.396 -0.4101 -0.0669  0.0701
25568W        W32018   0.753   3.224  13.788 -0.4472 -0.1157 -0.0899
25569W        W32019  11.192   6.604   4.079 -0.1309 -0.0229 -0.0982
25570W        W32020   8.847   6.642  22.717 -0.1876  0.2498  0.0905
25571W        W32021  24.964   3.297   1.610  0.1632  0.1535 -0.1150
25572W        W32022   7.040   7.347   2.247 -0.0362  0.0068 -0.0836
25573W        W32023   6.007   1.501  32.914 -0.1608 -0.0638  0.0084
25574W        W32024  14.682   2.475  10.072  0.2911 -0.0166 -0.0337
25575W        W32025  14.652   7.199   0.176  0.0947 -0.0573 -0.1467
25576W        W32026   8.229   6.229  11.484  0.0712  0.2022 -0.3593
25577W        W32027   3.066   2.756   2.472 -0.0346  0.4371 -0.0870
25578W        W32028  11.530   6.923  31.564 -0.1753  0.3929  0.1606
25579W        W32029  12.227   6.056  18.592 -0.1381 -0.0185 -0.0738
25580W        W32030  18.532   1.423  30.548 -0.0602 -0.1508 -0.0105
25581W        W32031   1.244   0.613   7.036  0.1476 -0.1872  0.2457
25582W        W32032   5.192   2.980  25.296 -0.0501 -0.0602  0.0104
25583W        W32033  17.341   4.256   0.289 -0.0092  0.1695 -0.0207
25584W        W32034   9.730   5.612  22.945  0.2772  0.2322 -0.3963
25585W        W32035   7.158   3.327  14.208  0.0440 -0.1320  0.1884
25586W        W32036   1.374   4.134  11.049 -0.0084  0.3434  0.1090
25587W        W32037   5.965   2.432  27.876  0.1602  0.0350  0.1898
25588W        W32038   8.361   4.067   7.881  0.1903 -0.0435  0.2549
25589W        W32039   3.666   2.476   0.681  0.0255  0.0487 -0.1402
25590W        W32040  10.196   4.899   1.365  0.3510 -0.0258 -0.0434
25591W        W32041  23.862   6.046  32.934  0.1974  0.0225  0.2399
25592W        W32042  16.773   6.179   6.474  0.0197 -0.3213  0.1734
25593W        W32043   1.987   1.011   2.758  0.2669 -0.1000 -0.0741
25594W        W32044  19.650   7.417   4.157 -0.1900 -0.1345  0.1282
25595W        W32045   9.935   0.008   3.408  0.3168  0.2264  0.3541
25596W        W32046  14.355   6.691  20.756  0.0378  0.0074  0.1111
25597W        W32047   9.811   3.720   5.188 -0.1739 -0.1259 -0.1848
25598W        W32048  13.146   4.985   2.631 -0.1084 -0.0135  0.1134
25599W        W32049   1.487   0.801  29.408  0.0636  0.1154  0.1466
25600W        W32050  19.434   4.677   6.487  0.1215 -0.0414  0.1338
25601W        W32051   2.514   3.186   1.959 -0.0552  0.3066 -0.2248
25602W        W32052   9.769   5.365   7.814 -0.2793  0.3041 -0.1419
25603W        W32053  11.993   5.089  29.748 -0.1064  0.3761 -0.2231
25604W        W32054   7.958   5.765  13.950 -0.2351 -0.0459 -0.1012
25605W        W32055  21.781   3.720   3.252 -0.0573  0.1917 -0.0375
25606W        W32056   4.107   6.790   2.215 -0.0663  0.1011 -0.1125
25607W        W32057   8.199   0.026  11.394 -0.2272 -0.0578 -0.0177
25608W        W32058  16.381   7.267  27.797 -0.0080 -0.1041  0.0935
25609W        W32059  20.189   1.092  23.743 -0.1050  0.1212  0.2470
25610W        W32060  21.320   1.250   9.863  0.0170  0.2421 -0.2263
25611W        W32061   8.618   5.143  24.961 -0.1184 -0.2629 -0.0034
25612W        W32062   2.497   2.883  14.466 -0.1405 -0.1202  0.1231
25613W        W32063  14.400   4.812   5.602 -0.0773 -0.0365 -0.2804
25614W        W32064   8.587   2.615   5.854 -0.5312 -0.0645 -0.1661
25615W        W32065  22.210   1.446   6.116 -0.1974 -0.0006 -0.0600
25616W        W32066  19.981   0.979   9.408  0.0906  0.0628 -0.0377
25617W        W32067  18.407   2.038  15.076  0.1016  0.1256  0.2123
25618W        W32068  20.612   6.799  28.101  0.1053  0.3054  0.1628
25619W        W32069  18.582   3.870   8.026  0.0841 -0.1404  0.1182
25620W        W32070  16.355   2.975  10.048  0.0689  0.1740 -0.0847
25621W        W32071  16.037   1.179   9.351  0.0158  0.0228 -0.1594
25622W        W32072   6.461   5.835   0.166  0.5998  0.1733  0.0630
25623W        W32073   1.018   2.185  10.265 -0.1194  0.3406  0.1621
25624W        W32074   3.504   0.962  26.528 -0.1598 -0.0801 -0.2372
25625W        W32075  23.322   1.606  12.635 -0.1711 -0.0259  0.2477
25626W        W32076   8.512   4.337  31.816 -0.1323  0.0198  0.1025
25627W        W32077  22.304   2.403  23.461  0.1632 -0.3117 -0.2325
25628W        W32078  16.171   5.610   2.887  0.0555  0.4022  0.2172
25629W        W32079  17.471   5.855  24.595 -0.1504  0.0381  0.1255
25630W        W32080   1.447   2.992   7.541  0.1849 -0.0633 -0.1020
25631W        W32081  21.558   7.793   7.311 -0.3014 -0.1544  0.0898
25632W        W32082   0.333   6.303   6.421 -0.0569 -0.2286 -0.0955
25633W        W32083  15.956   2.390  25.551  0.1049  0.0150 -0.1566
25634W        W32084   1.721   1.662  12.261 -0.3102  0.0764 -0.1305
25635W        W32085  12.366   1.669   3.048  0.1292  0.0630  0.0416
25636W        W32086   6.100   3.838  17.609 -0.1857 -0.2268 -0.3769
25637W        W32087   9.405   3.586  14.013 -0.0790  0.1580  0.0196
25638W        W32088  15.338   4.139  19.892  0.3558  0.0690 -0.1450
25639W        W32089  12.498   7.669   8.561  0.0120 -0.0502  0.4185
25640W        W32090   6.949   1.313   2.018 -0.2320 -0.0306  0.1541
25641W        W32091   6.884   1.398  14.278 -0.1665  0.1474 -0.0815
25642W        W32092  24.815   2.817   4.100  0.3356  0.4258 -0.1436
25643W        W32093  13.047   3.067  18.952 -0.1778 -0.0123 -0.1107
25644W        W32094  16.047   0.693   5.655  0.0025  0.2739  0.0598
25645W        W32095  20.941   0.245   8.516  0.3002  0.2427  0.1486
25646W        W32096   3.710   1.863   4.337  0.0310  0.2254 -0.3521
25647W        W32097   6.885   6.505  26.827  0.3077  0.2369 -0.1898
25648W        W32098  15.085   4.734  23.345 -0.1424  0.1198  0.1261
25649W        W32099   1.907   6.849  25.898 -0.0434  0.0366  0.0429
25650W        W32100  16.182   5.655  27.571 -0.1376 -0.2431  0.1454
25651W        W32101   8.756   6.937   0.071  0.0852  0.3771 -0.1063
25652W        W32102   8.983   6.315   7.395  0.1109  0.2766  0.2570
25653W        W32103   8.732   3.516   9.848  0.0693  0.1482  0.3307
25654W        W32104   8.596   7.594  14.322  0.2397 -0.1564  0.1545
25655W        W32105  19.818   4.191  31.235 -0.3815  0.0130 -0.2149
25656W        W32106  15.263   5.730  21.416 -0.2410  0.0399 -0.4008
25657W        W32107  11.740   6.095   6.201 -0.1513 -0.2650 -0.0744
25658W        W32108  18.465   3.538  29.876 -0.0226 -0.1923  0.0378
25659W        W32109  24.104   0.442  28.970 -0.3732 -0.2664  0.1404
25660W        W32110   2.359   7.728  28.929 -0.1783  0.2618  0.0344
25661W        W32111  12.244   3.773  10.971  0.2258 -0.2229  0.2744
25662W        W32112  22.503   2.200   2.229  0.2184  0.0623 -0.0508
25663W        W32113   3.062   0.766  15.328 -0.2250  0.0034 -0.2425
25664W        W32114   9.783   2.052   7.646  0.1225 -0.4339  0.0202
25665W        W32115   6.073   5.965   7.898  0.0900  0.1163 -0.1337
25666W        W32116  10.300   6.760   9.697 -0.2180  0.2208 -0.0608
25667W        W32117   6.038   0.403  26.700 -0.2276 -0.2419  0.3809
25668W        W32118   2.136   2.462  10.133 -0.2229  0.0399  0.1904
25669W        W32119  15.848   3.626   3.314  0.0187 -0.0521 -0.1868
25670W        W32120   3.921   3.213  29.588  0.1735  0.1238  0.4775
25671W        W32121  10.276   0.730  26.129  0.0564  0.3332  0.0937
25672W        W32122   2.159   5.704   8.482 -0.2004  0.1544  0.2884
25673W        W32123  22.593   7.340  23.291 -0.0675 -0.0626  0.1427
25674W        W32124  13.683   7.526   6.410 -0.0843  0.1603  0.0070
25675W        W32125  22.626   2.170  29.042  0.3194  0.0104 -0.0729
25676W        W32126  23.733   2.976   1.933  0.0407  0.0731  0.1719
25677W        W32127   3.723   7.739  30.631 -0.3858 -0.1449 -0.1170
25678W        W32128   5.997   4.359  28.457  0.0208 -0.0525 -0.1365
25679W        W32129  24.583   0.940   1.503  0.2291 -0.2906  0.2031
25680W        W32130  18.572   1.858  20.126  0.3271 -0.0205  0.0258
25681W        W32131   6.473   2.317  24.482  0.0864  0.0737  0.0092
25682W        W32132   5.714   4.551  28.095 -0.0127  0.2813 -0.1902
25683W        W32133   7.113   3.792  30.487 -0.1236 -0.1492  0.0348
25684W        W32134   1.508   0.450  25.784  0.4320  0.1825 -0.1865
25685W        W32135   5.214   4.403  32.162  0.0441  0.0220  0.3806
25686W        W32136   7.774   4.925   2.902  0.0370  0.2105  0.0653
25687W        W32137   5.996   3.518  25.615  0.0534  0.0547  0.1282
25688W        W32138  19.503   0.538   7.692  0.0351  0.2675 -0.2885
25689W        W32139   5.556   1.060  11.047 -0.3313  0.1326 -0.1094
25690W        W32140  16.802   2.650  19.777 -0.2560 -0.3615 -0.0209
25691W        W32141   0.840   5.487  27.843 -0.0892 -0.2143  0.2800
25692W        W32142  11.504   4.267  10.409  0.1184 -0.1952  0.1581
25693W        W32143   4.346   6.241  31.312 -0.1479  0.1436  0.0717
25694W        W32144  15.450   4.214  24.853  0.1633  0.1226 -0.0214
25695W        W32145   1.007   1.974  24.029  0.0442  0.2102  0.0014
25696W        W32146  20.858   3.004  30.091 -0.1359  0.0459  0.1567
25697W        W32147  15.518   6.936   0.658  0.0274  0.2353 -0.2188
25698W        W32148   6.280   2.772  24.436  0.0522 -0.0175 -0.0420
25699W        W32149  19.638   0.880   6.955 -0.0266  0.0136  0.0736
25700W        W32150  22.493   7.794   4.111  0.2467  0.2985 -0.0278
25701W        W32151   8.975   4.608  22.465  0.2646  0.0805 -0.0992
25702W        W32152  22.619   6.724   3.487  0.1146  0.1466  0.0102
25703W        W32153  13.270   7.215  28.730  0.1065  0.3138  0.0396
25704W        W32154  15.343   0.100  14.750 -0.0969 -0.1519  0.0798
25705W        W32155  24.589   5.369  22.259 -0.0114  0.0281 -0.2328
25706W        W32156  24.289   2.863  20.443  0.2643  0.2358  0.0449
25707W        W32157  12.470   7.222  18.047  0.1523  0.2871  0.2352
25708W        W32158  24.929   0.910  29.134 -0.0951  0.2470  0.1275
25709W        W32159   4.507   6.434   1.259 -0.0683 -0.1146 -0.1137
25710W        W32160  24.710   1.432   7.706  0.2789  0.0324  0.0774
25711W        W32161  16.403   0.237  15.710 -0.1443  0.2721 -0.0651
25712W        W32162  24.665   6.543   7.286  0.1410 -0.0051 -0.1679
25713W        W32163  23.093   7.689   4.163 -0.1299 -0.0512 -0.1427
25714W        W32164  13.226   3.383  30.659  0.2948 -0.1343 -0.0727
25715W        W32165  16.153   7.678   6.749 -0.2554  0.4413  0.0348
25716W        W32166  24.061   6.224   2.453 -0.1604  0.1360  0.0874
25717W        W32167  18.360   3.323  23.532 -0.3105  0.0166  0.0506
25718W        W32168  13.304   2.033  25.506  0.1363 -0.0299  0.1004
25719W        W32169  15.740   0.583  23.957 -0.0395 -0.3721  0.0421
25720W        W32170  20.338   0.264  21.307  0.0308 -0.1216  0.1874
25721W        W32171   3.006   6.932   8.067  0.2572 -0.0283 -0.3089
25722W        W32172  10.900   0.886   3.153 -0.0785  0.1478  0.0321
25723W        W32173  12.737   4.978  11.179 -0.3224  0.2356 -0.1093
25724W        W32174  15.210   5.333  18.202 -0.1953  0.0359 -0.2231
25725W        W32175  16.313   6.083  26.320 -0.0686 -0.3059  0.0190
25726W        W32176  19.726   6.480  26.389  0.1933  0.3628 -0.0463
25727W        W32177   9.064   0.903   2.243  0.2537  0.3655 -0.2533
25728W        W32178   7.358   2.271  10.035 -0.2887  0.0277  0.0570
25729W        W32179  21.902   4.920  21.527  0.1550 -0.1442  0.0753
25730W        W32180  24.757   2.497   8.485 -0.0747  0.1127 -0.1243
25731W        W32181  23.682   5.759   2.599  0.0973  0.0206  0.0360
25732W        W32182  19.632   3.332  27.286  0.1540  0.2765  0.1305
25733W        W32183   8.780   5.773  22.130 -0.0119 -0.3475  0.1670
25734W        W32184   7.212   4.080  13.325  0.0974 -0.2308 -0.0990
25735W        W32185  24.935   0.421   8.785  0.2123  0.0192  0.0445
25736W        W32186   9.972   2.399  21.634  0.0324 -0.0362  0.0189
25737W        W32187  15.082   7.208   8.970  0.2430 -0.0997 -0.2406
25738W        W32188  23.965   6.053  12.995  0.0831  0.0828 -0.2738
25739W        W32189   5.664   4.063  30.104 -0.2549  0.0657 -0.0139
25740W        W32190  17.825   6.656  24.241 -0.1730 -0.1835 -0.0965
25741W        W32191   3.824   3.652  18.246  0.3172 -0.2881 -0.1342
25742W        W32192  18.463   7.226   8.573  0.1365  0.1504 -0.2434
25743W        W32193   5.237   4.897  17.528  0.1211 -0.2007 -0.1538
25744W        W32194   7.907   3.088   5.853  0.3535 -0.2275  0.1145
25745W        W32195  21.331   5.452   1.974 -0.2839 -0.3835  0.2168
25746W        W32196  20.256   1.843  29.411 -0.6401  0.2788 -0.3992
25747W        W32197   2.706   1.018   5.168  0.0419  0.0888  0.2670
25748W        W32198  18.357   0.960   2.700 -0.2798  0.0737  0.1753
25749W        W32199  10.735   2.937   5.067  0.1036 -0.0311  0.0635
25750W        W32200   6.562   0.099  14.732 -0.1793  0.1547  0.0770
25751W        W32201  13.980   4.768  15.861 -0.2613 -0.0603  0.0099
25752W        W32202   0.014   0.555  22.632 -0.0517  0.1956  0.0287
25753W        W32203   2.424   2.667   4.697  0.1084 -0.1334 -0.1325
25754W        W32204  14.631   2.180  15.368 -0.2015 -0.4079 -0.2620
25755W        W32205   4.210   2.604  29.112 -0.0898 -0.0154  0.0375
25756W        W32206   5.019   7.450  22.548 -0.0360  0.1608  0.2317
25757W        W32207  18.816   5.371   3.234 -0.0150  0.0466  0.0629
25758W        W32208  23.092   3.292  21.974 -0.0888 -0.1270  0.2029
25759W        W32209   3.239   1.864  17.173 -0.3247 -0.1879  0.2103
25760W        W32210   0.800   6.286  15.066  0.3593  0.0573  0.1473
25761W        W32211   8.216   3.140   4.654  0.1352 -0.2522  0.0441
25762W        W32212   8.143   6.957  32.305  0.2084 -0.0842 -0.0487
25763W        W32213  22.354   6.217   5.891 -0.0226 -0.2428 -0.0192
25764W        W32214   7.642   1.817  29.935 -0.1979 -0.1236  0.0285
25765W        W32215  23.578   5.798  32.185  0.1849 -0.1266 -0.3417
25766W        W32216   3.593   6.407  29.959  0.1003  0.1887  0.1947
25767W        W32217   3.108   5.170   7.927  0.0852  0.0803  0.0193
25768W        W32218   2.137   3.879   3.788  0.0269  0.1971 -0.1444
25769W        W32219   5.049   4.408  31.315  0.1960  0.2046  0.3462
25770W        W32220   3.391   0.043  16.041  0.4686 -0.2840  0.1326
25771W        W32221   5.233   5.394  10.431 -0.1928  0.0365  0.1321
25772W        W32222   8.087   3.912  24.338  0.1616 -0.0055  0.0873
25773W        W32223   4.369   5.279  26.123 -0.1282  0.0743 -0.0113
25774W        W32224  24.677   3.882  10.710  0.0041 -0.1486  0.1305
25775W        W32225   8.929   5.320   4.507 -0.2715 -0.2732  0.2141
25776W        W32226   6.940   5.882   4.478 -0.1557 -0.0990  0.2233
25777W        W32227  18.599   4.504  19.010  0.1370  0.2749  0.2140
25778W        W32228  18.521   2.429  18.596 -0.0749  0.2745  0.1464
25779W        W32229  21.116   0.242   5.828  0.1975  0.2784  0.2177
25780W        W32230  13.584   1.944  18.110 -0.1322 -0.0945 -0.0361
25781W        W32231   4.791   2.513  15.274 -0.0426  0.0820  0.1383
25782W        W32232  15.331   0.946   2.693 -0.0787  0.0678  0.3978
25783W        W32233  19.881   2.240  30.986  0.2978  0.1573  0.3117
25784W        W32234   0.743   0.189  25.680 -0.2656 -0.0742 -0.3395
25785W        W32235  24.002   3.090   4.692  0.1625  0.1275  0.1195
25786W        W32236  18.854   0.229  24.655 -0.1387  0.1921  0.1076
25787W        W32237   0.418   2.190  32.250  0.1309  0.1577  0.0977
25788W        W32238   3.013   7.196  26.858 -0.0053  0.0134  0.2367
25789W        W32239   2.047   4.140  31.616  0.0968 -0.0449  0.0844
25790W        W32240  15.402   3.779  24.001  0.1704  0.1495 -0.3309
25791W        W32241  13.350   6.039   8.226 -0.0727 -0.0400 -0.0797
25792W        W32242  12.988   3.927  26.899 -0.0158  0.1672 -0.2711
25793W        W32243   8.305   6.620   5.366  0.0021 -0.2028 -0.1552
25794W        W32244  21.776   0.353   1.103 -0.0276  0.0043  0.1071
25795W        W32245  22.023   2.866  11.694 -0.4078 -0.3401  0.1009
25796W        W32246   9.885   6.379  32.279  0.2159 -0.2098 -0.0816
25797W        W32247  20.717   5.680  26.768  0.1699  0.0206  0.3188
25798W        W32248   2.024   2.187  27.242 -0.0974 -0.0157  0.0082
25799W        W32249  24.517   0.702   7.209  0.1926  0.1041  0.0037
25800W        W32250   9.212   4.713  10.327  0.0043 -0.3124  0.4033
25801W        W32251   2.844   4.874  16.544  0.1604  0.3868  0.5041
25802W        W32252  20.223   5.875   1.502 -0.0946  0.1409  0.1861
25803W        W32253   7.109   3.725  13.722  0.0491  0.3236  0.2638
25804W        W32254   5.918   2.775  32.618  0.2749  0.0500 -0.0517
25805W        W32255   2.294   0.365  32.700 -0.1979  0.3870 -0.0215
25806W        W32256  17.001   6.252  15.777 -0.1178  0.4630 -0.0148
25807W        W32257  14.218   0.655  28.406  0.0678  0.2329  0.0755
25808W        W32258  12.700   0.392  31.472  0.0576  0.4259 -0.1893
25809W        W32259  12.518   3.471  32.524  0.0848  0.1241  0.2131
25810W        W32260   9.155   3.337  31.463 -0.1104  0.3026  0.2205
25811W        W32261   6.473   1.999  17.502  0.1820 -0.1249  0.2248
25812W        W32262  19.562   5.107  24.325  0.2001  0.1866  0.0188
25813W        W32263   9.631   6.415  24.960 -0.1308  0.0063 -0.1511
25814W        W32264  21.030   5.865   6.554 -0.0803 -0.0653  0.2977
25815W        W32265  22.140   0.944   6.353  0.1449  0.0823  0.0511
25816W        W32266   5.777   0.339  15.834  0.3958 -0.2600  0.0618
25817W        W32267  16.645   2.668  16.372 -0.0910 -0.0330 -0.3543
25818W        W32268  23.376   6.957  28.866 -0.3190  0.1655  0.3311
25819W        W32269  18.814   1.497   7.067  0.5606  0.0097  0.3353
25820W        W32270  16.137   1.254  17.228 -0.1044  0.1804  0.0260
25821W        W32271  18.565   3.546   9.287 -0.2677 -0.0537  0.3580
25822W        W32272   0.613   0.470  24.654  0.0661  0.0080 -0.0523
25823W        W32273  21.758   3.808  22.106  0.0868 -0.1351 -0.1742
25824W        W32274   6.443   7.679   8.128 -0.3266 -0.0076  0.1419
25825W        W32275  22.792   2.485   2.919  0.1649  0.0641 -0.0231
25826W        W32276  17.401   2.349   0.535 -0.1294 -0.0186 -0.0256
25827W        W32277   9.943   6.555  10.191 -0.1243  0.2629 -0.1154
25828W        W32278   8.766   3.722  24.913  0.1014  0.0461  0.2629
25829W        W32279  12.378   2.340   5.444  0.0980 -0.1170  0.4657
25830W        W32280   8.416   7.582  24.983 -0.0976 -0.1985 -0.0997
25831W        W32281   3.706   7.310  30.241 -0.1563 -0.3073 -0.0070
25832W        W32282   4.382   7.219   2.987  0.1337  0.2201  0.0882
25833W        W32283  19.854   0.243  26.132  0.1324  0.2647  0.0892
25834W        W32284   1.644   0.547  32.828  0.0405  0.0964 -0.1753
25835W        W32285  18.125   4.700   8.623 -0.0849  0.0788 -0.2626
25836W        W32286   2.921   2.720  31.090 -0.1813  0.0368 -0.0150
25837W        W32287   2.943   3.685  14.303  0.1202 -0.1050  0.2582
25838W        W32288  16.880   7.517  31.295  0.1322  0.0561 -0.2549
25839W        W32289   2.392   6.249   7.127 -0.1847 -0.2054  0.0367
25840W        W32290   3.853   0.046  13.997  0.1039 -0.1358 -0.0407
25841W        W32291   0.779   2.585   8.968 -0.4332  0.0425 -0.0971
25842W        W32292   1.183   2.031   5.091 -0.0378 -0.0506 -0.1263
25843W        W32293  11.465   3.987  20.812 -0.0918 -0.1749  0.0417
25844W        W32294  21.772   5.733  21.403 -0.0883 -0.0678  0.2265
25845W        W32295  19.846   2.823   3.829 -0.0315  0.0892 -0.0717
25846W        W32296  21.586   0.069  29.257 -0.0875  0.0352 -0.0535
25847W        W32297  22.401   7.178  29.245  0.0041  0.0271  0.1193
25848W        W32298   0.784   4.726  12.167 -0.1404  0.1207  0.0843
25849W        W32299  16.902   3.848  27.084 -0.2063 -0.2338 -0.3076
25850W        W32300   9.589   4.643   4.912 -0.0515 -0.2083 -0.2666
25851W        W32301   0.218   6.622   8.255  0.0651  0.0324 -0.0026
25852W        W32302   0.968   1.022  15.267  0.0197  0.0589  0.1990
25853W        W32303  16.561   1.453  21.837  0.1982 -0.1409 -0.2310
25854W        W32304  24.154   1.754   1.511 -0.2947 -0.2210 -0.0816
25855W        W32305  14.686   5.353  19.591  0.0140 -0.1771 -0.3783
25856W        W32306  21.307   6.493  19.276 -0.4765 -0.2887  0.0154
25857W        W32307   2.304   1.474  10.978 -0.0386  0.0798 -0.3173
25858W        W32308   2.957   6.959   7.369 -0.2210  0.0297 -0.1208
25859W        W32309   2.402   3.807  26.814 -0.0716  0.0771 -0.0681
25860W        W32310  13.373   2.314  27.920 -0.1444 -0.3045  0.0597
25861W        W32311  12.030   6.080  24.519 -0.2823 -0.0411  0.1390
25862W        W32312   3.367   1.073  32.707  0.0472 -0.2773 -0.1469
25863W        W32313   6.533   4.751  16.915  0.3783 -0.3720  0.0461
25864W        W32314  17.235   6.775  21.859  0.0107 -0.2734 -0.2741
25865W        W32315  16.858   7.462   4.113  0.1400  0.1842 -0.0910
25866W        W32316   2.776   6.841  29.010  0.0586  0.1982  0.1005
25867W        W32317   3.735   1.844   7.807  0.0990  0.1052 -0.2352
25868W        W32318  15.466   3.367  30.254  0.0414 -0.2399 -0.1062
25869W        W32319   1.619   5.752  23.037 -0.1810  0.2437  0.2851
25870W        W32320   9.863   2.521  27.008  0.3393 -0.1490  0.0155
25871W        W32321  19.974   7.794  22.093 -0.0366 -0.3390  0.0387
25872W        W32322  18.840   2.055  24.591  0.0327  0.3337 -0.2838
25873W        W32323  24.035   4.975   2.850  0.1052  0.2700 -0.2746
25874W        W32324   7.567   7.046  26.701 -0.0825 -0.1408 -0.0830
25875W        W32325   9.664   4.217   7.934 -0.0647 -0.0067 -0.0655
25876W        W32326   7.329   0.514  27.556  0.2523 -0.0914  0.1592
25877W        W32327  11.139   4.953   3.081 -0.0167  0.0494 -0.1764
25878W        W32328   0.267   4.051  29.298 -0.0001 -0.2994  0.1158
25879W        W32329  22.342   1.060  22.227  0.2708  0.3845 -0.0031
25880W        W32330   2.767   7.211  11.261  0.1562  0.0165 -0.0331
25881W        W32331   8.679   1.330  11.395  0.0505  0.0818 -0.2152
25882W        W32332  16.511   0.380   0.347 -0.0489  0.3368  0.1093
25883W        W32333  19.909   2.615   4.467 -0.2043  0.0320 -0.0505
25884W        W32334   3.695   5.157  32.152 -0.3640 -0.1248 -0.0285
25885W        W32335   5.963   3.454  26.220 -0.0642  0.3257 -0.0697
25886W        W32336  17.693   2.977   9.330 -0.3198 -0.2140  0.0212
25887W        W32337   1.290   3.321  24.718 -0.3049  0.2019 -0.0570
25888W        W32338  16.830   7.563   0.862  0.0006  0.3781 -0.0278
25889W        W32339   7.362   0.077  25.744  0.1910 -0.1637  0.0934
25890W        W32340   1.173   2.523  26.339  0.2140  0.0688  0.2251
25891W        W32341  16.602   6.592   1.495  0.1664 -0.1592 -0.3074
25892W        W32342   3.093   4.969  26.393 -0.1650 -0.2097 -0.1817
25893W        W32343  10.315   7.405  22.035  0.2490 -0.0623 -0.2540
25894W        W32344  16.951   5.420   8.254  0.1190  0.0252 -0.0633
25895W        W32345  23.579   2.240  24.341  0.2116  0.2427  0.1696
25896W        W32346   1.172   6.303   9.841 -0.0443 -0.0383 -0.2210
25897W        W32347  23.569   6.589  24.683  0.1190 -0.0073 -0.3570
25898W        W32348  17.820   5.865  21.458 -0.3583 -0.0314  0.1467
25899W        W32349  24.107   7.302  11.933  0.3504 -0.0229  0.1511
25900W        W32350  22.378   5.789   1.186  0.2258 -0.0620  0.1425
25901W        W32351  14.661   7.419  17.582 -0.1358  0.2314  0.0233
25902W        W32352   6.191   5.941  17.590  0.0332 -0.0421  0.1444
25903W        W32353   7.163   5.698   1.460  0.0740  0.3676  0.0508
25904W        W32354   4.416   0.582  23.195 -0.0038 -0.0859 -0.0093
25905W        W32355  23.433   0.699  31.357 -0.2250  0.2247  0.1554
25906W        W32356   5.385   6.923  16.607  0.0239 -0.0405  0.2604
25907W        W32357  18.167   7.191  20.983 -0.2054 -0.2030 -0.2563
25908W        W32358   8.241   6.008   2.259  0.0432 -0.2379  0.3361
25909W        W32359  23.336   3.448  24.734  0.4455  0.0796  0.0939
25910W        W32360  17.209   6.852  24.873  0.1040  0.3006 -0.2778
25911W        W32361  24.796   1.969  30.026  0.0465  0.0474 -0.2199
25912W        W32362   1.323   2.762  23.312 -0.0004  0.3246 -0.3164
25913W        W32363  23.499   2.549   0.658  0.3058 -0.0748  0.1398
25914W        W32364  15.884   1.107   1.992 -0.0551  0.1319  0.3892
25915W        W32365  12.081   5.742  20.327 -0.1903 -0.1188 -0.1572
25916W        W32366  19.974   4.823  31.624 -0.0528 -0.0483  0.2018
25917W        W32367  17.947   3.778  24.962  0.1422  0.2410  0.2609
25918W        W32368  22.748   6.731  21.378  0.1367 -0.0396  0.1195
25919W        W32369  20.438   3.807  32.140  0.0294  0.1929  0.3437
25920W        W32370   1.947   7.452  27.982 -0.0498 -0.1945  0.1861
25921W        W32371   5.263   4.130   1.829 -0.0765 -0.1442 -0.0002
25922W        W32372  14.543   0.422   3.672 -0.0480 -0.1472 -0.1271
25923W        W32373  14.148   0.269   5.715 -0.0500  0.0634  0.0228
25924W        W32374  11.640   1.893  18.574 -0.1555  0.1226 -0.1043
25925W        W32375   9.095   7.530   4.362 -0.1042 -0.0331  0.0343
25926W        W32376   1.883   3.575   2.043  0.2242 -0.2358  0.0642
25927W        W32377  23.467   3.423  24.252 -0.0099  0.0226 -0.0158
25928W        W32378   5.032   3.354   7.266 -0.1352 -0.3585 -0.2263
25929W        W32379  14.819   4.678   9.750  0.0822 -0.2015 -0.2812
25930W        W32380  24.454   3.203   4.942  0.0719 -0.1189  0.2726
25931W        W32381  18.938   0.229  16.315  0.0839  0.0556 -0.0104
25932W        W32382  15.660   0.749  18.701 -0.2384  0.3828 -0.0124
25933W        W32383  17.787   2.780  27.172  0.0877 -0.3205 -0.1063
25934W        W32384   7.777   3.891   6.328 -0.0548  0.0126 -0.1383
25935W        W32385   4.790   6.186  32.119 -0.0126  0.0395  0.2312
25936W        W32386  12.143   6.869  17.988 -0.0825 -0.0791  0.2573
25937W        W32387  22.557   5.059  19.807  0.0242 -0.1325  0.1769
25938W        W32388   6.053   2.605  10.708 -0.2801 -0.2822  0.2339
25939W        W32389   4.843   5.288  13.011 -0.1049  0.3329  0.0844
25940W        W32390  23.580   6.648   0.577 -0.3366  0.1686 -0.1326
25941W        W32391  12.443   2.932   0.978 -0.3799 -0.3304 -0.1013
25942W        W32392  13.641   5.915   4.905  0.3142 -0.2352 -0.1195
25943W        W32393  24.714   7.593  11.998 -0.0298  0.0417  0.0714
25944W        W32394  16.467   0.784  17.445  0.0791 -0.0742 -0.1810
25945W        W32395  22.465   7.758  12.096  0.1962  0.5081  0.2533
25946W        W32396  11.028   3.266  22.363 -0.1300 -0.3273 -0.1369
25947W        W32397   7.487   5.216   4.776  0.0871 -0.3209 -0.0567
25948W        W32398  20.316   2.693   0.566  0.3742 -0.0872 -0.0974
25949W        W32399   7.743   1.694   5.605  0.3464  0.0043 -0.0672
25950W        W32400  17.131   6.333  29.120 -0.2361  0.2131  0.2193
25951W        W32401  12.499   7.699  28.602 -0.2687  0.2194  0.2855
25952W        W32402  16.201   5.559   2.400 -0.1127 -0.3619  0.0669
25953W        W32403   7.024   0.055   9.416 -0.1800  0.1644  0.2135
25954W        W32404  15.068   6.406  28.662 -0.4895  0.0130 -0.0687
25955W        W32405   3.396   3.313  25.299 -0.3117 -0.0746 -0.3244
25956W        W32406   6.547   7.426  25.035  0.0660  0.0724 -0.1444
25957W        W32407  17.402   1.275  14.886 -0.0124  0.1914  0.2864
25958W        W32408  14.294   3.492  21.638 -0.0730 -0.1345 -0.1954
25959W        W32409   1.798   3.384  31.872  0.1537 -0.0641 -0.0485
25960W        W32410   7.211   1.706  30.121  0.1623 -0.2845  0.0380
25961W        W32411  11.228   3.574  24.201 -0.1823 -0.0243  0.1339
25962W        W32412   9.818   2.223   4.652  0.0060 -0.1492 -0.1342
25963W        W32413  19.816   3.172  21.493 -0.1009 -0.0780  0.2093
25964W        W32414  11.684   3.321  30.868 -0.1298  0.1072  0.0681
25965W        W32415   3.913   3.128  23.984 -0.0042  0.0298  0.2484
25966W        W32416   1.785   4.435   8.820 -0.0651  0.1344 -0.2298
25967W        W32417   6.294   7.414  29.091  0.1541 -0.3134  0.1649
25968W        W32418  23.598   6.739  22.940 -0.0847 -0.3176 -0.0665
25969W        W32419  20.066   0.452   5.859 -0.0272  0.1086 -0.0888
25970W        W32420  15.468   2.988  10.368 -0.1034 -0.0565  0.2233
25971W        W32421  24.081   4.023   4.624  0.0907  0.3326  0.4111
25972W        W32422   3.518   7.267   8.941 -0.0451  0.0517  0.2319
25973W        W32423   7.024   1.814   1.938  0.0796 -0.0844  0.1151
25974W        W32424   5.291   4.639   5.773 -0.1745  0.3560  0.2452
25975W        W32425   4.100   1.472  12.311  0.2132 -0.1559 -0.0377
25976W        W32426   5.659   2.764   0.908 -0.0454  0.1314  0.1397
25977W        W32427   9.273   4.855  30.420 -0.1458  0.0797 -0.3806
25978W        W32428  18.389   6.100   7.621 -0.0938  0.0394 -0.0976
25979W        W32429  21.987   3.584  22.540 -0.2371  0.1362 -0.1050
25980W        W32430  23.727   4.475  24.076 -0.0066 -0.0105 -0.1561
25981W        W32431   1.715   0.985   4.368 -0.0803 -0.2036 -0.1317
25982W        W32432  21.053   7.224  27.415 -0.1974 -0.0854 -0.1233
25983W        W32433   0.042   2.187  14.664  0.1122  0.1479  0.3386
25984W        W32434  14.501   0.505   2.403 -0.1435 -0.0499  0.0690
25985W        W32435  17.354   0.928   9.394 -0.0427  0.0862  0.0355
25986W        W32436  11.097   1.819   4.183  0.3371  0.0259  0.1501
25987W        W32437  20.657   4.119   2.448  0.1009  0.2951 -0.1100
25988W        W32438  16.193   4.684   7.584  0.1386 -0.2855 -0.0792
25989W        W32439  16.264   6.057   3.145  0.3619  0.0587  0.1913
25990W        W32440  23.778   1.582  31.595  0.1191  0.3920 -0.3258
25991W        W32441  10.157   1.675   9.316  0.1486  0.0405  0.0215
25992W        W32442  17.974   1.993  16.233 -0.1286 -0.0691 -0.1321
25993W        W32443   7.089   5.218  32.967  0.0169  0.2237  0.3188
25994W        W32444  15.750   6.908   2.353 -0.1466  0.1651  0.1244
25995W        W32445  18.123   6.667   6.404 -0.1936 -0.0274 -0.1184
25996W        W32446   6.754   2.225  14.769  0.2050 -0.3857  0.0732
25997W        W32447  17.857   0.341  15.498  0.1238 -0.0148  0.0496
25998W        W32448   2.690   1.585  23.504  0.1022 -0.3270  0.3787
25999W        W32449  23.557   3.263  25.230  0.0015  0.0840  0.1355
26000W        W32450  12.640   1.990  23.499  0.2218  0.2108  0.0050
26001W        W32451  16.133   0.569   2.278 -0.2626 -0.3587 -0.2125
26002W        W32452   5.198   5.941  14.883 -0.2100  0.0457 -0.2466
26003W        W32453   9.053   0.049  28.928  0.1277  0.2108  0.0345
26004W        W32454   0.144   0.018  14.291  0.1812  0.0306  0.1497
26005W        W32455  11.889   3.621   5.101 -0.3543 -0.1144 -0.0563
26006W        W32456  17.530   3.093   4.460  0.0973  0.2834  0.0896
26007W        W32457   9.017   0.816   9.788  0.1220  0.0087  0.0955
26008W        W32458  14.474   1.847   3.826 -0.2411  0.1332  0.1156
26009W        W32459   2.638   6.201  31.801 -0.2928 -0.0087 -0.1021
26010W        W32460  22.044   4.679  11.138  0.3576  0.0684  0.2169
26011W        W32461  14.660   4.339   8.569 -0.1524  0.0874 -0.1441
26012W        W32462  19.639   6.430  22.874  0.3178  0.1589  0.0333
26013W        W32463  13.741   1.967   6.677 -0.1075 -0.1711 -0.1877
26014W        W32464   9.117   4.127   2.975 -0.0186 -0.0940 -0.1808
26015W        W32465   5.101   0.244  11.053 -0.2536  0.2797 -0.0421
26016W        W32466  23.182   3.805  13.579  0.1568 -0.0852 -0.2317
26017W        W32467  10.734   4.143   3.456 -0.0920  0.0781  0.2371
26018W        W32468   2.542   7.536   5.375  0.1104  0.2936  0.0373
26019W        W32469   7.227   0.931  27.987 -0.0188  0.3119  0.2470
26020W        W32470   6.207   5.672  15.430 -0.0602  0.1747 -0.0658
26021W        W32471  21.636   0.467  27.158  0.0934 -0.1875  0.0106
26022W        W32472   2.503   0.729   5.600  0.3114  0.2188 -0.3382
26023W        W32473   0.350   2.702   4.254 -0.4848  0.0275 -0.2306
26024W        W32474  19.877   2.777   3.317 -0.0294  0.0944 -0.0803
26025W        W32475  13.082   2.571  28.265 -0.3680 -0.2411 -0.0841
26026W        W32476  19.657   0.448   6.712 -0.3500 -0.0462  0.1271
26027W        W32477   1.488   1.688  29.307 -0.2045 -0.1001 -0.0009
26028W        W32478  23.241   2.334   6.901 -0.0835 -0.0351 -0.1791
26029W        W32479   0.472   5.806  30.420 -0.2048  0.0895  0.3157
26030W        W32480  20.909   0.690   5.008 -0.1435 -0.4460 -0.1550
26031W        W32481   6.985   1.985   3.244  0.0039 -0.2760  0.1716
26032W        W32482   2.925   1.847  26.764  0.0310  0.2143  0.1855
26033W        W32483  16.380   5.964   0.227 -0.0967 -0.2940  0.0643
26034W        W32484   7.438   4.316   4.577  0.3242  0.2021  0.4191
26035W        W32485  17.316   6.921  24.324  0.0364  0.1027  0.0115
26036W        W32486  15.978   3.604   0.602  0.0583 -0.0980 -0.0543
26037W        W32487  12.482   6.041   5.487  0.1411 -0.2616 -0.1971
26038W        W32488   6.467   3.564   0.592  0.2479  0.1255  0.1062
26039W        W32489  17.717   1.207  25.909  0.0283  0.1645 -0.3713
26040W        W32490  18.912   5.544   2.544  0.3191 -0.0775 -0.2911
26041W        W32491  15.076   0.699  20.791 -0.0588  0.1664  0.3236
26042W        W32492  23.025   5.568  10.844  0.0505  0.1083 -0.1824
26043W        W32493   5.889   4.870   8.839 -0.0507  0.0974 -0.2080
26044W        W32494  12.865   5.510   6.214 -0.2165 -0.2871 -0.2097
26045W        W32495   6.513   4.357  32.989  0.2709  0.1070 -0.1130
26046W        W32496  13.096   2.143  23.600 -0.0196 -0.0144  0.0712
26047W        W32497  10.929   6.936   8.543 -0.1602 -0.2046  0.0612
26048W        W32498  20.010   0.638  21.360  0.0506 -0.0137  0.0466
26049W        W32499  15.679   4.381  28.596  0.0254  0.0916  0.1032
26050W        W32500   4.446   5.568  31.225 -0.0658 -0.0694  0.1144
26051W        W32501   5.672   4.367  12.147 -0.1115  0.0260  0.1431
26052W        W32502  16.466   1.135  16.804 -0.2032 -0.0715  0.0229
26053W        W32503   6.870   3.205   4.515 -0.0348  0.2615 -0.2657
26054W        W32504  15.634   3.505  28.793  0.1020 -0.0199  0.2442
26055W        W32505  24.560   6.394  26.433 -0.3132  0.0081  0.1632
26056W        W32506   8.446   1.220   5.447 -0.0307 -0.1085  0.1842
26057W        W32507   7.563   2.796  24.494  0.3618  0.3779  0.0308
26058W        W32508   9.437   4.433  30.585 -0.0502  0.0573  0.4237
26059W        W32509  20.500   2.324  10.486  0.0433  0.1544 -0.0186
26060W        W32510  11.674   7.343   6.863  0.0932 -0.0717  0.1911
26061W        W32511  11.794   5.232  21.602  0.0265 -0.1679  0.2782
26062W        W32512  15.935   3.658  24.152 -0.1774  0.1442 -0.0842
26063W        W32513   1.190   6.891   7.707  0.0390 -0.1119 -0.0772
26064W        W32514   7.508   1.963  27.952 -0.0710  0.1665 -0.1453
26065W        W32515   9.222   5.233  10.319  0.1557  0.0708  0.3251
26066W        W32516  10.574   3.311  26.363 -0.2811 -0.3165 -0.0608
26067W        W32517   3.698   6.936  14.004  0.0823  0.0500 -0.1821
26068W        W32518  22.435   5.192  27.294  0.2142 -0.0411  0.2526
26069W        W32519  15.960   0.040   1.420  0.1033 -0.0407  0.0530
26070W        W32520  22.353   2.710   0.588 -0.1152  0.2129 -0.0795
26071W        W32521  24.641   1.192  30.890 -0.1627 -0.0946 -0.0592
26072W        W32522  23.835   2.183  28.387 -0.4494 -0.2748 -0.2699
26073W        W32523   8.160   2.666  11.247 -0.0036 -0.0826 -0.1941
26074W        W32524  11.714   2.207   4.257 -0.2196 -0.0902 -0.1230
26075W        W32525   0.199   1.104  21.836  0.1870  0.2052 -0.0457
26076W        W32526  14.368   0.029  30.950 -0.0168  0.2353 -0.1414
26077W        W32527  17.543   3.582  31.757 -0.2815 -0.1465 -0.0701
26078W        W32528  12.488   5.790   6.364  0.3693  0.0236  0.0369
26079W        W32529   7.611   4.289  12.086  0.2360  0.0514 -0.0986
26080W        W32530  15.254   4.448  15.820 -0.2557 -0.1736 -0.0384
26081W        W32531  18.375   5.319  28.360 -0.1420  0.2046  0.2306
26082W        W32532   6.396   4.548  10.392  0.1112 -0.1524  0.1833
26083W        W32533   7.106   7.020  14.595 -0.1367 -0.1235  0.0536
26084W        W32534  17.904   0.183  32.367  0.1483 -0.0963 -0.1207
26085W        W32535  10.682   1.208  21.427 -0.1642  0.3400 -0.2400
26086W        W32536  13.918   6.624  18.920 -0.1358 -0.1329 -0.1715
26087W        W32537  20.901   0.890   1.679 -0.1915  0.1345 -0.0500
26088W        W32538   9.048   5.695  31.410 -0.0710 -0.0354  0.0379
26089W        W32539  10.540   3.706  31.939  0.0452 -0.1365 -0.4345
26090W        W32540   5.434   5.394  23.935 -0.1584 -0.0922  0.3302
26091W        W32541  20.212   2.053  31.868 -0.0542  0.0103 -0.0999
26092W        W32542  19.880   4.150  10.669 -0.0029  0.1296  0.2827
26093W        W32543  17.573   4.762   2.760  0.0731 -0.0114 -0.0654
26094W        W32544   1.114   1.089  13.036  0.0466  0.0412 -0.1698
26095W        W32545   2.019   5.676  32.281 -0.0871 -0.0560 -0.0212
26096W        W32546   6.673   2.259  28.937  0.1732 -0.3843  0.2352
26097W        W32547   5.950   0.975  12.940 -0.0750  0.0635  0.2021
26098W        W32548  23.202   3.757  26.101 -0.2053 -0.0198 -0.3464
26099W        W32549  21.787   3.544   6.563 -0.0559 -0.1502 -0.0505
26100W        W32550  14.662   3.427   6.319 -0.1678 -0.0493 -0.3658
26101W        W32551   3.178   5.216   7.444  0.0263  0.1564  0.3412
26102W        W32552  18.278   1.179   5.983  0.3847 -0.1419 -0.0774
26103W        W32553   0.785   6.089  28.268  0.1119  0.1432 -0.0068
26104W        W32554   5.603   0.699  27.843  0.3420  0.0595 -0.4912
26105W        W32555  12.435   2.649  19.391 -0.3239  0.5203  0.1535
26106W        W32556   8.024   3.298  26.501  0.0501  0.0194  0.2666
26107W        W32557   3.069   3.755   0.427  0.0565 -0.1926 -0.0900
26108W        W32558  24.917   1.040  22.469  0.2281  0.1662 -0.1706
26109W        W32559   4.522   2.618  14.165  0.1336  0.0430  0.0663
26110W        W32560   4.736   0.242   1.080 -0.0101  0.0586  0.1198
26111W        W32561   1.492   0.644  17.786  0.0982  0.0893 -0.0538
26112W        W32562  15.989   5.014  24.636 -0.0065 -0.0267 -0.1137
26113W        W32563   9.783   2.372  30.482 -0.1181  0.0223 -0.4794
26114W        W32564  17.538   5.623   7.577 -0.0885 -0.1183  0.0877
26115W        W32565   0.224   0.693  32.383 -0.0279  0.2032  0.0186
26116W        W32566   0.591   7.666  11.035  0.2224  0.0442 -0.0167
26117W        W32567   1.728   1.864   1.365  0.2236  0.1114  0.0357
26118W        W32568  12.734   1.023  32.312 -0.3134 -0.1169 -0.0093
26119W        W32569  24.372   4.042  22.189  0.2778 -0.1380  0.2483
26120W        W32570  10.978   1.271  23.152  0.0740 -0.1981 -0.0111
26121W        W32571  21.279   0.140  31.451 -0.1494 -0.1356 -0.0520
26122W        W32572   4.347   4.635  29.879 -0.2978 -0.2150  0.0348
26123W        W32573  22.475   6.474   3.912 -0.1637  0.1385  0.0514
26124W        W32574  10.467   7.187  32.452 -0.1591  0.1261  0.1832
26125W        W32575  24.041   4.228   6.108 -0.0801 -0.0027  0.1517
26126W        W32576  10.800   5.429   9.083  0.1434  0.0703  0.2197
26127W        W32577  12.200   0.793   6.734  0.1527  0.2540 -0.3139
26128W        W32578  23.081   2.674   5.743 -0.0043  0.2929  0.0419
26129W        W32579   3.680   4.982   6.580 -0.0042 -0.0110  0.0933
26130W        W32580  10.127   7.243   4.227 -0.2735 -0.0670  0.1528
26131W        W32581  18.027   2.880   4.460 -0.1458 -0.2957 -0.0257
26132W        W32582   9.791   6.889   5.310 -0.0402  0.0655  0.0874
26133W        W32583   8.231   6.827  28.997  0.0414 -0.3467  0.1232
26134W        W32584  10.297   0.322  23.439 -0.2267 -0.1193  0.1372
26135W        W32585  19.976   3.125  25.695 -0.1499  0.0168  0.2804
26136W        W32586  22.987   3.477  21.437 -0.1850  0.1248 -0.2743
26137W        W32587   1.118   4.151  24.912  0.0119  0.1905  0.0770
26138W        W32588  12.209   3.918  24.245 -0.0066 -0.1787  0.0796
26139W        W32589  22.871   1.427  23.850  0.2028 -0.0081 -0.1142
26140W        W32590  22.639   2.376  32.215  0.1030 -0.1512 -0.1915
26141W        W32591  14.628   3.283   7.648  0.0330 -0.0512 -0.1280
26142W        W32592  22.392   0.894  30.643  0.0126 -0.0157 -0.1739
26143W        W32593  20.369   6.825  17.693  0.2615 -0.1342 -0.0761
26144W        W32594  23.383   2.584  11.004 -0.0010 -0.3186 -0.1560
26145W        W32595   6.469   0.599  28.588 -0.2448  0.0325 -0.0696
26146W        W32596  21.480   6.517  10.119 -0.1566 -0.0819  0.2018
26147W        W32597  12.287   2.251  19.767 -0.1590 -0.3871  0.1899
26148W        W32598   8.122   0.795  10.842  0.1168  0.0584  0.2378
26149W        W32599   3.428   3.018  23.811  0.0452  0.1205  0.2481
26150W        W32600  21.087   6.766  27.618 -0.0444 -0.0237 -0.1245
26151W        W32601   5.246   7.231  28.635 -0.1479  0.3696 -0.1084
26152W        W32602  23.823   3.590  25.502  0.0359 -0.0750 -0.1215
26153W        W32603  12.513   2.821  11.225  0.1189 -0.1759  0.1085
26154W        W32604   6.214   0.761   3.394 -0.1664 -0.3692  0.2400
26155W        W32605  10.053   1.956  11.769  0.1553  0.0709  0.2244
26156W        W32606   6.695   5.767  10.646  0.0105 -0.0972  0.0298
26157W        W32607   3.321   3.442   1.924  0.0993 -0.0118 -0.0452
26158W        W32608   0.364   1.493  21.446  0.0054 -0.2807 -0.0693
26159W        W32609  24.757   0.198  13.346  0.1311  0.0556  0.3080
26160W        W32610   1.345   0.316   4.303  0.0692  0.2460 -0.0123
26161W        W32611   3.163   3.535   8.191  0.0442 -0.4306  0.1161
26162W        W32612   9.179   0.290   2.367  0.3048  0.1138 -0.1776
26163W        W32613  19.908   3.213  26.606  0.2790 -0.1831  0.1545
26164W        W32614  15.150   0.034  29.690 -0.0956 -0.0523 -0.0556
26165W        W32615  10.567   1.549   0.731  0.1484  0.0138 -0.2051
26166W        W32616   7.944   0.490  25.896  0.2487 -0.1242 -0.1309
26167W        W32617   8.405   3.063   5.970 -0.0004  0.2925  0.0258
26168W        W32618  15.762   3.286  18.783  0.1139  0.1613  0.1859
26169W        W32619  17.447   2.897  29.100  0.0981  0.0972 -0.3058
26170W        W32620  17.647   0.430  17.042 -0.0967 -0.2318 -0.1194
26171W        W32621   1.687   0.670   7.265 -0.1042  0.1357  0.3457
26172W        W32622  16.281   7.173   5.395  0.1036 -0.1063  0.1446
26173W        W32623  10.132   4.365   4.852  0.0379  0.0507  0.1904
26174W        W32624  24.260   0.600  30.205  0.3460  0.0297  0.1053
26175W        W32625   3.048   2.511  22.942  0.3760  0.0118  0.0162
26176W        W32626  11.368   0.369   6.359 -0.0371  0.0733  0.1186
26177W        W32627   8.624   4.979   2.701 -0.0132 -0.1413 -0.1335
26178W        W32628  16.228   0.363   6.540  0.1023  0.1170  0.1441
26179W        W32629   7.399   7.373  13.613 -0.0169 -0.1504  0.0708
26180W        W32630   4.853   0.900   4.220  0.3012  0.2395  0.0776
26181W        W32631  13.965   4.626  25.793  0.2295  0.0465  0.1304
26182W        W32632  19.374   1.799  27.564 -0.1408  0.0076  0.1174
26183W        W32633  11.602   0.994  10.446  0.0257 -0.0341  0.0817
26184W        W32634  16.090   0.497  17.649  0.3309  0.1828  0.0419
26185W        W32635  21.681   0.355  10.865  0.0552 -0.0398  0.3485
26186W        W32636   7.446   5.843   4.372  0.0787  0.0662  0.0452
26187W        W32637  11.518   0.848  11.243  0.1482  0.1014 -0.3177
26188W        W32638   6.484   1.482  25.579 -0.1986 -0.0709  0.2027
26189W        W32639  15.916   1.245  21.005  0.2388  0.0568  0.1333
26190W        W32640  16.943   3.126  25.526 -0.0918  0.4393 -0.2451
26191W        W32641   2.009   6.420  30.450 -0.0956 -0.2148  0.0687
26192W        W32642   7.010   6.591  22.048  0.0942 -0.2452 -0.0663
26193W        W32643   2.739   0.130  25.220  0.2266 -0.1751 -0.3464
26194W        W32644  16.099   5.328  28.453  0.0651 -0.1006  0.3076
26195W        W32645  13.898   2.680  25.095 -0.0766  0.0574  0.2563
26196W        W32646  17.897   4.327   7.389  0.0040  0.0206 -0.3174
26197W        W32647   6.227   3.713  17.099  0.1486 -0.0372 -0.1238
26198W        W32648   9.959   1.008  11.317 -0.1084  0.0338  0.1476
26199W        W32649   9.646   2.352   5.100 -0.2695  0.0488  0.1825
26200W        W32650  14.382   1.336  22.929 -0.2876  0.1591 -0.0124
26201W        W32651  12.883   7.716  24.741 -0.0494  0.0158 -0.1025
26202W        W32652  23.796   1.135  21.496  0.0687  0.3136 -0.0111
26203W        W32653   1.330   0.611   3.029  0.2988  0.1592  0.0495
26204W        W32654   8.959   2.488  25.834 -0.0250  0.0885 -0.3640
26205W        W32655   5.186   1.711  23.765 -0.1223  0.0869  0.1686
26206W        W32656  23.293   7.777  11.528 -0.0822  0.1123 -0.1147
26207W        W32657  22.766   0.600  19.341  0.1246  0.0673  0.0983
26208W        W32658   2.917   4.360  13.797  0.1171 -0.1603 -0.1009
26209W        W32659  23.747   1.829  13.158  0.0379 -0.1053  0.0566
26210W        W32660   1.070   1.298  17.344  0.1228  0.2283 -0.1069
26211W        W32661  11.986   7.726  21.106 -0.4442 -0.2304 -0.3109
26212W        W32662  22.755   1.893   7.471  0.0242  0.2437  0.0534
26213W        W32663  17.405   0.860   5.812  0.1606 -0.1464  0.0911
26214W        W32664  10.075   7.004  11.205 -0.0297 -0.0640 -0.2692
26215W        W32665   8.415   2.779   2.740  0.0558  0.2203 -0.0212
26216W        W32666   6.345   0.129  15.739  0.3236 -0.0254 -0.1350
26217W        W32667   1.435   3.276  22.366  0.0576  0.0159 -0.0864
26218W        W32668   4.921   2.014  25.698  0.3065  0.1564 -0.4735
26219W        W32669   1.677   3.155  15.228  0.2464  0.1864 -0.0388
26220W        W32670  17.022   6.619  14.913  0.0864  0.1315  0.0059
26221W        W32671   3.350   2.386  30.773  0.2519 -0.1160 -0.2252
26222W        W32672   7.573   2.615   1.392 -0.0037  0.0599 -0.0296
26223W        W32673  20.425   4.344  28.814  0.0823  0.0710 -0.1407
26224W        W32674  14.377   4.774  25.581  0.0270  0.0241  0.0405
26225W        W32675   6.836   7.477  31.579 -0.0715  0.3143  0.0146
26226W        W32676   2.983   3.363  30.461  0.1869  0.0976 -0.1341
26227W        W32677  17.521   1.832  25.694  0.1996  0.1550  0.0551
26228W        W32678   2.673   5.455  15.720  0.3023  0.0623 -0.1052
26229W        W32679   4.016   0.099   9.899  0.0028  0.2646 -0.1357
26230W        W32680   4.799   5.468  25.922 -0.0862  0.2950 -0.0476
26231W        W32681   3.451   7.233  12.585 -0.0373  0.0841  0.0630
26232W        W32682   3.810   4.947  25.269  0.4006  0.1480  0.2535
26233W        W32683  16.326   5.150  28.912  0.1850 -0.0491  0.1049
26234W        W32684  22.842   1.656   2.154 -0.0185 -0.2248 -0.1106
26235W        W32685   7.112   5.245  26.022 -0.1005 -0.2017 -0.3315
26236W        W32686  13.645   0.179   8.547 -0.0019 -0.0155 -0.0088
26237W        W32687   3.649   6.369  23.735 -0.0587 -0.0071  0.1425
26238W        W32688  11.991   6.560  29.662 -0.1513 -0.0876 -0.0306
26239W        W32689  22.051   4.837  31.066 -0.0756 -0.0521  0.0193
26240W        W32690  21.337   5.045   9.139 -0.4101 -0.1456  0.1730
26241W        W32691   2.992   4.390  25.084  0.0813  0.0368  0.0685
26242W        W32692   5.433   6.486  32.997 -0.0230 -0.2494 -0.0942
26243W        W32693  19.094   7.202  23.295  0.0242 -0.0083  0.0066
26244W        W32694  12.753   4.558  28.246 -0.0650  0.1749 -0.0798
26245W        W32695   3.052   0.639  16.204  0.0156 -0.0455  0.3777
26246W        W32696   1.258   2.413  15.891 -0.1989  0.1788 -0.1644
26247W        W32697   5.836   4.898   7.459 -0.0298  0.0276 -0.1949
26248W        W32698  22.589   4.509  24.678  0.1056  0.1047  0.0765
26249W        W32699  19.772   0.087   2.104 -0.0733  0.1509 -0.2888
26250W        W32700   5.144   5.912   8.980  0.1975 -0.3162 -0.0817
26251W        W32701  18.650   4.505   6.604  0.2046 -0.0927  0.4402
26252W        W32702  13.601   3.422  10.527  0.1429 -0.1018 -0.1243
26253W        W32703   7.564   7.360   6.832  0.0486  0.3297 -0.1072
26254W        W32704  20.445   2.898   7.815 -0.2614 -0.1491 -0.0910
26255W        W32705  13.292   7.799  25.589 -0.2202 -0.0123 -0.1145
26256W        W32706  22.584   2.106  24.270 -0.2145 -0.0670  0.4008
26257W        W32707   6.125   2.726  15.280  0.1098  0.0147 -0.0478
26258W        W32708  22.290   6.619  10.432 -0.3807  0.1089  0.0296
26259W        W32709   8.881   4.968  21.575  0.1234  0.0008  0.0125
26260W        W32710   6.162   1.090  28.473 -0.1631 -0.0733  0.1836
26261W        W32711  21.826   5.941  22.275  0.0518 -0.0192 -0.2112
26262W        W32712  15.282   1.632   9.955  0.0924 -0.1069  0.2382
26263W        W32713  18.708   4.387  25.623  0.0440  0.0634  0.1609
26264W        W32714  16.317   6.635  28.567 -0.2596  0.1041 -0.0673
26265W        W32715  18.628   1.134   4.836 -0.1444 -0.0968  0.0819
26266W        W32716  12.123   0.923   7.715  0.0752  0.0732 -0.0430
26267W        W32717   0.892   5.200  12.344  0.1445  0.2305  0.0652
26268W        W32718  10.801   3.768  22.859 -0.1512  0.2535  0.0717
26269W        W32719   1.213   4.336  22.198 -0.1863 -0.2327 -0.5830
26270W        W32720   0.385   1.836  14.551  0.0769  0.0054 -0.0071
26271W        W32721   7.503   2.410  26.517 -0.0004 -0.1103  0.0423
26272W        W32722  21.866   3.279   8.432  0.0427  0.1419 -0.1030
26273W        W32723  20.820   4.197  20.389  0.0547 -0.1171 -0.1059
26274W        W32724  15.358   7.492   8.521  0.0737 -0.0048  0.2801
26275W        W32725  22.583   4.128  27.876 -0.1414 -0.0293  0.1527
26276W        W32726   7.722   0.070   9.947  0.2215 -0.0315  0.4533
26277W        W32727  23.000   1.873  24.054  0.1109 -0.2198  0.3246
26278W        W32728  18.976   2.621  19.580  0.0620 -0.0284  0.2206
26279W        W32729   9.826   7.482   9.667  0.0991 -0.0096  0.1932
26280W        W32730  10.384   7.437   2.517 -0.3776 -0.0709 -0.2869
26281W        W32731  13.126   7.494   2.757 -0.1581  0.2875  0.1855
26282W        W32732  24.896   1.946   4.745  0.0602 -0.0184  0.1702
26283W        W32733   1.248   5.926   4.171 -0.1178 -0.0880 -0.2305
26284W        W32734  24.630   5.162  11.409 -0.2263  0.0479 -0.1277
26285W        W32735  12.811   7.100   0.075 -0.1146 -0.0302  0.0966
26286W        W32736  19.555   1.757  10.286  0.1707 -0.1609 -0.1899
26287W        W32737  22.306   5.588  11.458 -0.3084 -0.2323 -0.0513
26288W        W32738  13.070   7.211  30.576 -0.3532 -0.1988  0.0961
26289W        W32739  22.937   5.507  32.735  0.0187 -0.2889  0.0088
26290W        W32740  18.432   5.351  18.997  0.1182 -0.1258  0.1374
26291W        W32741  24.433   1.585  31.187  0.0899  0.1723 -0.0314
26292W        W32742  22.280   4.345  28.908  0.1770 -0.1955  0.2391
26293W        W32743   2.889   1.303  12.709 -0.0609  0.0960  0.0368
26294W        W32744   5.445   3.920  12.125 -0.2135  0.1814  0.3263
26295W        W32745   2.533   1.078  24.660 -0.1141 -0.0709 -0.1676
26296W        W32746  14.132   0.730  16.679  0.1344  0.0713 -0.0390
26297W        W32747  21.567   1.602  24.574 -0.0628 -0.1175  0.0214
26298W        W32748  12.465   0.262  26.126 -0.1290 -0.3442  0.1874
26299W        W32749   3.428   6.074   2.282  0.0622  0.2026 -0.1152
26300W        W32750   5.339   0.857   9.275 -0.0078 -0.3871  0.0597
26301W        W32751  13.068   6.348  10.966  0.2254 -0.1460 -0.0501
26302W        W32752   3.015   2.292   6.078  0.2063  0.1272 -0.0658
26303W        W32753   7.524   4.006   7.578  0.0961 -0.0442 -0.0665
26304W        W32754   1.758   1.683  13.840 -0.3699 -0.0253 -0.1183
26305W        W32755  23.870   1.596  14.119 -0.1237 -0.0695  0.0792
26306W        W32756  15.705   3.541  26.770 -0.1578  0.1459 -0.0504
26307W        W32757  21.836   4.970  25.535 -0.4024  0.0756 -0.0683
26308W        W32758   9.641   6.380  25.474 -0.1429 -0.0599 -0.0819
26309W        W32759   2.665   1.454  17.719 -0.1467  0.1829  0.0439
26310W        W32760   0.230   7.592  31.994  0.1278  0.0981  0.1153
26311W        W32761  14.668   7.636  19.964 -0.1376 -0.0208  0.2178
26312W        W32762   8.241   5.485   7.284  0.0974 -0.1487  0.0487
26313W        W32763  18.198   2.229  32.939  0.2118 -0.0992 -0.2070
26314W        W32764   2.528   3.887  27.337 -0.4956  0.0022  0.3597
26315W        W32765  10.073   5.821   0.857  0.1058 -0.3397  0.0090
26316W        W32766  15.467   7.375  27.861  0.1193  0.0105  0.0404
26317W        W32767  18.908   1.409  23.418  0.3963  0.0943 -0.0982
26318W        W32768   4.215   0.581  10.041  0.0886 -0.0188 -0.3037
26319W        W32769  12.763   1.059  18.726 -0.1788  0.1019 -0.1133
26320W        W32770  18.041   6.044   2.272 -0.1395 -0.1896  0.1045
26321W        W32771   7.841   5.184   7.086  0.2090 -0.0434 -0.2768
26322W        W32772  16.176   4.482  16.793 -0.1354  0.0199  0.2171
26323W        W32773   5.779   2.294   3.634 -0.0279 -0.2155 -0.0376
26324W        W32774  14.502   4.468  15.628 -0.0287 -0.1637  0.2785
26325W        W32775  10.241   1.344  26.198 -0.1316 -0.0224 -0.0398
26326W        W32776  23.195   3.856   3.454  0.1915 -0.0483 -0.0045
26327W        W32777  15.367   0.700   1.154 -0.1803  0.0364  0.1922
26328W        W32778  24.077   6.812   0.723 -0.3201  0.1783 -0.0269
26329W        W32779   9.052   1.468  26.853  0.0186  0.1672  0.1809
26330W        W32780  18.701   3.821  18.024 -0.2397  0.0002  0.4121
26331W        W32781  13.942   3.480  22.595  0.1864  0.1421  0.1407
26332W        W32782  20.580   7.762   3.456  0.1963  0.0517 -0.5243
26333W        W32783  20.864   0.647   5.572 -0.0650  0.2149  0.1532
26334W        W32784  18.008   5.775  32.665 -0.1563  0.3403 -0.0677
26335W        W32785   2.065   3.146  26.446  0.2243  0.0476  0.2606
26336W        W32786  20.226   6.053  21.513 -0.1159 -0.0935  0.1550
26337W        W32787  11.657   3.022   9.651  0.3541  0.1467  0.2101
26338W        W32788  11.614   4.798   4.510  0.2962  0.2550 -0.1241
26339W        W32789   3.674   2.705  17.080 -0.2674  0.0447 -0.0006
26340W        W32790  17.730   4.139   6.415 -0.0480  0.0616 -0.2214
26341W        W32791  13.899   5.094  18.013  0.0517 -0.2354 -0.2764
26342W        W32792   8.946   5.750  10.714  0.1001 -0.2950 -0.0673
26343W        W32793  17.833   2.584  23.108 -0.1808 -0.1169 -0.0133
26344W        W32794  21.316   5.350  11.984  0.2520 -0.0712  0.1012
26345W        W32795  20.228   6.746  31.031  0.0377  0.1416 -0.2490
26346W        W32796   2.733   1.084  29.769 -0.0670 -0.1507  0.1522
26347W        W32797   3.541   3.683   6.547  0.0903 -0.2570 -0.0721
26348W        W32798   3.532   7.552  31.668  0.2167  0.0034 -0.2549
26349W        W32799  23.053   5.689  27.211  0.0904  0.0940  0.0880
26350W        W32800  17.506   1.916  26.558 -0.0956  0.1134  0.0165
26351W        W32801   3.813   7.244   2.179 -0.0634 -0.1438  0.0946
26352W        W32802   5.883   6.440  13.829 -0.1552 -0.0953  0.0868
26353W        W32803   4.903   5.246  14.187  0.0508 -0.2088  0.0887
26354W        W32804   7.767   3.139   3.291 -0.2385  0.1760  0.0726
26355W        W32805  15.496   3.420   5.383  0.0144 -0.0571 -0.2125
26356W        W32806  23.047   0.461  31.007 -0.1055  0.1187  0.2731
26357W        W32807  17.403   3.079  24.263  0.0087  0.1687 -0.1628
26358W        W32808   6.135   5.052   7.945 -0.2116  0.0916 -0.0142
26359W        W32809   0.106   1.714   0.404 -0.1622 -0.2097 -0.0059
26360W        W32810   5.876   5.604  25.193 -0.3004  0.2023  0.0903
26361W        W32811   3.367   4.452   0.767  0.0745 -0.0571  0.0981
26362W        W32812   5.339   3.550   1.960  0.1167  0.1271 -0.0655
26363W        W32813   4.105   4.229   7.794  0.1073 -0.1522  0.1537
26364W        W32814  17.850   4.148  29.034  0.0161  0.0335  0.0741
26365W        W32815  20.884   4.177  28.655  0.1067  0.0384 -0.0186
26366W        W32816   3.154   1.878   5.209 -0.1385 -0.3514 -0.0129
26367W        W32817   2.104   1.624  26.530 -0.0252 -0.0552 -0.0386
26368W        W32818   6.096   1.261  11.206  0.2163  0.1684 -0.2015
26369W        W32819  17.816   3.486  21.086  0.0598 -0.2161 -0.0654
26370W        W32820  22.474   6.753   2.636 -0.1385 -0.1344  0.1246
26371W        W32821  15.447   2.449   1.953 -0.0236  0.1422 -0.1477
26372W        W32822  17.324   5.383  15.406 -0.2117  0.2907  0.1066
26373W        W32823   8.234   7.317  30.319 -0.3509 -0.1373  0.2135
26374W        W32824   7.694   2.383  10.468 -0.1458  0.0793  0.0194
26375W        W32825   8.218   7.660  29.122  0.1856  0.2579  0.0045
26376W        W32826  10.841   4.904  23.345 -0.0539 -0.1757 -0.1346
26377W        W32827  12.838   2.502  11.000 -0.1332  0.0822 -0.0284
26378W        W32828  22.269   1.963   8.270 -0.0689 -0.0472  0.2384
26379W        W32829   2.193   0.210   3.837 -0.1012  0.3118  0.1015
26380W        W32830  14.422   3.332  27.993 -0.0468  0.2448 -0.0402
26381W        W32831  11.893   2.525   4.697  0.0232  0.5496 -0.2004
26382W        W32832   6.920   0.667  15.434 -0.1787 -0.3032  0.0301
26383W        W32833  24.522   4.397  12.555 -0.0066 -0.2296 -0.2972
26384W        W32834   9.536   5.177   5.854 -0.3151  0.0173 -0.1042
26385W        W32835  10.779   5.889  23.649 -0.2217  0.3203  0.0165
26386W        W32836  15.617   4.728  25.459  0.1871 -0.1546  0.0634
26387W        W32837  15.511   1.689  22.312 -0.2234 -0.0354 -0.4857
26388W        W32838  23.105   0.849  24.850 -0.1181  0.1835 -0.0852
26389W        W32839   2.877   0.532  29.783  0.0843 -0.2093 -0.0286
26390W        W32840   0.272   6.100   3.241 -0.1170  0.0492 -0.1050
26391W        W32841   2.287   4.090  15.810  0.2374 -0.0031 -0.0996
26392W        W32842  24.762   3.508  23.475  0.1486  0.0998  0.2424
26393W        W32843  22.749   2.888  25.672 -0.1697 -0.0416 -0.0404
26394W        W32844   4.011   1.446  30.038 -0.0354  0.0942 -0.0984
26395W        W32845   2.190   3.629  33.023  0.2273 -0.0775 -0.0395
26396W        W32846  10.235   3.918  32.729 -0.1925 -0.0697  0.2802
26397W        W32847  16.087   5.511  18.920  0.2211  0.2735  0.3816
26398W        W32848   0.022   1.927  15.700 -0.1030  0.1666  0.0812
26399W        W32849  18.690   7.310  21.495 -0.0553 -0.1694  0.0796
26400W        W32850   7.091   4.828  26.549 -0.0252  0.1440 -0.2739
26401W        W32851   7.538   5.264   9.259  0.0369  0.1922  0.1684
26402W        W32852  20.460   0.660  31.465 -0.1092  0.0813 -0.0051
26403W        W32853  16.643   1.116  27.921 -0.1457  0.0086 -0.2538
26404W        W32854  22.155   1.272   2.768  0.3163 -0.3064 -0.3499
26405W        W32855  12.796   5.263  18.012  0.2464 -0.2242  0.2217
26406W        W32856  12.433   3.132   7.028 -0.2672 -0.2740 -0.0550
26407W        W32857  20.695   1.081  28.464 -0.1140 -0.2951 -0.1693
26408W        W32858   0.459   7.559  27.229  0.1907  0.1629 -0.0343
26409W        W32859  13.351   0.806  23.756  0.0239 -0.1326  0.0640
26410W        W32860   7.669   4.354   6.754 -0.0740  0.3478 -0.0635
26411W        W32861   1.197   7.354  27.386  0.1595  0.0973 -0.1961
26412W        W32862  16.419   2.416   3.371  0.2044 -0.4555 -0.1703
26413W        W32863   0.837   6.070  25.592 -0.0076  0.1649 -0.1111
26414W        W32864  20.827   1.504   1.144 -0.0116 -0.1792  0.1001
26415W        W32865   4.379   0.214  31.954 -0.3248  0.0320  0.1481
26416W        W32866   8.099   0.521  11.411  0.2716  0.2856 -0.0832
26417W        W32867   9.018   3.202  23.115 -0.1061 -0.3035 -0.1077
26418W        W32868  12.494   3.805   6.543  0.0707  0.1342 -0.1418
26419W        W32869  24.885   6.835  20.450 -0.0510 -0.1514 -0.1054
26420W        W32870  14.608   7.631   1.984  0.1457 -0.1286 -0.0331
26421W        W32871  12.325   1.018   5.735  0.1223  0.1379 -0.1233
26422W        W32872  19.976   3.277  24.331  0.0473 -0.0869  0.0351
26423W        W32873  16.746   4.050  21.684  0.0173 -0.2300  0.2022
26424W        W32874  18.658   3.280  25.247 -0.2239 -0.0320 -0.1232
26425W        W32875  17.758   6.873   8.483  0.0154 -0.3201  0.1113
26426W        W32876  24.402   7.679   0.031 -0.5112 -0.1483  0.1856
26427W        W32877  21.763   6.058   5.087 -0.1134  0.3335  0.1970
26428W        W32878  22.903   6.255  22.084 -0.0391  0.1723  0.1480
26429W        W32879   3.750   3.150  22.859  0.3502  0.1564 -0.0378
26430W        W32880  14.423   5.187  20.920 -0.2058 -0.0529  0.1302
26431W        W32881  22.061   7.534  25.570 -0.1957 -0.0726 -0.0649
26432W        W32882   6.748   6.254  13.824  0.1215 -0.0827  0.1907
26433W        W32883  13.948   6.675  28.064 -0.1610  0.3316  0.1247
26434W        W32884   6.846   7.627   9.901 -0.1791  0.0407  0.2895
26435W        W32885  17.635   7.167  32.127  0.1104 -0.0681  0.3211
26436W        W32886  12.725   7.590  10.459 -0.0208  0.1294  0.1918
26437W        W32887   3.131   2.696  32.259 -0.0937  0.1023  0.2579
26438W        W32888   7.290   7.686  10.314 -0.2191  0.0395  0.0951
26439W        W32889  13.136   2.659   2.210 -0.3624  0.1388  0.2173
26440W        W32890  19.181   0.859   0.774 -0.2307 -0.3007  0.1292
26441W        W32891   0.962   1.582  29.847  0.0955  0.2278 -0.2197
26442W        W32892   4.756   4.003  31.353  0.0448 -0.0308  0.3546
26443W        W32893  15.766   5.055   7.635 -0.1818  0.3967 -0.0290
26444W        W32894   7.055   0.591  23.465 -0.3136 -0.1532  0.0923
26445W        W32895   6.207   1.259  24.619  0.2800  0.0765  0.0115
26446W        W32896  24.783   7.156  14.088  0.0436 -0.1448  0.1634
26447W        W32897   6.620   0.464  29.064  0.0167  0.0157  0.1028
26448W        W32898  15.967   5.795  17.688  0.1694  0.1108  0.0653
26449W        W32899  17.481   3.996   0.715 -0.1444  0.1977 -0.0824
26450W        W32900  18.413   6.246  26.606 -0.0118 -0.0750  0.2100
26451W        W32901  12.728   7.515  18.701  0.1411 -0.2323  0.2361
26452W        W32902  14.322   4.318  25.970 -0.2758 -0.2182  0.0419
26453W        W32903  16.756   0.754  14.303  0.1710  0.0768 -0.2554
26454W        W32904   7.282   5.592  31.225 -0.0599 -0.0315  0.0969
26455W        W32905  14.632   3.765   9.409 -0.0524  0.3250 -0.1423
26456W        W32906   6.658   2.647  16.358 -0.0582  0.0061 -0.0508
26457W        W32907  20.556   0.593   6.972  0.1504  0.0002 -0.4232
26458W        W32908   8.632   6.659   9.944  0.2437  0.0362 -0.0244
26459W        W32909   9.675   0.903   9.115  0.2889  0.2264  0.0630
26460W        W32910  21.848   7.378   6.139  0.0095 -0.2245  0.1639
26461W        W32911  18.073   7.698  26.885 -0.0009 -0.0238  0.0240
26462W        W32912   8.075   0.631  16.469  0.0844 -0.1097 -0.0478
26463W        W32913   3.131   1.261  17.779  0.0698 -0.2288  0.1152
26464W        W32914  23.120   6.251  12.709 -0.2111  0.1085  0.2796
26465W        W32915   4.034   3.124  30.533  0.0326  0.0573  0.1462
26466W        W32916  22.349   2.864  28.334  0.1712 -0.2293  0.2698
26467W        W32917   3.693   7.364  11.587 -0.1834 -0.3105  0.2751
26468W        W32918  22.872   4.372   7.619 -0.1244  0.0538  0.1179
26469W        W32919   3.882   6.910  29.987 -0.1038  0.1777  0.0485
26470W        W32920  19.887   2.488  29.615  0.1237  0.1913 -0.0897
26471W        W32921  24.009   0.606  10.182  0.0574  0.0021  0.2942
26472W        W32922  20.381   5.621   1.121 -0.3906 -0.2240  0.1489
26473W        W32923  13.547   3.081  21.184  0.1376  0.1422  0.0103
26474W        W32924  20.941   2.104   5.262 -0.3220 -0.0719 -0.0106
26475W        W32925   8.077   0.574  28.077  0.0396 -0.1232  0.1836
26476W        W32926  20.636   0.338  28.482  0.2055  0.1712 -0.1262
26477W        W32927   9.289   7.263   3.183 -0.2678  0.2553  0.0924
26478W        W32928  20.418   3.844  26.999  0.0555 -0.0192  0.0371
26479W        W32929   7.010   6.259   5.794  0.3518  0.1434  0.0240
26480W        W32930  11.649   3.715   5.665 -0.0495 -0.0896  0.4321
26481W        W32931  23.205   5.999   8.087  0.1617  0.2933  0.3475
26482W        W32932  14.365   4.078  20.055  0.0302  0.2626  0.1024
26483W        W32933  24.338   3.405   5.436  0.0238 -0.1477  0.2134
26484W        W32934   5.726   3.922  11.387 -0.1905  0.1419  0.0439
26485W        W32935   6.997   4.327  31.594 -0.1176 -0.1242  0.0930
26486W        W32936  18.498   5.818  25.749 -0.0273  0.0666  0.1829
26487W        W32937  10.910   2.885  22.670 -0.1469  0.1167 -0.0729
26488W        W32938  22.348   1.460   4.349  0.1080  0.0699 -0.1404
26489W        W32939  11.793   0.526  20.628 -0.1842  0.0391 -0.3839
26490W        W32940   6.654   2.724   3.795 -0.3119  0.1411  0.0730
26491W        W32941  19.938   5.060  28.580 -0.0179 -0.3629  0.3069
26492W        W32942  23.052   6.484  31.397  0.2787 -0.0582 -0.0027
26493W        W32943   7.155   4.805  30.003  0.0458 -0.0417  0.0812
26494W        W32944  11.440   6.184   5.345 -0.4214  0.1646  0.0849
26495W        W32945  11.891   0.821   3.458  0.0231 -0.1219 -0.1422
26496W        W32946  11.052   6.646  27.251  0.3115  0.0143 -0.2249
26497W        W32947  17.561   5.763  15.587 -0.1646 -0.0042 -0.1118
26498W        W32948  12.845   0.868  21.682  0.1588  0.2494  0.1666
26499W        W32949  14.296   2.759  27.853 -0.0594  0.1110 -0.0432
26500W        W32950  14.324   3.345  23.210  0.3890 -0.1063  0.3752
26501W        W32951   6.203   1.535  12.277 -0.2642  0.1669  0.1354
26502W        W32952   1.546   3.723  11.309 -0.0592 -0.1747  0.1173
26503W        W32953  13.838   5.861  19.520 -0.2106  0.2414  0.2502
26504W        W32954  18.857   0.479  20.417 -0.2911 -0.0224  0.2273
26505W        W32955  22.822   7.466  20.871 -0.1017  0.0324 -0.1535
26506W        W32956   4.410   2.791  12.111  0.0867  0.1653  0.1180
26507W        W32957  24.726   2.858   5.206 -0.1350 -0.0104 -0.0797
26508W        W32958   4.636   1.424   5.907  0.1962  0.0226  0.0036
26509W        W32959  11.583   4.833  11.950  0.1298  0.1705 -0.2346
26510W        W32960  23.548   1.440  29.813 -0.1919  0.2428  0.2696
26511W        W32961   8.000   3.408   9.016  0.2578  0.1939 -0.0894
26512W        W32962  10.890   2.449   3.707 -0.2569  0.0708  0.4072
26513W        W32963   5.917   1.609  27.738 -0.1801  0.2676 -0.1602
26514W        W32964  18.088   3.599  19.286 -0.5281  0.0308 -0.1221
26515W        W32965  19.216   6.031   6.163  0.1667 -0.1341  0.1373
26516W        W32966  17.141   1.425   2.153 -0.2642 -0.2184 -0.0030
26517W        W32967   3.126   4.358  10.646  0.0040  0.2414  0.0438
26518W        W32968  17.652   1.851  17.857 -0.1718 -0.1086  0.3153
26519W        W32969  16.931   6.078  21.827 -0.1774  0.1335 -0.0853
26520W        W32970  24.500   6.019  26.088  0.1830 -0.4187  0.0303
26521W        W32971  20.989   0.874  11.440  0.0135  0.0402 -0.1920
26522W        W32972  10.178   7.426  26.418  0.1302 -0.0517  0.1763
26523W        W32973  19.549   6.945   2.209 -0.2598 -0.1203  0.1000
26524W        W32974  22.938   5.771  24.754 -0.4194  0.3638  0.1893
26525W        W32975  19.425   4.467  26.406  0.1332  0.1229  0.2444
26526W        W32976  22.505   0.503  11.363 -0.3047  0.0107 -0.0238
26527W        W32977  24.174   6.061  20.496 -0.1254 -0.2100 -0.1420
26528W        W32978  20.018   3.513  27.781 -0.2090 -0.2700  0.1645
26529W        W32979  22.946   1.429   4.329 -0.3523  0.1163  0.1155
26530W        W32980   7.800   6.272  29.536  0.0726 -0.1103  0.1023
26531W        W32981  22.134   3.038  22.422  0.2780  0.1494  0.1261
26532W        W32982   0.855   0.526  15.293 -0.3788  0.0980  0.0002
26533W        W32983  24.079   5.801   7.682  0.1369 -0.0007  0.0516
26534W        W32984   2.440   2.807  24.747 -0.1262  0.0341  0.2916
26535W        W32985  20.300   5.071  17.879 -0.2052 -0.0980 -0.0547
26536W        W32986  11.658   3.683  23.532  0.2801 -0.2828  0.1216
26537W        W32987   9.174   1.123  30.227 -0.0349  0.0042 -0.1693
26538W        W32988  10.361   4.190   3.008 -0.1756  0.0410  0.4012
26539W        W32989  11.510   4.391   3.581  0.2530 -0.1464 -0.2022
26540W        W32990   1.016   2.596  22.521 -0.2922  0.0200 -0.2503
26541W        W32991  13.835   1.201  25.609  0.1654  0.0275 -0.2056
26542W        W32992  23.679   1.298  24.139  0.2056  0.0696 -0.0785
26543W        W32993  11.347   7.562  27.736  0.0454  0.0536 -0.0221
26544W        W32994   0.001   6.477  32.560  0.0423  0.2122  0.1357
26545W        W32995   5.175   7.559   9.945 -0.0963  0.0296 -0.1299
26546W        W32996   8.178   6.324  30.557  0.0367  0.1932 -0.1045
26547W        W32997  16.610   5.810  22.199  0.0214 -0.3078 -0.0817
26548W        W32998   9.107   7.734   8.030  0.0635 -0.0805 -0.4674
26549W        W32999  17.664   2.460  24.964 -0.3067 -0.1125 -0.0635
26550W        W33000  23.382   0.538   9.439  0.1604 -0.0204 -0.0922
26551W        W33001   7.638   4.882  15.785  0.3269  0.0032  0.1852
26552W        W33002  17.290   7.275  21.748 -0.5484 -0.2437  0.2695
26553W        W33003   7.726   5.674  30.998  0.1026  0.1158 -0.0773
26554W        W33004  15.692   4.145  19.222 -0.2728 -0.0147 -0.1488
26555W        W33005  19.408   2.134  32.050  0.0913 -0.4263  0.1198
26556W        W33006  14.565   6.843  27.509  0.2631  0.2132  0.0777
26557W        W33007  13.040   6.134  28.831  0.1298 -0.2335 -0.0066
26558W        W33008  21.423   1.274   3.437  0.0395  0.1791 -0.2788
26559W        W33009   4.768   4.981   4.423  0.1851 -0.0643 -0.2296
26560W        W33010  20.982   1.245  10.228  0.3048  0.3664 -0.1442
26561W        W33011   4.268   6.068  10.517  0.1879 -0.1316 -0.0621
26562W        W33012   6.373   3.808  27.644 -0.1473  0.1407 -0.0976
26563W        W33013   2.570   0.005  30.657  0.0027 -0.0644  0.1339
26564W        W33014  21.786   4.103  29.856  0.1053 -0.2580  0.1909
26565W        W33015  21.441   6.421  25.697  0.0422 -0.1466  0.0170
26566W        W33016   4.396   3.826   2.842 -0.1426  0.0913 -0.4360
26567W        W33017  16.176   7.369  32.598  0.1303  0.0542 -0.3509
26568W        W33018  19.436   3.475  18.599 -0.1390  0.0656 -0.0012
26569W        W33019  18.633   4.737  20.818 -0.1203  0.0361 -0.0322
26570W        W33020  20.669   0.699  32.060 -0.1905 -0.3977  0.1471
26571W        W33021  18.265   4.294  15.427 -0.2914  0.1009 -0.3719
26572W        W33022   9.133   6.396  21.599  0.0366  0.0823  0.1558
26573W        W33023   8.013   0.512  14.501 -0.0357  0.1371 -0.0507
26574W        W33024   1.801   0.098   6.622 -0.1959  0.1145  0.4427
26575W        W33025  14.802   3.073   2.645 -0.0218  0.3161  0.0138
26576W        W33026  13.376   7.150  21.513  0.0954  0.2067 -0.0492
26577W        W33027   5.844   7.097   9.648  0.0007  0.1788  0.1318
26578W        W33028   3.389   2.356   9.187  0.3955  0.1072 -0.0922
26579W        W33029   1.309   5.321  12.146 -0.3914  0.1521  0.2542
26580W        W33030  23.525   6.262   6.808 -0.2819 -0.1168 -0.0670
26581W        W33031   4.312   2.693  14.944  0.0175 -0.1631  0.1532
26582W        W33032  10.375   7.376   3.508  0.0418  0.0901 -0.0383
26583W        W33033  23.934   4.186  10.971 -0.0359 -0.1018 -0.1075
26584W        W33034  16.411   5.670   9.183  0.1303 -0.4305 -0.0535
26585W        W33035  14.135   6.832   3.393 -0.3464  0.0312  0.2467
26586W        W33036  15.568   3.739  23.236 -0.0133  0.0954 -0.0933
26587W        W33037  11.455   2.532   1.449 -0.0483  0.1660  0.1269
26588W        W33038   9.410   7.326  29.623 -0.2519  0.4614  0.0621
26589W        W33039  20.501   7.017  28.822 -0.0451  0.0158  0.1990
26590W        W33040   1.680   7.550  28.414  0.0798  0.3221 -0.2627
26591W        W33041   4.327   0.955   0.864  0.1280  0.1172 -0.4486
26592W        W33042   9.541   1.266  29.748 -0.0296 -0.2161 -0.0854
26593W        W33043  24.376   5.069   0.686  0.2678 -0.1418 -0.0568
26594W        W33044  19.918   6.196  24.666 -0.2487 -0.0550  0.1859
26595W        W33045  11.018   0.970   3.594  0.0682 -0.1675 -0.2232
26596W        W33046  21.069   1.980  28.115 -0.1329 -0.0466  0.0820
26597W        W33047   5.325   7.683   7.133 -0.2219 -0.3821  0.0206
26598W        W33048  23.219   5.298   1.912 -0.0413  0.2184 -0.3586
26599W        W33049  16.452   4.719   8.048 -0.2253 -0.0609 -0.4169
26600W        W33050  11.527   7.734  25.947  0.2108  0.0711  0.0701
26601W        W33051   6.015   4.806   8.367  0.1599  0.1070 -0.0118
26602W        W33052  16.492   3.555  18.144 -0.0086 -0.0369 -0.1427
26603W        W33053  21.022   4.935  32.520  0.1737  0.2188  0.0174
26604W        W33054  11.610   1.535  27.122 -0.0174 -0.1345 -0.2061
26605W        W33055   5.883   3.445  32.806 -0.0090  0.1540  0.2564
26606W        W33056  21.927   5.878  11.777 -0.3694  0.1609  0.0793
26607W        W33057   9.820   3.161   9.137  0.1997 -0.2186 -0.1854
26608W        W33058  12.118   6.069   0.206 -0.2234  0.0390 -0.0615
26609W        W33059  15.240   5.301  22.214  0.0258  0.1344  0.1473
26610W        W33060  16.751   3.627   4.537 -0.2441  0.3197  0.1749
26611W        W33061  15.103   5.751  17.101 -0.0479 -0.0968  0.2315
26612W        W33062  16.821   5.377  15.432 -0.0513 -0.1359 -0.0969
26613W        W33063  19.765   5.659  18.128 -0.1992  0.3085 -0.1353
26614W        W33064  21.176   3.546  21.570  0.0401 -0.3330  0.1711
26615W        W33065  19.453   1.487  31.593  0.1984 -0.3288 -0.2209
26616W        W33066  17.995   7.579  15.543 -0.0916  0.2594 -0.0459
26617W        W33067  12.143   5.882  28.122 -0.1905  0.2877  0.4324
26618W        W33068  20.855   6.520  22.324 -0.1986  0.0193 -0.0765
26619W        W33069   5.200   0.669   4.469  0.1031  0.2400  0.0654
26620W        W33070   3.055   7.612  26.534  0.0139 -0.0439 -0.1872
26621W        W33071  10.053   6.807  24.301  0.2834 -0.1585 -0.0596
26622W        W33072   6.795   1.135  25.197 -0.1541  0.2079  0.0498
26623W        W33073  18.920   3.339  31.304  0.3222  0.3420  0.2260
26624W        W33074  21.683   5.280   9.629 -0.0974 -0.1855 -0.0192
26625W        W33075  17.483   1.913   6.712  0.1778  0.1266 -0.0863
26626W        W33076  12.072   2.777   3.727  0.1760 -0.2416 -0.2920
26627W        W33077  19.161   5.316   3.562  0.0389  0.1657 -0.0656
26628W        W33078  12.533   2.193   0.930  0.1251  0.3121 -0.1130
26629W        W33079   3.606   0.292  24.091 -0.2235 -0.1902 -0.1833
26630W        W33080  15.184   4.542  17.128  0.1454 -0.0975 -0.0796
26631W        W33081   7.073   1.068  13.952  0.3182  0.3139 -0.0927
26632W        W33082   6.718   6.309   4.649 -0.0925  0.0140  0.0594
26633W        W33083   3.177   5.628  32.958 -0.1565  0.0253 -0.0243
26634W        W33084  10.193   1.681  31.122 -0.1469  0.0065 -0.2234
26635W        W33085  11.162   7.245  29.954 -0.2458  0.0584 -0.1436
26636W        W33086  10.648   1.928  28.801 -0.3804 -0.1246  0.1560
26637W        W33087  14.481   2.970  32.101  0.2482 -0.2131  0.0501
26638W        W33088  16.009   6.578  18.924  0.0749 -0.0691  0.1401
26639W        W33089  21.506   3.224   4.108  0.2862  0.2087  0.1143
26640W        W33090  14.713   0.762   2.007  0.0105 -0.1118 -0.0242
26641W        W33091  19.983   1.920  24.501  0.0322  0.0429  0.0473
26642W        W33092  23.299   4.330  28.940  0.1413  0.0296 -0.2238
26643W        W33093  10.912   2.623  25.388  0.4110 -0.0485  0.3500
26644W        W33094   8.062   7.714  15.116 -0.2400 -0.0768  0.0195
26645W        W33095   5.992   1.392  14.251 -0.2725 -0.0513  0.0604
26646W        W33096  20.313   6.098  24.340 -0.0063 -0.0914  0.0173
26647W        W33097  22.220   1.971  25.016 -0.1609  0.4128  0.1362
26648W        W33098  17.966   0.301  31.871 -0.1952 -0.2419 -0.0500
26649W        W33099   5.939   5.292   3.520 -0.2096 -0.2926  0.1694
26650W        W33100   7.232   7.168   1.396 -0.2503  0.1225 -0.2409
26651W        W33101  17.313   1.357  28.260 -0.1622 -0.0428  0.1176
26652W        W33102   7.753   6.824  11.212  0.0686  0.1581  0.0696
26653W        W33103  10.947   3.156  24.438 -0.1262 -0.4760 -0.0566
26654W        W33104  19.637   0.269  31.957  0.0656 -0.1608 -0.1418
26655W        W33105  15.421   5.200   2.599  0.0475 -0.2742  0.0420
26656W        W33106  13.505   1.189   8.055  0.1539  0.0156 -0.2760
26657W        W33107  24.843   2.089   5.423  0.2940  0.0518 -0.0817
26658W        W33108   4.706   0.680   9.852  0.0748  0.4213 -0.1017
26659W        W33109  12.012   5.621  32.915 -0.2416 -0.2980  0.2342
26660W        W33110   9.891   7.695   5.026  0.1248  0.0858  0.0357
26661W        W33111  14.742   1.347  22.045  0.3606  0.3272  0.1660
26662W        W33112   4.095   2.503  12.983  0.4620  0.1284 -0.0309
26663W        W33113  20.177   7.053  29.727 -0.1175 -0.1269  0.0879
26664W        W33114  21.362   5.306  32.731 -0.1920 -0.1130 -0.3050
26665W        W33115   8.850   2.816   6.669  0.2400 -0.0667  0.2253
26666W        W33116  14.278   2.763  23.927  0.0087 -0.0206  0.3020
26667W        W33117  19.203   2.345  16.514  0.1458  0.0905  0.1886
26668W        W33118   5.462   7.057  17.069 -0.1849 -0.1993 -0.1568
26669W        W33119  14.589   0.403  28.176  0.1289 -0.1138 -0.0036
26670W        W33120  24.642   2.442   2.007  0.0901 -0.0009 -0.2452
26671W        W33121  15.318   6.479   5.871  0.1717 -0.0032 -0.0478
26672W        W33122   6.660   1.199   4.990  0.1668  0.2051 -0.2308
26673W        W33123  22.025   3.548  30.637  0.1524  0.1447 -0.0631
26674W        W33124  12.088   3.305  23.871  0.0175 -0.0385  0.3891
26675W        W33125   6.702   4.744  27.812 -0.0176 -0.4129  0.0138
26676W        W33126   4.192   7.735  13.662 -0.0679  0.1351  0.0100
26677W        W33127  19.742   5.965   2.187 -0.1333  0.0032  0.1757
26678W        W33128  15.770   5.550  23.357 -0.0350  0.0729 -0.2562
26679W        W33129  14.435   2.156  25.993 -0.0027 -0.2357 -0.1782
26680W        W33130  12.594   4.774   9.743  0.1044  0.3072  0.0104
26681W        W33131   2.030   6.469  22.638 -0.2434  0.2719  0.2969
26682W        W33132   4.374   6.770  15.026 -0.1759  0.2977  0.0660
26683W        W33133  15.749   3.836  17.207 -0.1826  0.0599 -0.3371
26684W        W33134  16.200   5.995   6.697 -0.0155  0.0567  0.3341
26685W        W33135  18.178   1.672   3.221 -0.0672 -0.1745 -0.2434
26686W        W33136   0.746   1.305  16.407 -0.0611 -0.0719 -0.1931
26687W        W33137  14.431   2.730  22.978  0.2748 -0.0281 -0.0663
26688W        W33138   4.848   5.150  26.364  0.2906  0.0791  0.1934
26689W        W33139   0.465   0.374  22.704  0.2200  0.3467 -0.1384
26690W        W33140  18.794   2.677  26.058 -0.0049 -0.0438  0.0495
26691W        W33141  24.426   6.349   9.963 -0.0357  0.1268 -0.3055
26692W        W33142  15.009   7.534  27.029 -0.2348 -0.3274 -0.0959
26693W        W33143   9.421   4.520  30.063 -0.1153 -0.0622  0.2236
26694W        W33144  13.309   3.189   3.181  0.1441  0.1820 -0.1101
26695W        W33145  14.461   7.065  20.367 -0.1089  0.3682 -0.0192
26696W        W33146   8.383   5.548   8.831 -0.0710 -0.1368  0.1951
26697W        W33147  23.815   1.250  31.969 -0.4066  0.0307 -0.1160
26698W        W33148   1.152   3.278  15.601 -0.1463  0.0387 -0.0713
26699W        W33149  20.439   4.851  31.900 -0.1430  0.3344  0.0657
26700W        W33150  23.209   3.206  32.069  0.0615  0.0981 -0.3763
26701W        W33151  19.189   3.808   6.618  0.1641 -0.2020  0.1255
26702W        W33152  11.616   6.610  11.195  0.0620  0.1827 -0.0132
26703W        W33153   0.098   4.160   4.014 -0.2595  0.1763  0.0151
26704W        W33154  23.378   4.148  30.931 -0.2649 -0.1515 -0.3920
26705W        W33155   9.826   3.808  27.528 -0.1002 -0.1030  0.2278
26706W        W33156  19.510   6.702  21.101 -0.0979  0.1413  0.0472
26707W        W33157  21.721   3.589  27.773  0.1416  0.0383 -0.1410
26708W        W33158  22.581   1.662  26.728  0.4313 -0.0673 -0.1659
26709W        W33159  23.681   4.820   6.431 -0.1610  0.1198  0.2021
26710W        W33160   8.435   1.247   4.863 -0.0207 -0.2890  0.0970
26711W        W33161  19.071   5.982   4.388 -0.3459  0.5161 -0.0027
26712W        W33162  14.195   2.953  25.634  0.0358  0.0363 -0.0205
26713W        W33163   7.414   3.271   0.921  0.1425  0.1065 -0.5551
26714W        W33164  17.536   4.754  29.844 -0.0593 -0.2103 -0.0313
26715W        W33165  14.106   6.377  31.246 -0.5107  0.0453  0.1919
26716W        W33166  12.972   0.969  22.402 -0.0621 -0.2317  0.4638
26717W        W33167  16.187   6.257  17.742 -0.3704 -0.0427 -0.0617
26718W        W33168  24.503   1.228   5.866  0.4772  0.2046 -0.0266
26719W        W33169  21.600   1.085  31.951  0.3095 -0.0951  0.2219
26720W        W33170   1.527   2.745  11.296  0.0136 -0.3667 -0.4425
26721W        W33171   6.339   7.182   2.665  0.3956 -0.1661 -0.0630
26722W        W33172  23.513   2.307  29.470 -0.0625  0.0178  0.2618
26723W        W33173   5.242   3.035  13.651 -0.1461  0.2574 -0.2684
26724W        W33174  14.479   4.503   7.224  0.0865  0.3733  0.2955
26725W        W33175   4.257   2.923   3.346 -0.1521  0.1004 -0.1241
26726W        W33176  21.813   5.612  21.871  0.2915 -0.0366 -0.1366
26727W        W33177  11.204   3.432  12.048  0.0512  0.0778 -0.1287
26728W        W33178  18.609   0.145  19.320 -0.2486  0.0781  0.0018
26729W        W33179   8.189   4.266   6.719 -0.2506 -0.1338  0.0716
26730W        W33180  14.747   7.002  26.947 -0.0565 -0.1653  0.2330
26731W        W33181  10.821   1.357  25.475 -0.1822  0.1133 -0.2227
26732W        W33182  10.944   6.805  11.514  0.1630  0.1620 -0.1959
26733W        W33183  23.471   6.443   7.884 -0.0736  0.2226 -0.0447
26734W        W33184   4.171   5.413  30.128 -0.1499 -0.1245  0.2428
26735W        W33185  14.243   6.755   7.043  0.2535  0.1668  0.1662
26736W        W33186   4.988   1.953   3.863  0.2393  0.1071 -0.1089
26737W        W33187  14.450   3.743   3.290  0.0820  0.0515 -0.1009
26738W        W33188   8.788   6.135  27.949  0.3840 -0.0513 -0.2598
26739W        W33189  24.407   7.614  26.823  0.0690  0.3032 -0.0544
26740W        W33190  17.930   3.780  32.045  0.1509 -0.0711 -0.1216
26741W        W33191  14.658   4.174  20.573  0.1818  0.1120 -0.0194
26742W        W33192  13.232   4.143   9.920  0.2561 -0.0864 -0.0572
26743W        W33193   0.611   6.754   2.581  0.0898 -0.1742  0.1417
26744W        W33194  16.050   0.311   1.857 -0.0814  0.3801  0.0821
26745W        W33195  11.510   0.764  26.683  0.0509 -0.1058  0.0562
26746W        W33196   2.973   1.380  24.363  0.0339 -0.0154 -0.2968
26747W        W33197  15.065   1.182  14.798 -0.1695  0.1301 -0.1259
26748W        W33198   1.827   2.558   7.800  0.1402  0.0139 -0.1561
26749W        W33199   2.730   7.599  10.712 -0.1880 -0.3126  0.4765
26750W        W33200   4.422   5.200  22.839 -0.5507  0.1492  0.0653
26751W        W33201  10.612   3.850  21.143 -0.2594 -0.3179  0.0431
26752W        W33202   7.055   3.223   3.486 -0.0638  0.0232  0.0232
26753W        W33203   7.463   5.324  23.848 -0.0246  0.0185  0.1191
26754W        W33204   6.784   4.674   0.716  0.1672  0.1051 -0.0048
26755W        W33205   6.985   3.739  15.225 -0.1562  0.0794 -0.2607
26756W        W33206   1.570   7.257  26.059  0.0195 -0.2138 -0.1299
26757W        W33207   5.673   7.077  28.047  0.0882  0.0605 -0.2516
26758W        W33208  21.275   1.509  22.688  0.1143  0.1004 -0.1037
26759W        W33209  10.640   2.182   7.575 -0.1024  0.3696  0.0141
26760W        W33210  12.803   7.331  28.917  0.2416  0.1237 -0.1581
26761W        W33211   6.196   3.863  26.411 -0.2791  0.0917  0.0649
26762W        W33212  18.264   0.968   9.640 -0.1654 -0.0213  0.1165
26763W        W33213  14.556   5.134  28.467 -0.2708  0.3235  0.1845
26764W        W33214   2.336   5.806   9.381 -0.0963  0.1845 -0.2570
26765W        W33215  11.764   6.960   3.269  0.1066 -0.0397  0.1082
26766W        W33216   6.865   7.636   6.395 -0.1611 -0.1173  0.2395
26767W        W33217  21.529   0.676  28.177 -0.0466 -0.0664 -0.2540
26768W        W33218  12.873   2.311  32.639 -0.4128 -0.0582  0.0708
26769W        W33219  20.613   7.557  18.649  0.0142  0.2229  0.0912
26770W        W33220   8.801   6.826  25.947  0.2779 -0.1444  0.0351
26771W        W33221  18.995   2.122  29.865  0.1042 -0.4774  0.1172
26772W        W33222   5.386   7.731  11.497 -0.0755  0.0760  0.0387
26773W        W33223  17.928   5.607  23.716  0.0972 -0.2039  0.0611
26774W        W33224   2.079   0.458  14.575 -0.2503 -0.0310 -0.5371
26775W        W33225  16.174   1.504   1.185 -0.0335 -0.1248 -0.0739
26776W        W33226  13.204   0.086  23.299 -0.1882  0.2400 -0.1487
26777W        W33227  23.751   7.379   3.419 -0.3095  0.3336  0.0775
26778W        W33228   8.888   1.381  25.549  0.1116 -0.1755 -0.2906
26779W        W33229   5.814   3.335   7.790 -0.1379 -0.1054  0.2175
26780W        W33230  24.315   3.185  11.312  0.1506  0.0168  0.2344
26781W        W33231   1.575   3.993   1.807  0.1107 -0.1594 -0.2660
26782W        W33232  11.046   4.259  24.091  0.2073  0.0195  0.0997
26783W        W33233  23.291   1.040  29.174  0.0105  0.0372 -0.1688
26784W        W33234  17.508   2.315  30.987  0.1977  0.0350  0.3486
26785W        W33235  11.132   3.757   3.566  0.2622 -0.0430  0.1224
26786W        W33236  21.131   5.227  19.206  0.2081 -0.0578 -0.0255
26787W        W33237   4.885   1.264   6.788 -0.1116 -0.0643 -0.3313
26788W        W33238  20.287   1.520   6.284 -0.1146  0.2082 -0.0684
26789W        W33239   1.542   3.987  13.352  0.1211 -0.1373 -0.0416
26790W        W33240  23.834   2.291   8.063  0.3028  0.2012  0.1305
26791W        W33241  14.868   0.312  14.971  0.0784  0.1124 -0.1141
26792W        W33242   8.884   4.799  29.450 -0.2680 -0.1422  0.0240
26793W        W33243   6.079   1.304   8.887 -0.0614 -0.0522 -0.1658
26794W        W33244  17.840   3.283  17.811 -0.2185  0.1175  0.1765
26795W        W33245   1.374   1.492  24.850 -0.2429 -0.1041  0.2411
26796W        W33246   6.263   5.065   3.937 -0.1111  0.1037  0.1011
26797W        W33247  15.387   4.496   7.782 -0.0644  0.0881 -0.3323
26798W        W33248   7.439   1.999   8.788  0.2020 -0.0343 -0.2111
26799W        W33249  21.298   1.401   1.238 -0.0199  0.1340  0.0901
26800W        W33250  16.765   7.040   3.813 -0.0193  0.1578 -0.3594
26801W        W33251  10.262   5.783   4.449 -0.2195 -0.2661  0.0889
26802W        W33252   1.283   6.738   4.124 -0.0100  0.1152 -0.0500
26803W        W33253   1.990   0.747  13.733 -0.0674 -0.1370 -0.1036
26804W        W33254   8.338   1.440  13.280 -0.0154 -0.4398 -0.0959
26805W        W33255   4.447   2.670   6.179  0.0466 -0.1818  0.1031
26806W        W33256  23.010   5.562   9.047  0.1896 -0.1313  0.1174
26807W        W33257  10.254   3.720  28.293  0.1637 -0.3143 -0.1840
26808W        W33258   6.807   3.313  26.074  0.0031  0.2199  0.1401
26809W        W33259  16.800   4.377  21.078  0.1605 -0.0824 -0.0195
26810W        W33260   3.548   7.283  26.128 -0.2296 -0.2350 -0.2067
26811W        W33261  13.301   2.324   4.449  0.0615  0.0872  0.1818
26812W        W33262   1.614   4.473  16.500  0.0769  0.4139  0.0903
26813W        W33263   9.037   7.775  11.742 -0.1193 -0.1384 -0.2556
26814W        W33264   4.714   0.508  26.828  0.0842 -0.1326  0.3174
26815W        W33265  21.535   6.549  27.623  0.0734  0.0263  0.1180
26816W        W33266   7.109   1.797  27.136 -0.0509 -0.1335  0.1977
26817W        W33267  18.240   1.470  27.064 -0.0305 -0.2250  0.0256
26818W        W33268  21.804   3.642   5.611 -0.0379  0.1288 -0.2848
26819W        W33269  14.903   4.879  18.548  0.1555  0.1740 -0.0501
26820W        W33270  17.870   3.490  22.728 -0.1248 -0.0030  0.3281
26821W        W33271   8.145   2.296   5.289 -0.1913 -0.1751 -0.1425
26822W        W33272  20.639   5.482  18.428 -0.0887  0.0767 -0.0249
26823W        W33273  16.769   6.542  22.259 -0.1907 -0.0777  0.0964
26824W        W33274  12.444   5.783   8.274 -0.0562 -0.2505 -0.3955
26825W        W33275  14.163   5.429  23.178  0.1828  0.0753  0.0443
26826W        W33276  14.359   3.706   9.993  0.0077  0.1350  0.3024
26827W        W33277   0.155   4.896  15.624  0.0252 -0.1054 -0.0909
26828W        W33278   5.029   5.831  12.060 -0.4828  0.1479 -0.1608
26829W        W33279  21.240   7.429   1.588 -0.3858 -0.1247 -0.3850
26830W        W33280  17.105   3.014  21.221 -0.0372 -0.0778  0.1080
26831W        W33281  13.326   0.364   0.329  0.1568  0.0849  0.1035
26832W        W33282   8.610   5.645   6.297 -0.0392  0.2538 -0.0113
26833W        W33283   2.325   0.703   5.068 -0.2568  0.2053 -0.2175
26834W        W33284  19.677   4.280   3.326 -0.1514 -0.1751 -0.0840
26835W        W33285  23.624   3.115  23.808  0.3306  0.4142  0.0785
26836W        W33286   6.388   3.440   4.549 -0.1468  0.1350  0.2938
26837W        W33287  20.224   7.301   9.016  0.0485 -0.0329  0.1113
26838W        W33288  23.337   1.164   8.865  0.0911 -0.2079 -0.2546
26839W        W33289   1.373   4.544  30.479  0.1436 -0.0862 -0.2853
26840W        W33290  23.568   1.986   7.168 -0.0355  0.1667  0.0744
26841W        W33291  13.576   7.388   0.655  0.1413 -0.0034  0.1619
26842W        W33292  15.879   5.585   1.417 -0.4589 -0.2888  0.0786
26843W        W33293  20.117   4.090  27.311  0.1589 -0.0641  0.1784
26844W        W33294  19.987   0.768  18.064  0.1458  0.1433  0.0575
26845W        W33295  16.107   6.354  16.958  0.1055 -0.0359  0.2529
26846W        W33296  21.929   4.619   5.470 -0.2900 -0.0829 -0.1332
26847W        W33297   3.737   4.552  15.911  0.1400 -0.1724 -0.0836
26848W        W33298   8.350   0.180  25.794  0.0098  0.1366 -0.0892
26849W        W33299  22.343   0.043   8.592 -0.1014 -0.2749 -0.0354
26850W        W33300   4.516   2.902  31.155  0.0001  0.0236  0.0930
26851W        W33301   8.791   7.461  32.012  0.1928 -0.2831 -0.0976
26852W        W33302  15.852   1.226  23.205  0.1970 -0.0249 -0.0334
26853W        W33303   2.820   2.612   5.363 -0.3643  0.1097  0.2151
26854W        W33304   5.038   3.267  23.670  0.1391 -0.0317  0.0568
26855W        W33305  20.339   2.811  11.064  0.2543  0.0888 -0.0773
26856W        W33306  11.700   5.648   9.639  0.1832 -0.1537  0.1521
26857W        W33307  11.226   5.571  30.057  0.0682 -0.1955 -0.1582
26858W        W33308  14.454   2.486  24.300 -0.3428  0.0081  0.0945
26859W        W33309   2.669   7.236  18.310 -0.2147  0.3043 -0.0326
26860W        W33310  16.678   0.866   5.586 -0.2956  0.0373 -0.0490
26861W        W33311  15.781   2.850   1.978 -0.0379  0.0510 -0.0285
26862W        W33312  21.826   0.108  12.933 -0.0095  0.0295 -0.1095
26863W        W33313  22.019   7.138  25.254  0.1205  0.1875  0.3145
26864W        W33314  20.482   6.720  16.651 -0.2053 -0.2296 -0.1349
26865W        W33315  23.321   6.310  11.825 -0.2458  0.1652  0.0181
26866W        W33316   1.040   3.114  26.955  0.1226 -0.2073  0.0587
26867W        W33317   4.843   0.131  22.772  0.2266 -0.0347 -0.0095
26868W        W33318   6.489   2.116  13.374  0.1189 -0.0131 -0.0291
26869W        W33319  23.341   2.618  29.095 -0.0459 -0.2288  0.2392
26870W        W33320  14.490   5.476  26.917 -0.1622 -0.1014  0.0560
26871W        W33321   1.345   6.987   5.356  0.1788  0.1725 -0.1081
26872W        W33322   2.852   1.866  25.424 -0.1400  0.1542  0.3912
26873W        W33323  23.552   1.236  27.665  0.0097 -0.1203  0.0944
26874W        W33324   4.826   6.467   0.880 -0.2863  0.1238 -0.0007
26875W        W33325   7.485   4.167  28.819 -0.0324 -0.0638 -0.1245
26876W        W33326   5.555   2.425   4.609 -0.1331 -0.1593 -0.2648
26877W        W33327  24.014   6.707  10.020  0.0747  0.0793 -0.1682
26878W        W33328   7.563   7.152   2.182 -0.1264 -0.1627 -0.0402
26879W        W33329  13.692   2.007   3.530  0.0488 -0.1519  0.0709
26880W        W33330  10.305   1.009  32.467 -0.1459  0.0380 -0.1713
26881W        W33331   3.708   0.354   5.159 -0.2443 -0.0548 -0.0907
26882W        W33332   7.449   0.490   9.552 -0.0387  0.1077 -0.0957
26883W        W33333   7.064   1.933  15.049  0.1456  0.3788 -0.0432
26884W        W33334   8.243   6.339  13.275  0.0302 -0.3158  0.0668
26885W        W33335  10.022   6.834  32.652 -0.0026 -0.0684  0.3164
26886W        W33336   5.157   0.778  17.760  0.4314 -0.5156 -0.0673
26887W        W33337   9.164   5.165   2.845  0.0043  0.1662 -0.1234
26888W        W33338   3.235   4.753   6.763 -0.1754 -0.1049 -0.1988
26889W        W33339   6.752   7.065  31.134 -0.2847 -0.2456  0.0476
26890W        W33340  13.104   5.394  22.200  0.0280 -0.1703  0.0975
26891W        W33341   1.911   2.961  31.129  0.2013  0.1748 -0.1994
26892W        W33342  20.708   6.099  20.960 -0.0736  0.2652  0.2250
26893W        W33343   8.005   0.316  26.603 -0.1250 -0.3541  0.1613
26894W        W33344   8.521   5.670   9.879 -0.1665  0.0400 -0.2252
26895W        W33345  14.112   6.273  15.763 -0.3257 -0.0382  0.1578
26896W        W33346  13.475   0.761   1.813  0.1823 -0.0415 -0.1402
26897W        W33347  19.032   7.244   9.869 -0.0321 -0.0024  0.1508
26898W        W33348  22.000   6.622  23.849 -0.0108  0.4085  0.1033
26899W        W33349  21.051   3.562  25.034  0.2256  0.0217  0.0263
26900W        W33350   7.234   1.117  11.393  0.1305 -0.1568  0.1335
26901W        W33351  23.820   0.132  24.142 -0.0543 -0.1282 -0.1544
26902W        W33352  13.033   1.030   7.904  0.2020 -0.1394 -0.0701
26903W        W33353  19.695   5.838   6.534  0.3504 -0.3181  0.2415
26904W        W33354  12.925   2.356  25.345  0.0946 -0.0562  0.0722
26905W        W33355  12.419   6.533   9.529  0.0630  0.0117 -0.1093
26906W        W33356   0.460   4.455   7.918 -0.0955 -0.0808  0.0913
26907W        W33357  22.085   1.283   9.712 -0.1109 -0.0595 -0.0812
26908W        W33358   2.451   1.496   5.315 -0.1233  0.1783  0.2245
26909W        W33359  13.098   7.364  31.836  0.0284  0.0330 -0.0436
26910W        W33360   3.812   0.917  13.020 -0.1269  0.1954 -0.2534
26911W        W33361  14.133   4.199  20.649 -0.0904 -0.2527 -0.1067
26912W        W33362   3.502   6.503  17.436 -0.0650 -0.5025 -0.0397
26913W        W33363   1.887   2.992  32.202  0.1342 -0.0590  0.4960
26914W        W33364  12.804   0.719   5.936 -0.0448 -0.0850  0.0134
26915W        W33365   1.266   2.623  29.485 -0.0236 -0.1506 -0.4583
26916W        W33366   7.291   6.322   1.160  0.0422 -0.1747  0.0931
26917W        W33367  19.680   0.259  17.303  0.1470 -0.2900 -0.2984
26918W        W33368   4.489   1.570   5.464 -0.0584  0.0188 -0.1343
26919W        W33369  21.744   7.664  26.469  0.1168  0.0395 -0.0803
26920W        W33370  18.904   3.974   1.803  0.0671  0.0021  0.0620
26921W        W33371   7.905   5.103   7.564 -0.6796 -0.0652 -0.1510
26922W        W33372  24.065   0.958  23.063 -0.0428  0.1212  0.2029
26923W        W33373  14.958   5.311   9.640 -0.1460 -0.0056  0.0558
26924W        W33374   2.942   6.600   0.724 -0.1208 -0.0677 -0.0002
26925W        W33375   5.038   0.536  32.975  0.1628  0.0345 -0.0319
26926W        W33376  17.767   7.601   2.809 -0.3129 -0.2895  0.1431
26927W        W33377   0.657   4.546  25.038  0.3477 -0.3040 -0.2813
26928W        W33378  10.240   5.100   3.545 -0.2910  0.0998  0.0260
26929W        W33379   2.061   7.204  16.964 -0.0844  0.1213  0.1865
26930W        W33380  17.854   5.928  31.394  0.2521  0.0501  0.1256
26931W        W33381   1.795   5.945  23.999 -0.2962  0.1012  0.0748
26932W        W33382  20.256   0.209  27.472 -0.1276  0.1443  0.1814
26933W        W33383  11.076   0.240   2.393  0.3996 -0.0041  0.0314
26934W        W33384   1.494   1.840   4.387 -0.0740 -0.0590  0.0619
26935W        W33385   4.311   3.226   8.756 -0.1677  0.1041  0.1485
26936W        W33386   2.956   7.120   3.766  0.1125  0.2753  0.0535
26937W        W33387   5.066   0.986  16.226 -0.3036  0.1054 -0.0518
26938W        W33388   3.233   6.433  32.870 -0.3504  0.0002 -0.1540
26939W        W33389  14.375   7.055  10.006 -0.3947 -0.2316 -0.0217
26940W        W33390   1.238   2.935   2.084  0.2663  0.0397  0.2983
26941W        W33391   2.874   5.125   6.721  0.0819 -0.0021  0.2098
26942W        W33392  22.183   0.794  10.396 -0.1091  0.1436  0.4295
26943W        W33393   5.062   7.000  13.956  0.1512 -0.1544 -0.0751
26944W        W33394  18.705   1.272  28.674 -0.1949  0.1959  0.1230
26945W        W33395  20.037   4.363  31.989 -0.1328 -0.2412 -0.1638
26946W        W33396  16.326   6.725  22.046  0.1715  0.0587  0.0150
26947W        W33397   5.732   2.858   6.227  0.0327  0.0875  0.1876
26948W        W33398   2.986   1.793  10.018  0.3804 -0.1580  0.0002
26949W        W33399  16.823   5.765   1.468  0.2940  0.1418 -0.1775
26950W        W33400   6.436   6.485   3.884  0.0505  0.0903 -0.1723
26951W        W33401   7.911   6.402  10.452  0.3649  0.0205 -0.0141
26952W        W33402   5.705   0.024  12.765 -0.0902  0.0122  0.1169
26953W        W33403  21.473   6.255  31.046 -0.2475 -0.1453  0.0486
26954W        W33404   0.643   5.352   6.179  0.1269  0.2462  0.0630
26955W        W33405   3.735   1.457  10.185  0.3165 -0.1054  0.3327
26956W        W33406   0.296   6.625  10.540  0.1649  0.0936  0.0126
26957W        W33407  19.616   3.188  20.591  0.0042 -0.1756  0.0791
26958W        W33408   1.620   4.963   5.788 -0.3592 -0.0966 -0.3175
26959W        W33409  23.442   0.988  22.770  0.1698  0.3961  0.0741
26960W        W33410   8.300   4.663  27.833 -0.0653 -0.1487 -0.1936
26961W        W33411   8.090   3.084  23.786  0.5519  0.1164 -0.0854
26962W        W33412  23.539   4.897   4.332 -0.2157 -0.1523  0.1670
26963W        W33413   6.665   2.382   1.352  0.2562 -0.1663 -0.1366
26964W        W33414  18.685   4.414  27.330 -0.0627  0.0494  0.1927
26965W        W33415   8.674   6.252  14.006 -0.3430  0.0397 -0.0528
26966W        W33416   8.321   2.718  27.369 -0.3441  0.0003  0.1584
26967W        W33417  20.053   0.076  32.812 -0.2372  0.0617  0.0004
26968W        W33418  14.616   3.626  26.349  0.0649  0.4441 -0.1253
26969W        W33419   7.157   2.262  15.537  0.0419 -0.2103  0.0938
26970W        W33420  13.416   2.300  16.108  0.1008  0.3007  0.1962
26971W        W33421  17.735   3.030  22.805  0.0359  0.1095 -0.0154
26972W        W33422   3.898   5.774  28.373  0.0930  0.0175  0.2803
26973W        W33423  22.323   4.221  25.973 -0.1128 -0.2289  0.0184
26974W        W33424   3.126   0.639   4.352 -0.3092  0.0287  0.0134
26975W        W33425   7.164   7.248  15.028  0.2138 -0.0266  0.0720
26976W        W33426  23.956   0.214  12.951  0.3012 -0.0725  0.0970
26977W        W33427  23.760   5.717  21.280 -0.2325 -0.1914 -0.0474
26978W        W33428   5.669   5.676  10.350 -0.0827 -0.2788 -0.1175
26979W        W33429   6.997   7.793   4.346  0.0791 -0.2452  0.0849
26980W        W33430  16.219   0.772  19.562  0.1825 -0.2207 -0.1440
26981W        W33431   7.412   0.813   3.424 -0.3332 -0.0744 -0.3192
26982W        W33432   0.419   0.195  27.528  0.1154  0.2450 -0.2038
26983W        W33433   4.413   6.148   9.872 -0.0089  0.1127 -0.0068
26984W        W33434  14.302   0.001  10.685  0.3505  0.0910  0.1100
26985W        W33435  16.681   2.258   5.812  0.0089 -0.2687  0.0910
26986W        W33436   2.360   1.278  25.830 -0.0572  0.0957 -0.0267
26987W        W33437   2.555   6.208   9.628  0.0219 -0.0733  0.1152
26988W        W33438  17.695   2.703   4.062 -0.1643  0.0479  0.0800
26989W        W33439  14.844   1.958  18.502  0.3582 -0.0769 -0.2501
26990W        W33440   7.831   5.432  10.945 -0.1217  0.0845  0.1535
26991W        W33441  16.523   1.956   7.561 -0.2445  0.3327  0.0299
26992W        W33442  14.682   7.315  30.128  0.1821 -0.1358  0.0197
26993W        W33443  19.527   1.844  25.419 -0.0233 -0.0826  0.2003
26994W        W33444   1.999   5.766  16.715  0.1096  0.3675  0.1045
26995W        W33445  12.787   2.593   5.379 -0.1004  0.2236  0.3018
26996W        W33446   9.510   3.639  10.765 -0.0749 -0.0354 -0.2280
26997W        W33447  21.531   6.047  30.599 -0.0723  0.3504  0.3410
26998W        W33448  24.749   0.586   1.196  0.1182  0.3661 -0.0596
26999W        W33449   2.274   4.807   1.772  0.0331 -0.2175  0.1070
27000W        W33450  11.705   0.033  27.996 -0.1831  0.0343  0.0246
27001W        W33451  23.010   5.252  27.420 -0.1554 -0.3578 -0.0564
27002W        W33452   7.831   0.704  12.272 -0.3144  0.0841  0.1923
27003W        W33453  20.727   0.800  24.378  0.1939 -0.1114 -0.0079
27004W        W33454   5.591   5.721  16.396 -0.2882 -0.0483 -0.0543
27005W        W33455   1.522   7.693  27.944 -0.0519 -0.2417  0.4080
27006W        W33456   3.655   1.266   1.293  0.1301 -0.2020  0.0488
27007W        W33457  22.591   0.362  29.201 -0.1651 -0.1189 -0.0745
27008W        W33458   1.871   1.887   7.168 -0.2369 -0.3507  0.1851
27009W        W33459   8.086   2.336  28.642  0.1640  0.2883  0.2661
27010W        W33460  11.142   0.706  29.997  0.2272  0.1389  0.0487
27011W        W33461   5.783   0.025   9.170  0.1379 -0.0166 -0.3578
27012W        W33462   6.479   0.812  29.439  0.2131  0.0023  0.2523
27013W        W33463   1.969   2.860  17.118 -0.0765 -0.1208  0.0242
27014W        W33464  19.949   1.209   0.922 -0.1353 -0.0693 -0.0345
27015W        W33465   5.471   1.992   6.786 -0.0225  0.0167 -0.2983
27016W        W33466  10.572   3.786  26.888  0.1109 -0.2487  0.0019
27017W        W33467  18.526   6.306   2.311 -0.1537 -0.2765  0.1587
27018W        W33468   5.974   5.503   7.831 -0.2398  0.3008  0.2130
27019W        W33469  24.821   5.129   6.949  0.0183 -0.0080  0.0849
27020W        W33470   0.568   3.208  11.499  0.1277 -0.0057  0.1531
27021W        W33471  15.628   6.082   8.470 -0.0455 -0.2688 -0.0557
27022W        W33472   9.988   5.005  28.451 -0.0756 -0.0734 -0.0229
27023W        W33473  12.583   4.730   1.237 -0.1447  0.1043  0.0203
27024W        W33474  10.608   6.105   6.129  0.3018 -0.1607  0.0054
27025W        W33475  15.558   5.778  14.595 -0.0758 -0.1056  0.1712
27026W        W33476  22.302   6.703   1.644 -0.1846  0.0597 -0.2918
27027W        W33477  23.371   4.495  10.611 -0.2923  0.2334 -0.0509
27028W        W33478  16.832   1.498  28.205 -0.0644  0.1210  0.0069
27029W        W33479   0.866   5.126   7.565 -0.0931  0.3995  0.0828
27030W        W33480  19.155   5.368  27.842  0.4341  0.0710 -0.0474
27031W        W33481  16.144   6.910  25.956 -0.1364 -0.1469 -0.0850
27032W        W33482  17.734   3.985  27.697 -0.3499  0.2198  0.1752
27033W        W33483   5.448   3.713  27.028  0.0255  0.0808 -0.0638
27034W        W33484   5.414   6.449   7.395  0.1580  0.0595  0.2792
27035W        W33485   8.929   1.520   8.622 -0.0197  0.0712  0.2803
27036W        W33486  12.291   2.261   7.387 -0.2236  0.0320  0.1414
27037W        W33487   7.927   3.456  29.747  0.0763 -0.2619  0.1208
27038W        W33488   3.970   1.608  16.113 -0.1666 -0.1193  0.2013
27039W        W33489   2.540   3.950  28.393 -0.1505 -0.2852  0.1436
27040W        W33490  11.631   6.015  28.945 -0.2238 -0.1303  0.2366
27041W        W33491   5.434   1.619  15.187 -0.0910  0.3186 -0.0984
27042W        W33492  20.451   5.613   3.991  0.0790  0.1277  0.0903
27043W        W33493  13.116   0.326  21.332  0.0780 -0.1577  0.0508
27044W        W33494  12.354   2.828  17.613  0.0955  0.1678  0.2203
27045W        W33495  17.184   6.050  24.034 -0.1473 -0.0289  0.2749
27046W        W33496  14.885   0.632   6.676  0.2119  0.0832  0.3221
27047W        W33497   3.504   5.799  31.525 -0.0583  0.0265  0.2153
27048W        W33498   0.564   3.714   1.850 -0.0637 -0.1193 -0.0382
27049W        W33499  23.650   1.035   7.283  0.0262  0.0349  0.0705
27050W        W33500   0.694   4.639  32.656  0.2238  0.0795  0.0462
27051W        W33501  10.806   5.933  21.755  0.0230 -0.1162  0.2226
27052W        W33502  21.096   6.801  17.156 -0.3741 -0.2867 -0.1679
27053W        W33503   7.305   3.867  23.061  0.0467 -0.1870  0.0013
27054W        W33504  14.405   3.519  31.201  0.0491  0.4197  0.0219
27055W        W33505   6.038   6.841  27.345  0.2801  0.0373 -0.1243
27056W        W33506  22.364   2.393  10.384 -0.1160  0.1066 -0.0135
27057W        W33507   5.314   6.391  17.924 -0.0299 -0.1052  0.1894
27058W        W33508   1.039   6.329   8.177  0.4966  0.1140  0.1108
27059W        W33509   0.519   5.242  21.998 -0.2929  0.0923 -0.0921
27060W        W33510  11.180   7.597  32.565 -0.0345 -0.1077  0.1980
27061W        W33511   1.082   3.982   3.721 -0.0988 -0.0220  0.1739
27062W        W33512  19.561   0.807  17.047  0.0153  0.2362 -0.3598
27063W        W33513  12.999   0.451  26.461  0.0946 -0.0647 -0.1919
27064W        W33514  18.414   5.400  23.689  0.1419  0.4033  0.1303
27065W        W33515  14.085   4.205   6.441 -0.0158 -0.3593  0.0642
27066W        W33516  10.438   1.202  27.114 -0.0719 -0.4417  0.0778
27067W        W33517   4.264   0.829  29.792 -0.0194  0.2899 -0.1464
27068W        W33518  23.304   6.077  32.939  0.0975  0.1608 -0.0660
27069W        W33519  22.084   6.483  25.466  0.1327 -0.1358 -0.0701
27070W        W33520   2.335   0.548  15.423 -0.0266 -0.0325  0.1273
27071W        W33521  11.690   4.943  17.361 -0.0911  0.0399 -0.0563
27072W        W33522  16.864   3.559   8.398 -0.1656  0.2538  0.1267
27073W        W33523   4.692   4.811   2.024  0.4076 -0.3936 -0.0025
27074W        W33524  21.977   7.686   3.937 -0.3960 -0.1480  0.0072
27075W        W33525  14.429   6.812  31.849  0.0329 -0.2139 -0.4275
27076W        W33526  21.894   4.984   8.274  0.2075 -0.0762 -0.2454
27077W        W33527   6.858   3.012  14.588  0.3656 -0.0030 -0.0815
27078W        W33528   6.071   0.412  12.824  0.1376  0.1290  0.0135
27079W        W33529   1.764   6.433  24.120  0.2225  0.2059 -0.0240
27080W        W33530   1.704   1.458   6.073  0.0307 -0.2679 -0.3390
27081W        W33531  19.335   6.278   7.005  0.2382  0.1626  0.3818
27082W        W33532   8.553   3.000  14.243 -0.2583 -0.0499 -0.1666
27083W        W33533   3.580   5.481  26.487 -0.0558  0.1689 -0.0059
27084W        W33534  22.706   0.315   8.001  0.1715  0.0647  0.1135
27085W        W33535   9.055   4.956  27.556  0.1542 -0.2318  0.3627
27086W        W33536   7.659   0.277   8.350  0.0558  0.0046 -0.2610
27087W        W33537   0.056   7.114   8.985 -0.1377 -0.3842 -0.1337
27088W        W33538  24.368   5.548  32.497 -0.1523 -0.1618 -0.1508
27089W        W33539   0.540   7.176  13.318  0.2446 -0.1511 -0.1162
27090W        W33540  24.426   7.307  26.374 -0.0085  0.1869 -0.0225
27091W        W33541  24.501   3.848  20.545 -0.0136  0.0542 -0.0235
27092W        W33542   3.494   3.933   0.709 -0.1599  0.2681  0.0146
27093W        W33543   6.010   2.823  15.735 -0.0461  0.1651  0.0346
27094W        W33544  23.754   5.208  10.124  0.0352 -0.1464 -0.1520
27095W        W33545   6.887   2.150  32.473  0.1594  0.1505 -0.2024
27096W        W33546  18.970   6.404   8.044  0.0438  0.0580 -0.2037
27097W        W33547   3.812   4.943  10.748  0.1159  0.0083 -0.0441
27098W        W33548  11.721   0.281  21.830 -0.0232  0.2107 -0.4208
27099W        W33549   3.125   5.112  30.287  0.0500  0.0788 -0.0094
27100W        W33550  11.506   1.573  30.733 -0.2686 -0.0103  0.1943
27101W        W33551  13.061   3.309  17.396 -0.0055 -0.4083 -0.0276
27102W        W33552  19.353   4.113   8.905 -0.2834 -0.0863  0.1252
27103W        W33553   0.672   1.440  11.736  0.0513  0.2171  0.0831
27104W        W33554  13.604   7.607  18.789 -0.3014 -0.0827 -0.2810
27105W        W33555   5.632   5.649  30.134  0.1841  0.1370  0.1917
27106W        W33556  10.601   6.591  11.817 -0.1913  0.0587 -0.1339
27107W        W33557  10.367   0.982  29.855 -0.0577  0.0279 -0.1905
27108W        W33558   8.001   6.625  23.969  0.1403 -0.0097 -0.0537
27109W        W33559  11.670   3.194  31.628  0.0016  0.0452  0.0429
27110W        W33560   6.284   1.669   4.913  0.0974  0.0116 -0.0730
27111W        W33561   6.836   3.862  22.967 -0.0462 -0.0134 -0.1638
27112W        W33562  17.192   5.065   2.452 -0.1632 -0.1479 -0.1339
27113W        W33563  20.268   5.510  16.236 -0.0356 -0.2390 -0.3414
27114W        W33564   8.526   4.438  13.376  0.0054  0.3332 -0.0912
27115W        W33565  17.747   1.154  32.318 -0.0838 -0.2144  0.4277
27116W        W33566   9.204   6.726   3.206 -0.0733 -0.1877 -0.4520
27117W        W33567  15.472   1.020   6.703  0.3449 -0.0703 -0.0084
27118W        W33568  21.490   6.837  23.910 -0.1435  0.1534  0.0999
27119W        W33569  11.010   7.448  19.783 -0.1113  0.0937  0.1167
27120W        W33570  24.581   5.448  29.932  0.1371  0.0906 -0.1303
27121W        W33571   7.105   4.947   8.116  0.1005 -0.3107  0.1728
27122W        W33572  19.131   2.894   0.511 -0.2344  0.2724 -0.2203
27123W        W33573  14.576   0.923  28.627 -0.0783  0.0048  0.2670
27124W        W33574  20.879   1.010   1.179 -0.5411 -0.1152 -0.0598
27125W        W33575  10.917   4.791  11.493  0.2058  0.3290  0.2157
27126W        W33576   8.068   7.447  13.001  0.0997 -0.0624  0.3192
27127W        W33577   8.398   0.726  23.247 -0.0846  0.0400 -0.1234
27128W        W33578   2.245   6.090  23.626 -0.1417  0.0798  0.2423
27129W        W33579  19.924   1.594  26.447 -0.3705 -0.1320 -0.1898
27130W        W33580   6.024   2.281  31.412  0.0809  0.1555  0.0589
27131W        W33581  16.547   6.628   0.939 -0.0249  0.1331  0.1974
27132W        W33582  22.481   1.606   9.164 -0.0494 -0.0898 -0.1241
27133W        W33583  18.476   0.515   7.670  0.0808 -0.0139  0.1030
27134W        W33584  13.924   5.992  27.488  0.0551  0.1543  0.0984
27135W        W33585   5.842   4.245  26.421  0.2649  0.0264  0.2028
27136W        W33586   1.012   2.459  25.820  0.3437  0.0626  0.1079
27137W        W33587  24.466   5.750   1.786 -0.1910  0.0559  0.1011
27138W        W33588  15.985   3.299  31.393 -0.1362  0.0429 -0.1086
27139W        W33589   1.780   1.230  10.471  0.0784 -0.0208  0.3927
27140W        W33590  16.483   6.420  16.019  0.2341  0.4139  0.2060
27141W        W33591  14.957   6.854  15.559 -0.3334  0.1295 -0.0329
27142W        W33592   8.202   2.028  11.253 -0.2414 -0.0021 -0.0651
27143W        W33593  13.707   6.657  30.948  0.0637 -0.1254  0.3688
27144W        W33594  11.312   1.055  19.102 -0.3231  0.0753  0.0236
27145W        W33595   6.489   6.990  24.252 -0.2397 -0.0221 -0.1785
27146W        W33596   0.434   4.079  22.498 -0.1408 -0.1203 -0.4204
27147W        W33597  10.675   7.065  10.775 -0.4014 -0.1113  0.0226
27148W        W33598   5.167   5.649   5.412  0.1837  0.2201  0.0300
27149W        W33599   6.576   5.769  25.872  0.1517 -0.1820 -0.2831
27150W        W33600   5.097   6.016  12.561  0.0017 -0.1080  0.3134
27151W        W33601   4.561   0.698  17.783 -0.0786  0.1358  0.0907
27152W        W33602   1.710   7.482   0.975  0.0371  0.2490  0.2463
27153W        W33603  16.595   3.961  17.870  0.0331 -0.1015 -0.0728
27154W        W33604  11.894   1.358  29.158  0.0264  0.0619 -0.0329
27155W        W33605   2.242   2.411  11.207  0.1307  0.1200  0.2382
27156W        W33606   5.125   1.296   5.885  0.3139  0.0059  0.0046
27157W        W33607  12.361   1.248  19.651  0.0226  0.0278 -0.0260
27158W        W33608  23.318   1.277  27.204 -0.1271 -0.2117 -0.1935
27159W        W33609   3.291   6.129   5.623  0.0233 -0.1239  0.1258
27160W        W33610  20.266   5.416   7.778 -0.3099 -0.0400  0.0466
27161W        W33611   8.103   7.215  11.564  0.3157  0.3733 -0.0228
27162W        W33612  20.681   7.385   7.387  0.3338 -0.1306 -0.0623
27163W        W33613   9.690   0.207   9.815  0.1463 -0.2474 -0.0433
27164W        W33614  18.057   7.618  32.062 -0.0395 -0.2979  0.0648
27165W        W33615  20.261   1.471   7.116  0.2580 -0.2135 -0.4091
27166W        W33616   2.535   0.603  10.022 -0.1972 -0.0416  0.3707
27167W        W33617   9.659   0.704  29.326  0.0665 -0.0852  0.1403
27168W        W33618  19.488   6.086  17.262  0.1815 -0.0072 -0.0012
27169W        W33619  13.788   5.952   8.085  0.0610  0.4417 -0.1005
27170W        W33620   7.546   1.172  10.126 -0.0701  0.2074 -0.4197
27171W        W33621  22.677   3.795   9.529 -0.2027 -0.0799  0.0541
27172W        W33622  14.965   2.735   3.449 -0.1467 -0.2988  0.1717
27173W        W33623  11.695   3.949   3.345  0.0763 -0.1381 -0.3262
27174W        W33624  20.987   6.929  26.781  0.0932 -0.0889  0.1053
27175W        W33625  14.231   6.653  29.009  0.1713  0.0079  0.1993
27176W        W33626  15.711   3.948  19.683  0.0723  0.2354  0.3134
27177W        W33627   0.847   5.210   3.467  0.0459 -0.2451  0.0422
27178W        W33628   0.074   5.686  10.295  0.0400 -0.2429 -0.2302
27179W        W33629   1.894   1.396   7.079 -0.0809 -0.0147  0.1222
27180W        W33630  16.701   1.522  30.286  0.2882 -0.1432  0.6606
27181W        W33631  22.521   2.514   9.065  0.1861  0.1097 -0.1783
27182W        W33632  21.720   7.741  26.952 -0.1851 -0.0819 -0.0364
27183W        W33633  24.469   4.723  11.643 -0.0871  0.0317 -0.1008
27184W        W33634  15.871   4.725   8.028 -0.0613  0.1177  0.0303
27185W        W33635  12.389   4.452   9.408  0.0807 -0.0442  0.3007
27186W        W33636  18.694   7.515   2.497 -0.1931  0.1669  0.1232
27187W        W33637  18.788   6.231  23.199  0.1160 -0.0285  0.2017
27188W        W33638   7.351   7.013   2.624  0.1562  0.0637 -0.2098
27189W        W33639  19.440   5.933  21.497  0.0782 -0.0152 -0.1439
27190W        W33640  11.681   3.222  20.433  0.2790  0.2598 -0.1439
27191W        W33641  13.953   5.979  17.778 -0.1817  0.1909  0.1150
27192W        W33642   1.069   3.123  23.134 -0.1535  0.0598  0.2997
27193W        W33643  18.806   0.783   9.761  0.1007 -0.3485  0.0207
27194W        W33644  15.245   5.833  21.971  0.2483  0.0597  0.3784
27195W        W33645  24.826   3.517  24.575  0.0451  0.3457 -0.1073
27196W        W33646  16.517   2.583   5.156  0.1905 -0.0813  0.1170
27197W        W33647  16.540   1.335  25.944  0.0060 -0.2647 -0.0806
27198W        W33648   6.029   7.739  26.976 -0.0012  0.1486 -0.2587
27199W        W33649  18.518   0.399  22.679  0.5560  0.1185 -0.1653
27200W        W33650  22.663   4.274  24.164 -0.2385 -0.1378 -0.1305
27201W        W33651  14.690   3.341   3.505  0.1577 -0.1344 -0.1422
27202W        W33652   3.703   1.229  30.534 -0.0904 -0.1407 -0.1316
27203W        W33653   5.542   5.172   8.724  0.1446 -0.2695 -0.2149
27204W        W33654  16.045   4.144  14.891 -0.3957 -0.1555 -0.1385
27205W        W33655   0.263   0.092   4.025 -0.0238  0.0786  0.1810
27206W        W33656   0.745   7.112  31.478 -0.1648 -0.0752 -0.0239
27207W        W33657   6.481   7.157  26.349  0.0284 -0.0764  0.3047
27208W        W33658  12.362   3.844   0.432 -0.1581 -0.0349 -0.1172
27209W        W33659   7.944   3.643  26.098 -0.4534 -0.0437  0.1114
27210W        W33660  20.439   4.617  21.615  0.0657  0.4367 -0.1781
27211W        W33661  14.851   2.435  28.895  0.1100 -0.2132  0.3721
27212W        W33662  11.265   7.220  26.171  0.3031  0.0241  0.1953
27213W        W33663   2.801   3.346  10.802  0.3107  0.0824 -0.3766
27214W        W33664   8.013   0.824   3.431  0.1353 -0.1240 -0.3576
27215W        W33665  22.931   4.883  28.243 -0.1214  0.0692 -0.0383
27216W        W33666  10.478   6.968   8.167 -0.2039 -0.0258 -0.2329
27217W        W33667  10.584   0.637  28.357 -0.1248 -0.0623  0.1633
27218W        W33668  20.042   7.108  22.322  0.1356 -0.1947 -0.1898
27219W        W33669  10.363   5.393   1.758  0.1091  0.1287  0.0701
27220W        W33670  15.377   0.641  17.846 -0.1882 -0.1547 -0.0427
27221W        W33671   3.322   7.268   2.146 -0.1138  0.1859 -0.0261
27222W        W33672   1.176   1.760  12.532 -0.1917  0.1025  0.0857
27223W        W33673  19.352   5.516  10.821  0.0668  0.0460  0.2912
27224W        W33674   3.152   7.092  13.913  0.2117 -0.2869  0.0861
27225W        W33675   7.022   5.399   4.324 -0.1631 -0.2938 -0.1012
27226W        W33676  19.939   0.242  30.746  0.0123  0.0248  0.1269
27227W        W33677  19.355   1.019   6.553  0.1014  0.1024 -0.3633
27228W        W33678  19.282   3.511  19.700  0.3801 -0.0493  0.1617
27229W        W33679  16.404   3.660  27.280 -0.0831  0.5266  0.1459
27230W        W33680  10.458   4.155  22.418  0.0879 -0.0475  0.2567
27231W        W33681  14.498   5.100   7.321  0.2755  0.6094  0.3963
27232W        W33682   1.748   1.654   9.373 -0.0282  0.0392 -0.0605
27233W        W33683   4.388   7.504  29.153  0.1995 -0.1735  0.1033
27234W        W33684   4.817   1.321  32.015 -0.0631  0.2006  0.1365
27235W        W33685  12.191   0.357   9.114 -0.1535 -0.0110  0.3271
27236W        W33686   3.867   1.741  11.453  0.0725 -0.0424 -0.0260
27237W        W33687  19.624   4.593  29.403 -0.3313  0.2525 -0.0043
27238W        W33688  12.717   2.693  20.836  0.1930  0.1479 -0.0922
27239W        W33689  19.917   2.252  25.437  0.1924 -0.0072 -0.0118
27240W        W33690   3.156   4.853   3.412  0.3617  0.1844  0.3105
27241W        W33691  14.742   4.111  26.155  0.0695 -0.0962 -0.0821
27242W        W33692   9.419   2.257  21.860 -0.3378  0.5657 -0.0635
27243W        W33693  16.744   0.512  29.236  0.1534 -0.1356 -0.2959
27244W        W33694  21.814   1.124  10.119 -0.0389  0.0112 -0.0243
27245W        W33695  14.811   0.551   9.823  0.1836  0.2733 -0.3247
27246W        W33696  21.033   2.851   2.481 -0.0758  0.0250  0.0264
27247W        W33697  15.499   1.074  26.328  0.0274 -0.0797 -0.0325
27248W        W33698  15.161   1.028   5.757 -0.0344  0.1056 -0.3674
27249W        W33699  19.661   6.578  19.461  0.1176  0.0022  0.0520
27250W        W33700  24.075   4.800  30.007  0.2034 -0.0552  0.1331
27251W        W33701   0.707   2.098   5.863  0.1097  0.1073  0.1070
27252W        W33702   6.417   0.157   4.394  0.0215 -0.1057 -0.0365
27253W        W33703  22.769   4.310  11.323  0.1390 -0.2877  0.3547
27254W        W33704   2.446   6.104   3.670  0.1464 -0.2578 -0.0498
27255W        W33705   6.185   5.835  14.938 -0.0586 -0.2866 -0.0382
27256W        W33706  17.646   6.450  27.031 -0.2050  0.2733 -0.2564
27257W        W33707  12.782   3.953  20.247 -0.1375 -0.1205 -0.1362
27258W        W33708   2.412   0.353  12.306  0.0643  0.2195 -0.2234
27259W        W33709  13.798   5.399  15.754 -0.3988 -0.1175  0.1515
27260W        W33710   9.069   1.953  32.371  0.2679  0.0523  0.3432
27261W        W33711  14.500   6.148   2.815  0.2291  0.0873 -0.1519
27262W        W33712  13.727   3.801  21.741 -0.1402  0.3125 -0.0964
27263W        W33713  12.362   0.550  31.177 -0.0783  0.1459  0.0996
27264W        W33714   2.163   3.181  10.746  0.2166 -0.0314  0.0923
27265W        W33715  19.120   7.376  27.567 -0.1716 -0.0441 -0.0355
27266W        W33716   7.669   2.690   3.479  0.2269  0.0659  0.2349
27267W        W33717  21.649   4.122  28.943 -0.2064  0.2463 -0.2094
27268W        W33718  20.487   1.681  25.771 -0.1349 -0.1744  0.3128
27269W        W33719  19.007   5.477  16.684 -0.0780  0.0244 -0.1502
27270W        W33720   4.638   4.150   3.123  0.0851 -0.2101 -0.2703
27271W        W33721  11.548   0.334   1.579 -0.0914 -0.0482 -0.0527
27272W        W33722   1.505   7.186  30.941  0.2697 -0.1054 -0.1884
27273W        W33723   7.873   4.451  22.875 -0.1170  0.1120 -0.1322
27274W        W33724   9.518   6.144  11.921 -0.0800  0.2304 -0.1752
27275W        W33725  10.381   6.133  12.446  0.0927 -0.1442  0.1109
27276W        W33726  23.017   5.102   6.706 -0.1331 -0.0598  0.1391
27277W        W33727  14.997   6.869  33.009 -0.1742  0.2846  0.1347
27278W        W33728  17.022   5.105  32.135  0.0239  0.1238 -0.1414
27279W        W33729   4.573   6.564   3.633 -0.1021  0.0976  0.0558
27280W        W33730  15.659   4.888  17.200 -0.4257 -0.0925 -0.1723
27281W        W33731  16.359   6.410   2.787  0.0107 -0.2416 -0.2001
27282W        W33732  22.846   0.416  13.779 -0.2145  0.0312  0.0422
27283W        W33733   2.644   2.355  24.643 -0.0749 -0.0208 -0.1856
27284W        W33734  14.574   2.790  18.515  0.1965  0.0374  0.1008
27285W        W33735  23.439   0.523  11.475 -0.3506  0.1738 -0.4994
27286W        W33736   6.052   4.314  17.671  0.0157  0.1737  0.0612
27287W        W33737  11.102   1.969   5.847  0.2885 -0.1639 -0.3214
27288W        W33738  10.419   3.030   5.428 -0.0483  0.0490  0.2669
27289W        W33739  17.266   6.964   6.842 -0.0787 -0.1602  0.1899
27290W        W33740  10.353   7.581  27.972  0.3546 -0.4108 -0.0579
27291W        W33741   3.250   0.060  32.987 -0.2661  0.1167 -0.2616
27292W        W33742  23.400   2.113  22.312 -0.0541  0.3272 -0.1458
27293W        W33743  20.854   2.631  27.461 -0.0356 -0.1499  0.1501
27294W        W33744  23.771   7.332   2.921 -0.1083  0.1298 -0.1757
27295W        W33745   9.232   2.157   3.725 -0.0076  0.2086 -0.0136
27296W        W33746  12.448   2.084  10.823  0.1100  0.2005 -0.1650
27297W        W33747  22.646   3.315   2.997 -0.0557 -0.0843 -0.2918
27298W        W33748  15.476   6.188  30.916  0.0664 -0.0410 -0.1459
27299W        W33749  13.736   2.836   1.904 -0.1459 -0.1874 -0.2326
27300W        W33750  12.353   3.896   5.150  0.0684  0.0608 -0.1241
27301W        W33751  11.471   4.322  26.820 -0.1548 -0.1180 -0.0274
27302W        W33752  19.147   3.203  29.061 -0.0953  0.1394 -0.1763
27303W        W33753   8.389   4.131  27.661  0.0021  0.0300  0.1040
27304W        W33754  20.555   5.927   9.938  0.0025 -0.1737 -0.1146
27305W        W33755  16.299   6.552  24.385 -0.0647  0.1491  0.1817
27306W        W33756  21.595   0.845  21.037  0.0145 -0.0609 -0.0834
27307W        W33757   2.820   5.258   8.489  0.2116 -0.2043  0.3297
27308W        W33758  13.763   5.421  20.215 -0.4309 -0.1100 -0.1375
27309W        W33759  22.149   6.302  19.002 -0.0093 -0.2948 -0.0363
27310W        W33760   8.212   7.525  26.556 -0.0080  0.1686  0.6095
27311W        W33761  19.757   6.777  25.332  0.0923  0.1975  0.1219
27312W        W33762  21.031   7.681   3.764 -0.0701 -0.0413  0.0774
27313W        W33763  14.512   1.231   1.037 -0.0886  0.1846  0.0091
27314W        W33764  13.805   2.339   8.080 -0.0444 -0.2104 -0.0348
27315W        W33765  18.244   2.797   3.888  0.0318 -0.3844  0.0223
27316W        W33766   5.361   5.271  26.340  0.1257 -0.0792  0.0998
27317W        W33767  13.804   0.300   0.451  0.0544 -0.3871  0.1349
27318W        W33768  13.566   2.814  31.971  0.0261 -0.2227  0.0324
27319W        W33769  14.467   6.626   7.931 -0.1298 -0.0306  0.3049
27320W        W33770  16.931   6.163   3.560  0.1187 -0.1297  0.2411
27321W        W33771  16.411   6.896  32.653 -0.0295  0.1104  0.2151
27322W        W33772   9.236   4.477   2.314  0.0100 -0.1771  0.4077
27323W        W33773  10.144   3.295  22.284  0.3565  0.1149 -0.1689
27324W        W33774  22.302   3.412  27.225 -0.3704  0.0861  0.1916
27325W        W33775  16.454   0.035  17.516 -0.0703 -0.0591 -0.0686
27326W        W33776   4.341   7.506   7.367 -0.2997 -0.0400  0.3249
27327W        W33777  15.798   5.862   3.035 -0.0642  0.2931  0.2264
27328W        W33778   7.831   5.739  29.666 -0.0302  0.1725  0.2350
27329W        W33779  20.605   6.363  20.440 -0.2799 -0.0405 -0.0673
27330W        W33780  16.068   4.998   5.447  0.2389  0.1592 -0.2361
27331W        W33781   1.306   2.509   7.826 -0.0037  0.1188  0.0957
27332W        W33782  15.721   3.424   0.271 -0.1141 -0.1940  0.2997
27333W        W33783   7.900   4.317   7.905  0.1075  0.0202 -0.1929
27334W        W33784  13.847   3.146  19.048  0.0468  0.1148 -0.1081
27335W        W33785   7.804   5.965   6.064 -0.1869 -0.1693 -0.0940
27336W        W33786   9.279   6.625   8.713 -0.1225 -0.0977  0.0393
27337W        W33787   7.435   1.573  13.810 -0.0540 -0.1600 -0.0445
27338W        W33788  10.345   1.334  25.621 -0.3016  0.3146 -0.0150
27339W        W33789   2.622   1.595  28.537 -0.0043  0.0358 -0.1034
27340W        W33790  17.614   3.736  22.232  0.1161 -0.2674  0.0149
27341W        W33791   2.190   7.271  29.172  0.2143  0.3061  0.2681
27342W        W33792   8.995   2.993   8.471 -0.1619 -0.1767 -0.0738
27343W        W33793  19.383   0.989   0.059 -0.0333 -0.1264  0.1793
27344W        W33794  18.509   6.730   7.262 -0.2272  0.1176  0.1829
27345W        W33795   0.588   6.529   1.590 -0.0884 -0.0948  0.0567
27346W        W33796   4.501   6.841  24.006 -0.0781 -0.2076  0.0718
27347W        W33797  18.184   3.456   8.660  0.0369 -0.2677  0.0344
27348W        W33798   1.368   2.511  15.035  0.0450 -0.1371 -0.0341
27349W        W33799  15.114   6.583  16.977  0.1493  0.2786  0.0295
27350W        W33800   0.416   0.388  14.957  0.3050  0.3126 -0.0307
27351W        W33801   9.995   1.581   4.596 -0.1590 -0.0324 -0.1577
27352W        W33802  16.759   4.084  24.321  0.0407  0.0585  0.0469
27353W        W33803   3.404   1.605   9.747 -0.0396 -0.0742 -0.2689
27354W        W33804   3.330   6.776   6.526 -0.0510  0.3393 -0.1196
27355W        W33805   8.268   2.213   9.713  0.0235 -0.0999 -0.1086
27356W        W33806  20.559   0.559  27.170  0.0124  0.0458  0.0944
27357W        W33807   7.199   7.503  22.674  0.0652 -0.1418 -0.3379
27358W        W33808  10.403   0.277  31.082 -0.0730 -0.0423  0.0239
27359W        W33809  20.196   0.694   6.638  0.2843  0.0995  0.3602
27360W        W33810  17.396   2.308   7.635  0.0345 -0.1076  0.1470
27361W        W33811  14.915   0.106  17.029 -0.3157 -0.1536  0.0758
27362W        W33812  14.076   5.459   9.644 -0.3967 -0.2825  0.3696
27363W        W33813   4.352   5.185   2.662 -0.2787  0.1409 -0.3252
27364W        W33814  12.900   5.124  17.528  0.0717 -0.2758  0.1449
27365W        W33815  23.738   0.687   6.356 -0.0111 -0.2388 -0.1944
27366W        W33816  15.234   3.933   7.425 -0.1202 -0.1137 -0.1891
27367W        W33817   5.950   5.321  28.388  0.0285 -0.1415  0.1071
27368W        W33818  16.981   6.534  29.731 -0.2958 -0.3433  0.2769
27369W        W33819   4.409   0.934  14.449 -0.1071  0.2619  0.4437
27370W        W33820   1.257   2.580  30.439 -0.0550 -0.0450  0.1188
27371W        W33821  18.876   2.401  24.125  0.2811 -0.1995 -0.1137
27372W        W33822   8.305   5.277  23.122 -0.0948  0.2806  0.0315
27373W        W33823  10.758   2.774   6.355 -0.1552  0.1735 -0.1679
27374W        W33824   2.320   6.703  17.687  0.0342 -0.0218  0.1082
27375W        W33825   9.479   5.450  11.429  0.1140  0.3558  0.1198
27376W        W33826   8.210   7.730  30.669 -0.0400 -0.1825 -0.0721
27377W        W33827  17.479   6.131  25.989  0.0710 -0.0068  0.0328
27378W        W33828  12.727   5.446   6.738 -0.1109 -0.1525  0.1160
27379W        W33829   0.177   3.755  13.168  0.1226 -0.1099  0.2227
27380W        W33830  22.591   4.256   2.883  0.1167 -0.0088 -0.0651
27381W        W33831   1.936   2.239  13.937 -0.0049  0.1759 -0.1303
27382W        W33832  17.893   6.484  25.124 -0.0292 -0.0047  0.0082
27383W        W33833  16.596   5.157  30.055  0.0512  0.0666 -0.0103
27384W        W33834  23.150   1.505   9.887 -0.2757 -0.0601  0.2853
27385W        W33835   6.366   7.597  10.290 -0.0334 -0.0810 -0.5085
27386W        W33836  10.282   6.946   4.597 -0.1347 -0.0099 -0.0252
27387W        W33837  14.381   4.666  20.885 -0.0128 -0.3014  0.3894
27388W        W33838   7.734   6.306   8.025  0.0529  0.1185  0.0790
27389W        W33839   5.684   0.762  27.264  0.1932 -0.0025  0.0448
27390W        W33840   8.634   7.104   6.663 -0.1554  0.2599 -0.2774
27391W        W33841  23.335   0.065  22.321 -0.1697 -0.0574  0.0815
27392W        W33842   7.960   3.769  10.059  0.2557  0.2527  0.3599
27393W        W33843  22.179   2.275  32.343  0.1868  0.1403 -0.1684
27394W        W33844  19.168   1.836  29.461  0.0756 -0.2099 -0.1721
27395W        W33845  13.733   5.914  21.908  0.1122  0.0444  0.2493
27396W        W33846   1.953   5.973  31.533 -0.1946 -0.1830 -0.2553
27397W        W33847  24.189   5.063  26.366  0.2404  0.1838  0.2944
27398W        W33848   4.549   7.066  10.941 -0.2272  0.1785  0.1537
27399W        W33849   0.069   7.744   7.408 -0.0302 -0.0144  0.1023
27400W        W33850   9.184   3.129   9.788  0.2135  0.0573 -0.1245
27401W        W33851   3.578   4.938  14.835  0.2816 -0.1435 -0.0716
27402W        W33852  21.010   2.199  29.062 -0.0884 -0.2048  0.0050
27403W        W33853   8.590   3.890  13.326 -0.1540 -0.0887  0.1290
27404W        W33854  18.188   3.029  23.886 -0.2706  0.1412  0.1465
27405W        W33855   4.627   3.207  13.304 -0.4623  0.0691 -0.0672
27406W        W33856  23.711   3.712  22.198  0.0537  0.0020 -0.2699
27407W        W33857  16.462   1.960   6.207 -0.1163 -0.4441  0.0321
27408W        W33858  12.557   7.337  11.380 -0.0562  0.0871  0.1995
27409W        W33859   9.723   5.119  22.072 -0.3993 -0.0419 -0.1345
27410W        W33860  21.583   3.388   0.409  0.1507 -0.0097  0.0031
27411W        W33861   1.131   3.636  13.479  0.0479  0.2319  0.2367
27412W        W33862  20.706   5.301   5.578  0.0451  0.1294 -0.1214
27413W        W33863   6.198   0.942   5.143  0.2113 -0.1090  0.0116
27414W        W33864   3.349   3.408  13.440 -0.0349  0.1650 -0.0500
27415W        W33865  21.843   6.096  30.175  0.4120 -0.3218  0.0011
27416W        W33866  10.338   1.233  20.281  0.1652 -0.1567  0.2184
27417W        W33867   7.692   0.621  10.995 -0.1609  0.1293 -0.2745
27418W        W33868  24.533   3.355  12.213  0.0414  0.0065 -0.0641
27419W        W33869   2.753   3.393  13.445  0.1741  0.2432  0.2390
27420W        W33870   4.546   3.812  11.610  0.2834 -0.0203  0.1177
27421W        W33871  24.056   4.296   3.216  0.2300 -0.0724  0.1762
27422W        W33872  20.878   7.504   5.065  0.1818 -0.1427 -0.1350
27423W        W33873   0.150   0.308  26.398 -0.2081  0.2053 -0.5337
27424W        W33874   6.665   0.339  13.912  0.1779  0.0538  0.0694
27425W        W33875  16.843   7.601  24.548  0.1640 -0.0457  0.0454
27426W        W33876  16.214   0.689  16.680 -0.0929 -0.1569  0.1265
27427W        W33877   3.195   2.797  26.846  0.0172 -0.1053 -0.1523
27428W        W33878  19.985   5.293   8.175  0.1235 -0.0329 -0.0072
27429W        W33879   4.601   6.958   8.838 -0.0393 -0.1555  0.0047
27430W        W33880  22.881   5.209  32.331  0.2158  0.1358 -0.1159
27431W        W33881   8.412   0.373   4.372 -0.1123  0.2653 -0.1016
27432W        W33882  10.629   6.339   3.384 -0.1680 -0.0781 -0.1234
27433W        W33883   8.637   4.173   9.217 -0.3055 -0.0523  0.2856
27434W        W33884   9.347   0.649  25.135  0.0500  0.0999 -0.0478
27435W        W33885  21.098   1.501  28.554  0.0070  0.1395 -0.0241
27436W        W33886  11.612   3.305  23.826  0.0527 -0.1956  0.1872
27437W        W33887   9.903   4.859  27.389  0.1095  0.0614 -0.2065
27438W        W33888   9.599   1.058  27.083 -0.2122  0.1453  0.0225
27439W        W33889   6.779   5.176  26.767 -0.4577  0.2118  0.1890
27440W        W33890   5.060   2.285   2.667  0.0260 -0.1253 -0.0415
27441W        W33891   4.202   6.006   8.886 -0.1695  0.2030  0.1098
27442W        W33892  11.346   3.772  19.258 -0.1742 -0.0107  0.0379
27443W        W33893  13.988   6.703   8.768 -0.1021  0.1847 -0.1798
27444W        W33894  19.808   4.635  17.225  0.1518  0.1449  0.0171
27445W        W33895  22.366   6.849   1.085  0.0268  0.2087  0.0253
27446W        W33896  22.188   6.698   3.016 -0.0512  0.2426 -0.3673
27447W        W33897   5.961   7.573  13.077  0.1788  0.0773  0.0430
27448W        W33898   6.295   4.704   7.644 -0.0195  0.3389  0.0626
27449W        W33899   2.860   4.769  26.972  0.3051 -0.0126 -0.0328
27450W        W33900  18.345   5.818  28.421  0.0778 -0.1649 -0.3250
27451W        W33901   7.630   5.291  16.086  0.1326 -0.1536  0.1092
27452W        W33902  10.738   5.715   1.993  0.0922 -0.2514  0.1617
27453W        W33903   5.840   3.064  16.126  0.0768  0.0045  0.0582
27454W        W33904   3.654   1.044  18.137 -0.2010 -0.1519 -0.1698
27455W        W33905  24.689   5.087  14.606 -0.0172 -0.2337  0.1771
27456W        W33906   4.600   0.052  27.592  0.4801  0.2798  0.2741
27457W        W33907   3.200   5.118   4.481  0.0205 -0.2915  0.3090
27458W        W33908   8.486   2.571  23.401  0.1937 -0.3130 -0.1590
27459W        W33909  17.256   7.637   2.900  0.0149  0.1509  0.1886
27460W        W33910  13.892   0.691   6.026 -0.1406  0.0234 -0.1542
27461W        W33911  14.927   3.074   6.752  0.0937 -0.0798  0.2357
27462W        W33912   5.308   2.127   9.934  0.2648  0.0318 -0.2825
27463W        W33913   7.940   5.296   1.961  0.2578 -0.0572  0.2249
27464W        W33914   3.586   1.548  31.595 -0.0039  0.2633  0.3110
27465W        W33915  23.520   2.713  24.217  0.1535 -0.0286  0.1761
27466W        W33916  19.145   3.397  20.612  0.1551  0.0695 -0.2053
27467W        W33917   3.569   1.418  31.080 -0.1320  0.3130  0.1074
27468W        W33918  19.411   6.152  31.759  0.0724  0.0037  0.0469
27469W        W33919  11.612   0.142  32.533 -0.0405 -0.1998 -0.2008
27470W        W33920  24.388   3.354   2.399  0.0779 -0.0743 -0.2325
27471W        W33921  15.108   6.829   7.367 -0.2553 -0.4098  0.0733
27472W        W33922  22.777   7.579  29.832  0.2647  0.1435  0.0772
27473W        W33923  10.523   5.618   9.846  0.2480 -0.0142 -0.0069
27474W        W33924   8.719   0.437   4.820 -0.0454  0.4743  0.0373
27475W        W33925   7.757   1.382  11.572  0.2634  0.0940 -0.1629
27476W        W33926  11.239   1.047  20.594 -0.1823  0.0948 -0.0531
27477W        W33927  19.688   2.931  32.264  0.0125 -0.0416 -0.2272
27478W        W33928  13.934   6.823   9.794  0.0241 -0.0949  0.1955
27479W        W33929   6.336   4.294   6.631  0.2830  0.2260  0.0148
27480W        W33930   0.201   3.875  13.694 -0.0604  0.1200 -0.1635
27481W        W33931  24.849   2.747  22.497  0.0270  0.3036 -0.0047
27482W        W33932  21.641   1.789   1.939  0.1358  0.0649 -0.1100
27483W        W33933  23.556   3.961   4.852  0.0160 -0.1678  0.0025
27484W        W33934   4.182   4.315   5.532  0.0610  0.0710 -0.1288
27485W        W33935  12.724   6.507  24.784  0.1254 -0.0224 -0.1806
27486W        W33936   3.046   0.704  12.722 -0.2293 -0.0215  0.0194
27487W        W33937  21.557   2.618  12.836 -0.1092  0.0863 -0.0889
27488W        W33938  13.251   4.793  16.807  0.2129 -0.1514  0.1899
27489W        W33939  19.888   7.049  18.352  0.1352  0.0160 -0.1298
27490W        W33940   3.050   6.804  12.066  0.2643  0.2240  0.3581
27491W        W33941  18.875   3.799  18.868 -0.0248  0.0915  0.3165
27492W        W33942   0.423   0.884  29.547  0.1136  0.2088  0.0189
27493W        W33943   0.985   0.883   9.424 -0.4154  0.3137 -0.0942
27494W        W33944   3.767   5.129  16.230  0.0755 -0.0807 -0.1161
27495W        W33945  18.107   7.063  24.145  0.1402  0.2257 -0.1227
27496W        W33946   1.553   1.973   8.901 -0.0722  0.0814 -0.0739
27497W        W33947   7.979   6.913  12.156  0.0026  0.0272  0.0494
27498W        W33948   4.497   1.200   7.735  0.1798  0.1238  0.0180
27499W        W33949  16.657   4.094  31.117 -0.0248 -0.0747 -0.0698
27500W        W33950   4.675   7.011   0.028  0.1234 -0.1285 -0.0180
27501W        W33951   5.341   2.320   5.129 -0.2814 -0.0423  0.0903
27502W        W33952   0.674   7.515  22.982 -0.0448  0.1945 -0.0474
27503W        W33953  21.902   4.465  21.469 -0.0047  0.2610  0.1170
27504W        W33954   5.596   3.795   6.446  0.1962  0.0811 -0.2430
27505W        W33955   0.134   7.648  22.893  0.0883 -0.0469 -0.0167
27506W        W33956  21.246   3.494  26.381  0.1943 -0.1299 -0.2845
27507W        W33957   5.905   3.866  10.391 -0.2836 -0.0818  0.0730
27508W        W33958   6.870   5.099  24.917  0.2369 -0.0646 -0.1260
27509W        W33959  20.464   7.542   4.798 -0.0653  0.1429 -0.0235
27510W        W33960  16.777   4.771   2.491  0.1469  0.1669  0.2229
27511W        W33961  16.257   7.471   3.504 -0.1333  0.2014 -0.3849
27512W        W33962   5.437   6.582  30.495  0.3625 -0.1990 -0.1602
27513W        W33963   4.839   4.624  29.671  0.0816 -0.1922  0.1161
27514W        W33964  24.794   6.919  22.167  0.0439 -0.0589  0.3440
27515W        W33965  21.376   7.060   7.698  0.3113 -0.1672 -0.0858
27516W        W33966   4.293   0.170  22.894  0.3780  0.0713  0.1449
27517W        W33967  16.718   5.159  32.522  0.0749  0.2975 -0.0974
27518W        W33968   2.552   6.226   7.704  0.3264 -0.1489  0.0327
27519W        W33969  16.219   1.739  10.266  0.0634 -0.0085 -0.0386
27520W        W33970   8.619   1.116  31.413  0.2196  0.1862  0.1675
27521W        W33971  22.321   1.040  29.712  0.1636 -0.1709  0.2908
27522W        W33972  24.294   4.462  28.357 -0.1799  0.2796 -0.0510
27523W        W33973  15.569   6.859   7.593 -0.3897  0.1498 -0.1066
27524W        W33974  13.847   1.780  19.448  0.1306  0.1757  0.0463
27525W        W33975  22.285   1.816  29.223 -0.0497 -0.1697  0.0967
27526W        W33976  17.184   2.086  17.005  0.1997  0.0471  0.1087
27527W        W33977   0.075   0.205  10.002  0.1300  0.0715 -0.0122
27528W        W33978   3.685   6.873  23.117 -0.0814  0.0110 -0.2555
27529W        W33979  15.778   6.482  27.942 -0.3396 -0.0672  0.1770
27530W        W33980   2.301   3.650  16.700  0.1628  0.1497 -0.0042
27531W        W33981  11.649   7.314  28.103  0.0989 -0.0789  0.1504
27532W        W33982  14.764   1.536   9.734 -0.0248  0.1457 -0.1422
27533W        W33983   4.484   5.536   5.037  0.1381 -0.2215 -0.0432
27534W        W33984   3.554   0.578  14.767 -0.0648 -0.1009  0.1782
27535W        W33985   5.039   4.756  14.147  0.2316 -0.0401  0.0244
27536W        W33986  11.661   0.776  31.991  0.3064 -0.0169  0.1541
27537W        W33987   8.368   4.414  28.727 -0.0785  0.3230 -0.0137
27538W        W33988  16.130   0.080  14.838  0.1005 -0.3936  0.0056
27539W        W33989  21.989   3.250  24.697  0.0237 -0.1323 -0.0240
27540W        W33990   6.190   2.040  15.590  0.1905  0.2408  0.2324
27541W        W33991  16.987   0.949  29.200 -0.1978 -0.0359 -0.0350
27542W        W33992  16.038   1.353  18.217 -0.0820 -0.0253 -0.2229
27543W        W33993  16.210   5.444   9.650 -0.4055  0.1690  0.0321
27544W        W33994   7.349   3.417   0.405 -0.0912 -0.0443  0.0842
27545W        W33995  21.405   4.801  21.567 -0.0271  0.1146 -0.1024
27546W        W33996  22.223   3.580  32.686 -0.0596  0.1041  0.3853
27547W        W33997  18.155   7.032  21.489 -0.2009 -0.1090  0.0539
27548W        W33998   2.118   2.410  26.077  0.0141  0.1947  0.1474
27549W        W33999  11.128   7.252  31.726 -0.1365  0.0515 -0.3626
27550W        W34000   1.568   7.720   8.928 -0.1173  0.1332 -0.0491
27551W        W34001  18.416   2.013   6.445  0.4183  0.0649  0.2257
27552W        W34002  18.509   2.089  21.415  0.1958  0.0998 -0.1215
27553W        W34003  13.002   1.853   4.205  0.0210 -0.0183  0.1522
27554W        W34004  24.642   7.680  30.866  0.1017  0.0470  0.0079
27555W        W34005  22.385   3.765   2.727  0.2258  0.4887  0.2887
27556W        W34006  15.062   1.387   3.202 -0.1613 -0.3243  0.0136
27557W        W34007   4.990   1.536  16.175 -0.0753  0.0262 -0.1355
27558W        W34008   0.806   5.570  15.750  0.0347 -0.3095 -0.0746
27559W        W34009  17.311   0.986   3.804 -0.3582  0.1144  0.1172
27560W        W34010  21.741   5.068  23.808  0.0680  0.3570  0.2739
27561W        W34011   8.400   6.414  21.494  0.1378  0.1367  0.2041
27562W        W34012  18.612   7.180   7.623 -0.1033  0.0639  0.1104
27563W        W34013  20.333   4.075  26.148 -0.1487  0.1246  0.1529
27564W        W34014   8.123   5.063   1.152 -0.2716 -0.1803 -0.1693
27565W        W34015  20.281   2.695   2.937 -0.0789  0.0198 -0.3319
27566W        W34016  21.851   6.358  11.290  0.5878 -0.2309 -0.0545
27567W        W34017   0.375   5.558   9.405 -0.2334 -0.0621 -0.1791
27568W        W34018   6.435   7.436  31.268  0.0081 -0.0505  0.0011
27569W        W34019   4.748   5.484  10.417 -0.0331 -0.1359 -0.1447
27570W        W34020  19.068   7.189  31.259 -0.0160 -0.3369 -0.0710
27571W        W34021  12.648   4.070  21.207  0.3571 -0.0258  0.0430
27572W        W34022  15.402   2.105  29.046  0.3436 -0.1204  0.0897
27573W        W34023  17.256   6.333   4.080  0.3891 -0.0659 -0.0313
27574W        W34024  22.118   2.526  21.521 -0.0336 -0.1665 -0.0156
27575W        W34025   7.293   0.833  13.497  0.2127 -0.1563 -0.1237
27576W        W34026  15.432   0.535   9.095 -0.0086  0.0069  0.3668
27577W        W34027  14.775   3.610  29.260  0.1468 -0.2143  0.4520
27578W        W34028  10.133   1.953  21.427 -0.0289  0.1109  0.1261
27579W        W34029   5.083   5.528  22.053  0.1395 -0.1919  0.2150
27580W        W34030  11.663   5.017   6.861  0.0893 -0.2462 -0.0592
27581W        W34031  18.089   2.071  28.955  0.1529  0.1548 -0.4488
27582W        W34032   3.083   0.007  10.123 -0.1573  0.1930 -0.1046
27583W        W34033   7.706   6.600   2.589  0.1783  0.2481 -0.2102
27584W        W34034  19.694   2.531  31.965 -0.2204 -0.0213  0.3285
27585W        W34035  13.303   1.402  21.794  0.0087  0.0391  0.1649
27586W        W34036   0.573   7.271  21.075 -0.3102  0.1612 -0.3152
27587W        W34037   4.959   6.369  12.869  0.0871 -0.1349  0.3875
27588W        W34038  18.055   7.774  22.764  0.4940 -0.1501 -0.0054
27589W        W34039  17.269   2.551  32.027  0.0263 -0.0851 -0.2423
27590W        W34040   8.055   6.297   6.558 -0.1414  0.1616  0.2377
27591W        W34041  19.348   2.750  18.820  0.0690 -0.3487 -0.0547
27592W        W34042   7.299   2.894   3.158  0.0125  0.0121 -0.1238
27593W        W34043   1.938   1.888   0.443  0.1571  0.0540 -0.1385
27594W        W34044  13.139   5.086  24.294  0.1132 -0.1980  0.0613
27595W        W34045  19.493   2.400   4.643 -0.1265  0.2811 -0.1366
27596W        W34046   3.723   6.624   1.357 -0.1934 -0.1529 -0.1347
27597W        W34047   6.916   6.584  27.380  0.0055  0.0852  0.1377
27598W        W34048   5.411   6.542   0.758  0.0613 -0.1437 -0.1299
27599W        W34049  22.948   3.346  23.056 -0.2431  0.1261  0.1608
27600W        W34050  19.098   4.347  29.123  0.1929 -0.2078 -0.0675
27601W        W34051  11.038   2.794  33.039 -0.4192 -0.1031 -0.1276
27602W        W34052  17.586   3.019  21.151 -0.2110  0.1590 -0.2541
27603W        W34053   6.460   1.072   6.059 -0.1430  0.0076 -0.1870
27604W        W34054  17.178   6.518   3.240  0.1070  0.0947  0.1524
27605W        W34055   9.992   0.619  31.627 -0.1346  0.1037  0.0117
27606W        W34056   4.095   6.226   1.141  0.2320  0.2277 -0.0706
27607W        W34057  23.062   4.286   6.138  0.2540  0.4953  0.2194
27608W        W34058   3.601   5.853   6.328  0.0419  0.2643 -0.2417
27609W        W34059  19.300   4.024   7.068  0.0873 -0.0474  0.4038
27610W        W34060  23.487   6.176   1.880  0.0395  0.2400  0.1354
27611W        W34061  14.755   2.420  16.613  0.1151 -0.1564  0.1739
27612W        W34062  15.666   4.086  20.346  0.2837  0.1694 -0.0423
27613W        W34063  13.311   5.758  22.689  0.2452  0.0860  0.0325
27614W        W34064  22.411   2.843  21.227  0.1512 -0.0636  0.4241
27615W        W34065  17.313   0.460  30.459  0.1173 -0.0479 -0.2969
27616W        W34066   0.115   4.948  30.247 -0.1254  0.0910 -0.1271
27617W        W34067   0.020   6.938  14.630  0.0784 -0.4864  0.1245
27618W        W34068   1.890   5.198  10.331 -0.0388 -0.0608 -0.3083
27619W        W34069  24.574   5.935  24.384 -0.1130  0.0733  0.0245
27620W        W34070   9.386   5.717   5.752  0.1975  0.0305 -0.3822
27621W        W34071   3.600   1.349   5.220  0.3493  0.1784  0.2812
27622W        W34072   8.525   0.613  31.452 -0.2021 -0.0771  0.1140
27623W        W34073   9.355   7.040   4.513 -0.0493  0.1850 -0.3348
27624W        W34074   3.983   4.943  28.723 -0.0743 -0.1094 -0.3254
27625W        W34075   9.653   0.574  26.880  0.1711 -0.1274  0.1507
27626W        W34076   9.670   5.240  10.987 -0.1431 -0.0141 -0.2147
27627W        W34077  15.275   2.797  20.703 -0.1116  0.1560  0.1182
27628W        W34078  18.941   6.061   0.870  0.1185 -0.1791  0.0643
27629W        W34079   4.953   3.777  16.080 -0.0162  0.2115 -0.2269
27630W        W34080   5.353   4.495  13.366  0.0761 -0.0632  0.0972
27631W        W34081   2.944   1.432  29.489  0.0570  0.0738 -0.0760
27632W        W34082   8.342   4.199  10.064 -0.0698  0.2160 -0.0204
27633W        W34083   4.401   2.763  23.451  0.0359  0.0097  0.1297
27634W        W34084   2.664   3.788   0.733  0.2187  0.1421  0.1014
27635W        W34085   9.753   6.114   1.881 -0.1366 -0.0624  0.1964
27636W        W34086   9.316   2.774   2.033 -0.1394  0.0752 -0.1121
27637W        W34087   5.108   6.062   7.259 -0.1557  0.0170 -0.0593
27638W        W34088   1.771   5.667   3.902  0.3402 -0.1306 -0.0000
27639W        W34089  20.963   6.859  26.277 -0.4201  0.0313 -0.1094
27640W        W34090  14.003   2.765  20.409 -0.0641 -0.0179 -0.0571
27641W        W34091   1.587   6.812  24.333  0.1459 -0.0569 -0.3888
27642W        W34092  17.645   0.745  21.971  0.0755 -0.3257 -0.1026
27643W        W34093  12.650   4.532  30.174 -0.0288  0.0894 -0.2731
27644W        W34094  17.601   5.856   2.124  0.2847 -0.1830 -0.3457
27645W        W34095   2.312   3.379  25.971  0.1001  0.0216  0.0549
27646W        W34096  23.065   6.173   6.554  0.0846 -0.3025  0.2915
27647W        W34097   9.768   5.663  25.586  0.1557  0.1063  0.1620
27648W        W34098   8.144   1.619  26.345  0.2479  0.0967 -0.3712
27649W        W34099  17.641   2.560  25.998  0.2311 -0.1116 -0.0920
27650W        W34100   3.258   2.759   1.766 -0.4251  0.0654 -0.2015
27651W        W34101  15.677   1.271  22.672  0.0925 -0.4607  0.4081
27652W        W34102   9.450   2.073  12.128  0.1280 -0.0699 -0.0201
27653W        W34103   3.532   0.910  11.221  0.2750  0.2394 -0.5213
27654W        W34104   0.345   4.114   8.338 -0.2006  0.3583 -0.0679
27655W        W34105  15.999   7.326  16.630  0.3238  0.0541  0.2656
27656W        W34106  20.383   3.599  18.182 -0.1424  0.2861 -0.2935
27657W        W34107  23.359   7.010   0.294  0.1056 -0.0640 -0.0627
27658W        W34108   4.221   3.835  26.311  0.0980  0.3212  0.0175
27659W        W34109   9.016   2.346  12.208  0.1113 -0.2460  0.0914
27660W        W34110   4.054   6.675  29.010 -0.2563  0.0044 -0.0979
27661W        W34111   5.653   2.451  27.180 -0.1860 -0.0612 -0.1803
27662W        W34112  24.474   1.751  29.688  0.0375 -0.3405  0.0346
27663W        W34113  19.156   4.550   7.259 -0.3489  0.0021 -0.1074
27664W        W34114  22.948   1.781  11.868  0.0086 -0.0338  0.1594
27665W        W34115   2.251   0.954  14.397 -0.3228 -0.1229  0.0999
27666W        W34116  12.384   3.423  24.801  0.0952  0.2406  0.0676
27667W        W34117  23.057   0.409  10.207  0.1362  0.2118 -0.1026
27668W        W34118  16.250   2.946   9.609 -0.0172  0.1090 -0.1783
27669W        W34119   4.703   5.803  11.145 -0.0851  0.2102 -0.1515
27670W        W34120  21.801   4.116   4.075  0.0834 -0.1383 -0.1184
27671W        W34121  12.652   7.568  32.174  0.3404 -0.0692  0.0622
27672W        W34122  18.342   7.501  23.972 -0.1726 -0.1753 -0.2538
27673W        W34123   8.868   4.789   4.532 -0.0470 -0.1517 -0.2012
27674W        W34124   0.523   3.140   7.224  0.2064 -0.3239 -0.1670
27675W        W34125  23.161   4.848  24.547 -0.1256  0.1332  0.0788
27676W        W34126   9.073   5.693  31.954 -0.1568  0.2015  0.4952
27677W        W34127  16.873   1.642   7.446 -0.0376  0.1920  0.2428
27678W        W34128   2.351   5.311   5.958  0.2463  0.0291 -0.3140
27679W        W34129  13.136   4.393   8.218  0.2320 -0.0006  0.2631
27680W        W34130  16.220   2.571  26.371  0.2157  0.0613 -0.2052
27681W        W34131   2.686   4.109  26.579 -0.3214  0.0631 -0.0014
27682W        W34132  16.138   6.766  17.285  0.0750  0.3237  0.1738
27683W        W34133  19.074   7.570   5.475  0.0101  0.1467 -0.1844
27684W        W34134  22.577   1.489  28.355  0.0078 -0.1392 -0.1777
27685W        W34135   2.160   5.514  17.500  0.3737  0.3142  0.1309
27686W        W34136   1.251   3.802  21.895 -0.2662 -0.1603 -0.3988
27687W        W34137   5.533   4.959   4.808  0.2204  0.1543 -0.3755
27688W        W34138   0.879   2.601   0.810 -0.0709  0.0837 -0.2702
27689W        W34139  23.832   1.347  13.675  0.1044  0.3509 -0.0858
27690W        W34140   3.795   7.242  16.507  0.1980  0.0242  0.1381
27691W        W34141  21.740   1.141  28.001  0.1586 -0.2881  0.2932
27692W        W34142  23.556   2.914  27.526  0.1964  0.2383  0.2367
27693W        W34143  19.726   1.178   9.764  0.0614  0.1349  0.0031
27694W        W34144  20.654   2.807   6.788 -0.0626 -0.2278  0.0135
27695W        W34145   7.614   4.840   3.966 -0.2087 -0.1692 -0.0867
27696W        W34146   2.672   1.999   6.584 -0.2675 -0.0120  0.0740
27697W        W34147  23.599   4.031  26.246 -0.1578  0.0995 -0.2332
27698W        W34148   4.713   5.583  13.874 -0.0656  0.2522 -0.0356
27699W        W34149   7.432   2.189  31.271  0.1430  0.0282  0.0649
27700W        W34150  20.917   5.571  32.003 -0.0309  0.0736  0.0501
27701W        W34151  14.222   2.013   8.094  0.1458 -0.1751 -0.1702
27702W        W34152   6.556   2.299   7.028 -0.0636  0.0742 -0.1670
27703W        W34153   1.517   3.444  29.322  0.0334 -0.0322  0.1948
27704W        W34154   0.122   7.369   3.262 -0.0192 -0.2970 -0.3604
27705W        W34155  22.646   0.162  31.191 -0.0242 -0.1792  0.2595
27706W        W34156   2.303   7.162   5.659  0.2642 -0.1257  0.0740
27707W        W34157  17.446   7.525   4.729  0.1447  0.0569 -0.1964
27708W        W34158   0.480   0.817  23.894 -0.1158 -0.0034  0.1833
27709W        W34159  13.227   0.890   6.305  0.0041 -0.0026 -0.0124
27710W        W34160  15.538   0.515  20.589  0.1380 -0.1216  0.0424
27711W        W34161  18.559   4.266  22.881  0.0553 -0.0698 -0.3438
27712W        W34162  22.992   1.248  10.373 -0.1986  0.1307  0.2566
27713W        W34163  23.362   4.531  13.900 -0.0198 -0.1653 -0.1827
27714W        W34164  23.064   4.064   5.138 -0.1204 -0.2572 -0.5472
27715W        W34165  19.842   6.267  11.316 -0.1333  0.2705 -0.0467
27716W        W34166  10.778   5.741  32.615 -0.0259  0.1813 -0.0085
27717W        W34167  17.899   2.399  27.758  0.1082  0.2285  0.0625
27718W        W34168  23.894   4.332   4.961  0.1506 -0.0654  0.0235
27719W        W34169  19.449   3.567  17.106 -0.1720  0.1223 -0.2438
27720W        W34170   2.318   0.156  32.166  0.1950  0.0724  0.3015
27721W        W34171  10.638   4.847  25.119 -0.2029 -0.0955  0.1214
27722W        W34172   1.703   4.035  23.166  0.0573  0.2176  0.0216
27723W        W34173  17.243   6.377   6.125  0.0473  0.1816 -0.2116
27724W        W34174   8.210   2.998  30.554  0.1337  0.0524  0.1654
27725W        W34175  17.980   0.069   8.913 -0.0298 -0.0364 -0.3615
27726W        W34176   5.973   1.357   5.368  0.0184 -0.0573 -0.3036
27727W        W34177  16.885   7.198  24.877  0.0538 -0.2882  0.0777
27728W        W34178  10.675   7.019  29.927 -0.3805 -0.1111 -0.0112
27729W        W34179  12.122   0.700   1.079 -0.2324 -0.2670  0.0496
27730W        W34180  21.877   5.420  31.901  0.3668 -0.1236 -0.1217
27731W        W34181  19.279   1.995   1.891  0.1510 -0.2047 -0.0698
27732W        W34182   0.829   5.421   4.113  0.0867 -0.1055  0.0408
27733W        W34183   3.238   4.645  28.398 -0.0099  0.0356 -0.1521
27734W        W34184   2.443   0.921   3.837 -0.1125 -0.4687  0.1800
27735W        W34185  19.124   6.287   9.913  0.0124 -0.1932  0.0211
27736W        W34186  11.338   7.267  31.145 -0.0144 -0.2206  0.0672
27737W        W34187  14.914   0.026  24.844  0.1811 -0.1174  0.4243
27738W        W34188  22.907   0.220  29.563  0.2127 -0.0246  0.1227
27739W        W34189  14.555   0.015  18.002  0.2920  0.0132  0.1594
27740W        W34190  13.184   6.493   9.777  0.0382  0.1274 -0.1120
27741W        W34191  13.463   5.757  15.543 -0.0338  0.1784 -0.1099
27742W        W34192   1.473   6.680   1.228 -0.0534  0.1620  0.3529
27743W        W34193  23.427   0.087  20.239  0.0568  0.1067 -0.0380
27744W        W34194  15.532   0.987  15.034 -0.0309 -0.4320  0.2627
27745W        W34195  24.628   2.840  27.390 -0.1205 -0.0925 -0.1021
27746W        W34196   2.435   4.653  30.984 -0.1414 -0.2119  0.5256
27747W        W34197  18.656   2.021   4.336 -0.0285 -0.1016 -0.2062
27748W        W34198   7.018   6.132   8.317  0.1214 -0.4127  0.0493
27749W        W34199   5.089   0.963  32.709  0.1709  0.3531 -0.1438
27750W        W34200   6.380   1.189  22.306  0.0237  0.1227  0.2632
27751W        W34201  22.475   7.674  10.573 -0.0713 -0.0610  0.0263
27752W        W34202  12.519   3.873   4.611  0.2399 -0.2713 -0.0031
27753W        W34203  12.125   6.193  20.648 -0.0630 -0.1187 -0.4709
27754W        W34204   7.621   6.949   6.558 -0.1277  0.3288  0.0068
27755W        W34205  12.299   7.660   7.155 -0.1482  0.0013 -0.0435
27756W        W34206  17.802   3.590  28.992  0.0942 -0.1860  0.0171
27757W        W34207   1.841   2.152  14.809 -0.2082  0.0401 -0.1604
27758W        W34208  20.678   0.901  19.882  0.0191  0.0701  0.0627
27759W        W34209   1.482   1.560  13.434 -0.0797 -0.0600  0.2442
27760W        W34210  12.940   7.422  24.171  0.0586 -0.0465  0.1392
27761W        W34211  12.857   4.350  10.483  0.1516  0.1610 -0.3652
27762W        W34212   4.188   4.104  30.671  0.1845  0.0558  0.1924
27763W        W34213  20.448   2.164  19.284 -0.2074  0.4257 -0.0398
27764W        W34214  11.267   3.112  10.134 -0.0093 -0.0076  0.0093
27765W        W34215   1.395   7.439  11.454  0.1780 -0.0086  0.0516
27766W        W34216  18.712   4.865   2.179 -0.0285 -0.0544 -0.1608
27767W        W34217  13.358   5.737  21.091 -0.5239 -0.0747 -0.1184
27768W        W34218  19.493   4.602  21.187  0.1193 -0.0909 -0.0483
27769W        W34219   9.728   7.782  22.754 -0.1871  0.1314  0.2763
27770W        W34220   5.667   2.083  11.946  0.0120 -0.3901  0.0665
27771W        W34221  14.529   1.786  22.163  0.0965 -0.0125 -0.0242
27772W        W34222  23.832   7.758   7.061  0.0325  0.0587  0.2928
27773W        W34223  21.388   0.346  19.122 -0.0050  0.1175  0.2290
27774W        W34224  16.370   7.268   8.370 -0.2940 -0.2148  0.0066
27775W        W34225   4.034   1.186   8.380  0.0402  0.1136  0.3375
27776W        W34226  20.670   2.171  31.696  0.0314 -0.2308  0.1381
27777W        W34227  21.849   2.462  19.308 -0.0525 -0.1517  0.1197
27778W        W34228  16.169   5.727   4.748 -0.0910  0.1493  0.0265
27779W        W34229  11.129   7.801   1.985 -0.1970  0.0702  0.1102
27780W        W34230   4.095   4.056   1.516 -0.2832  0.1691  0.0691
27781W        W34231   7.806   1.176  12.200  0.0283 -0.4226 -0.3115
27782W        W34232   9.962   7.242  29.119 -0.0382  0.4161  0.1576
27783W        W34233  18.925   3.550   2.214 -0.0265 -0.0664  0.0053
27784W        W34234  23.749   7.586   8.295 -0.1868  0.0581 -0.3914
27785W        W34235  20.261   3.232   1.184  0.0475 -0.3458  0.2798
27786W        W34236  20.991   4.206   3.623  0.2753  0.0845 -0.0990
27787W        W34237   3.110   2.705  24.156  0.0290 -0.0209 -0.2650
27788W        W34238  10.115   5.786   6.223  0.2838 -0.1617 -0.1217
27789W        W34239  10.249   5.749  21.819 -0.2141  0.0433  0.0173
27790W        W34240  15.259   7.280  32.844  0.0047 -0.1252 -0.2173
27791W        W34241   1.164   6.480   8.678 -0.1629 -0.1994 -0.0498
27792W        W34242  24.634   2.687  20.988 -0.1727  0.0249  0.2312
27793W        W34243  20.045   3.165  20.214 -0.2664  0.0711  0.1452
27794W        W34244  17.668   6.876   3.494  0.0108 -0.0169 -0.1036
27795W        W34245  10.969   6.963   5.298  0.0000  0.3224  0.1061
27796W        W34246  15.768   6.951  16.290 -0.0473  0.1070 -0.1049
27797W        W34247   3.565   0.339  11.630  0.1102 -0.1524 -0.2219
27798W        W34248  22.178   1.234   8.029  0.0364 -0.1671 -0.0060
27799W        W34249  20.756   0.442  11.811 -0.0387 -0.1901 -0.0931
27800W        W34250   7.657   5.296  22.907  0.0678  0.2920 -0.4414
27801W        W34251  16.350   4.629  24.877  0.0858  0.3223  0.1178
27802W        W34252  15.195   6.745  32.177  0.2647  0.1530 -0.2601
27803W        W34253   6.311   5.234  11.661 -0.1064 -0.2045  0.3146
27804W        W34254   0.497   5.710  25.682 -0.1082 -0.0123 -0.0353
27805W        W34255   8.695   3.218   4.337 -0.2525  0.2252 -0.0685
27806W        W34256  19.584   1.557  10.835 -0.2211  0.2166  0.0178
27807W        W34257  14.160   7.606   6.597 -0.0315 -0.0617 -0.0610
27808W        W34258  15.283   0.187  17.563 -0.2284  0.3377  0.2254
27809W        W34259   9.911   5.354  25.195  0.3112 -0.1689 -0.0854
27810W        W34260  10.583   7.146  26.653  0.2780 -0.1378 -0.0839
27811W        W34261   8.766   2.434   7.519 -0.3283  0.1372 -0.0477
27812W        W34262  12.616   6.315   8.639  0.0673 -0.2912  0.1558
27813W        W34263   6.284   5.343  16.720 -0.3017  0.2875 -0.0728
27814W        W34264  24.548   5.716   3.589  0.2016  0.0209 -0.0215
27815W        W34265  18.782   4.618  28.825  0.0877  0.2095  0.0058
27816W        W34266  11.251   2.696  24.398 -0.0370 -0.0825  0.3165
27817W        W34267   7.954   4.904  14.976  0.0910 -0.2464 -0.1473
27818W        W34268  11.968   1.469  26.194  0.2371 -0.0702  0.1942
27819W        W34269  13.189   6.869  30.236 -0.0860 -0.0587 -0.0300
27820W        W34270   3.304   1.152  31.382  0.2778 -0.0991  0.2436
27821W        W34271  17.865   6.615  30.265 -0.2537  0.0246 -0.0992
27822W        W34272  24.260   6.022   1.270 -0.1296 -0.0362  0.0357
27823W        W34273  11.979   5.561  23.222 -0.0539  0.1901 -0.1596
27824W        W34274  20.016   6.757   5.343 -0.1502  0.0372 -0.1266
27825W        W34275  24.128   0.314   3.384 -0.1204 -0.1408 -0.3703
27826W        W34276  23.991   7.482  23.458 -0.0810 -0.0045  0.2402
27827W        W34277  16.819   3.404   1.207  0.3307  0.0678  0.2492
27828W        W34278  16.647   6.755   7.568  0.1467 -0.2299  0.0101
27829W        W34279   7.903   4.553   9.286 -0.2901  0.1566  0.0366
27830W        W34280  14.998   5.135  28.185 -0.1053 -0.1727  0.1923
27831W        W34281  10.535   1.087   3.534 -0.0699  0.2005 -0.1551
27832W        W34282  24.604   7.222   8.450  0.1435 -0.0317  0.1273
27833W        W34283  18.598   3.978  29.473 -0.0129  0.1703  0.0109
27834W        W34284   5.204   7.612  22.988  0.1289 -0.2667  0.0937
27835W        W34285   8.232   1.540  21.452 -0.0739 -0.1044  0.1094
27836W        W34286  21.906   2.937   9.366  0.2155  0.0503  0.0585
27837W        W34287  18.293   0.929  21.754 -0.1740 -0.0593 -0.2685
27838W        W34288   6.171   7.264  16.977  0.2944  0.1202 -0.2792
27839W        W34289   2.129   2.171  23.875 -0.0349 -0.0725 -0.0392
27840W        W34290  14.879   1.090  26.363  0.2206 -0.1296  0.1791
27841W        W34291  12.062   1.971  10.552  0.0146 -0.5769 -0.3031
27842W        W34292  19.080   1.359  29.066  0.3068  0.0138 -0.0880
27843W        W34293  10.436   6.997   6.373 -0.4823 -0.2068  0.1168
27844W        W34294  11.172   1.497  31.671 -0.2545  0.2246  0.1550
27845W        W34295  15.993   2.304   3.802 -0.1676 -0.0207 -0.1231
27846W        W34296  16.553   7.541  23.440 -0.3220  0.6020  0.0778
27847W        W34297   4.407   3.420  26.552 -0.3025 -0.2996  0.1191
27848W        W34298  23.766   7.042   8.269 -0.1561 -0.2685 -0.3092
27849W        W34299  17.380   6.288  21.979 -0.0007  0.1655 -0.0367
27850W        W34300  16.634   1.967  18.153 -0.2007 -0.2053 -0.0944
27851W        W34301   5.267   6.838  12.855 -0.2764 -0.2036  0.3738
27852W        W34302   2.689   3.179  22.641  0.0715  0.0692 -0.1662
27853W        W34303  11.145   5.623  29.220  0.0303  0.0774  0.0686
27854W        W34304   9.152   3.419  30.814  0.0430  0.2075 -0.0867
27855W        W34305  12.011   1.795  28.984 -0.3026 -0.1998 -0.1276
27856W        W34306   4.372   6.768  17.600  0.2479  0.1611 -0.0021
27857W        W34307  20.721   7.791  25.166 -0.1395  0.3827  0.2118
27858W        W34308  18.002   4.693  26.582  0.1298 -0.0687  0.0663
27859W        W34309  13.238   7.089   8.081  0.0363  0.1133 -0.0617
27860W        W34310   8.309   6.622   3.715 -0.1874  0.0051  0.0998
27861W        W34311  13.292   2.839  31.561  0.0413  0.2437 -0.2162
27862W        W34312   8.806   1.691  25.949  0.2947 -0.1559 -0.1254
27863W        W34313   5.805   4.786  15.332  0.1468 -0.1838 -0.2321
27864W        W34314  24.445   3.975  31.067  0.0093  0.0120  0.0992
27865W        W34315  21.504   7.060  27.601 -0.0395 -0.0342  0.1059
27866W        W34316  23.868   3.828  23.564 -0.0585 -0.1330  0.0457
27867W        W34317  18.145   2.322  16.808  0.0032 -0.0217 -0.2451
27868W        W34318  21.201   6.163   4.281 -0.0449  0.0197  0.2445
27869W        W34319   1.342   3.295  13.929 -0.6055  0.0437 -0.3302
27870W        W34320  17.099   4.756  15.653  0.0417  0.1550 -0.0827
27871W        W34321  24.722   3.284  22.422  0.0243  0.0285  0.1285
27872W        W34322   3.451   3.820  28.303  0.0705  0.2835 -0.1468
27873W        W34323   7.901   6.737   3.985 -0.1524 -0.0246 -0.0013
27874W        W34324  20.175   3.987   2.365  0.1391  0.0898  0.0944
27875W        W34325  16.684   3.718  24.809 -0.1834  0.3834  0.2245
27876W        W34326   0.372   5.258  14.399  0.0408  0.0935 -0.0437
27877W        W34327  20.464   3.320  19.931 -0.2359 -0.1527 -0.0796
27878W        W34328  15.456   0.421  16.519 -0.2478  0.1106 -0.1941
27879W        W34329   4.676   3.032  29.670 -0.1238 -0.0930 -0.1377
27880W        W34330   3.462   3.372  32.635 -0.1256  0.1257  0.1377
27881W        W34331  14.702   6.178  18.474 -0.0689 -0.3373  0.1575
27882W        W34332   4.606   2.294  13.785  0.0168 -0.0310 -0.2834
27883W        W34333   4.264   7.768  12.760  0.3682 -0.0370  0.1282
27884W        W34334   9.459   0.867  24.653 -0.0666  0.1044 -0.0273
27885W        W34335  12.165   6.011   5.966  0.1311 -0.0993  0.0345
27886W        W34336  14.028   5.370   4.414 -0.1963 -0.0751  0.1306
27887W        W34337  14.842   0.432  21.185  0.1767  0.0187  0.3038
27888W        W34338   0.574   6.655  25.505 -0.1393 -0.0976 -0.0197
27889W        W34339   8.251   5.623   8.291 -0.0212 -0.1225  0.1236
27890W        W34340   1.756   6.161  27.131 -0.0791 -0.2749 -0.2295
27891W        W34341   5.703   4.084  15.725  0.1581  0.0274  0.3887
27892W        W34342  15.149   1.220  26.733 -0.0324 -0.0110  0.2114
27893W        W34343  13.155   0.827  28.686  0.0691  0.2905  0.2512
27894W        W34344   2.526   5.727  14.718  0.4031 -0.2643  0.2854
27895W        W34345   4.900   0.098  25.870 -0.2687 -0.2299  0.3730
27896W        W34346  15.700   0.594  27.831 -0.2807 -0.0745  0.1138
27897W        W34347   5.033   7.238  31.133  0.1082  0.2168 -0.0601
27898W        W34348   9.267   0.795   6.674 -0.0993 -0.4134 -0.1000
27899W        W34349  17.587   2.502   3.560  0.2912 -0.3938 -0.0103
27900W        W34350  15.370   4.164  23.140  0.0493 -0.0439 -0.1948
27901W        W34351   4.679   1.148   1.307 -0.0915 -0.0206 -0.0068
27902W        W34352  18.891   1.493  28.183 -0.2189  0.3051 -0.0338
27903W        W34353  22.977   3.585  24.424 -0.2659 -0.2881  0.1568
27904W        W34354   9.198   5.336  13.374  0.0046  0.1508 -0.0713
27905W        W34355  14.260   3.580   4.925 -0.0488  0.1383  0.1738
27906W        W34356   8.045   1.553  22.820  0.1367 -0.2162  0.0614
27907W        W34357  13.150   7.734   1.353  0.0189 -0.0780  0.1070
27908W        W34358   9.428   4.733  24.614  0.0436 -0.0550  0.1782
27909W        W34359   8.974   6.895  21.659 -0.0376  0.1885  0.2082
27910W        W34360  16.950   3.364  20.828 -0.2939  0.0434 -0.0362
27911W        W34361   9.967   3.267   3.122 -0.2766 -0.4598 -0.0877
27912W        W34362  17.474   7.415   3.283 -0.0437 -0.0980 -0.1153
27913W        W34363  12.136   6.025  21.865  0.1932  0.1274  0.1528
27914W        W34364  24.231   5.068   3.469  0.0419 -0.2211 -0.0418
27915W        W34365   8.250   1.620   5.638  0.0746  0.2902 -0.2173
27916W        W34366  14.330   0.968   2.337  0.1470  0.4055  0.0788
27917W        W34367   2.180   0.037  22.827  0.3194  0.1234 -0.0838
27918W        W34368  14.030   0.933  29.683 -0.1479  0.0344  0.0288
27919W        W34369  17.345   7.334  24.994 -0.2826 -0.2451 -0.0932
27920W        W34370   8.030   4.336  14.821 -0.1841 -0.1181 -0.0060
27921W        W34371  18.546   4.324  31.510 -0.1068 -0.0301 -0.0562
27922W        W34372  12.009   6.690  28.410 -0.0944 -0.0064  0.1965
27923W        W34373  21.600   7.676   2.374 -0.1928  0.0884  0.1356
27924W        W34374   2.414   6.710  21.874 -0.2452 -0.0196  0.1975
27925W        W34375   1.198   3.060   1.382 -0.1767 -0.0374  0.1111
27926W        W34376  23.871   4.382   5.480  0.0752 -0.1148 -0.0940
27927W        W34377   1.961   2.713  11.005 -0.1665 -0.1491 -0.0434
27928W        W34378  20.866   6.156  12.755  0.0721 -0.2407  0.0558
27929W        W34379  22.648   6.734  29.244 -0.0239  0.3729 -0.1526
27930W        W34380  20.385   7.558  25.786 -0.1759 -0.0575 -0.1005
27931W        W34381  19.281   5.620   8.636 -0.0108 -0.2402  0.1941
27932W        W34382  14.765   2.481  26.280 -0.4315 -0.0318 -0.1017
27933W        W34383  14.486   1.945   9.805  0.0410 -0.1550  0.1413
27934W        W34384   5.920   4.447  25.980  0.0804  0.1177 -0.0063
27935W        W34385   4.147   2.866   0.594  0.1560  0.0672  0.2296
27936W        W34386   7.467   6.084  16.709  0.0256 -0.0275 -0.0161
27937W        W34387  22.697   0.155   7.013 -0.2137  0.1512  0.0481
27938W        W34388  23.453   6.203  20.937 -0.1156  0.0362  0.1039
27939W        W34389   2.094   0.211   7.898 -0.3124 -0.1806  0.0306
27940W        W34390  11.035   7.618  25.883  0.1473 -0.0820  0.2037
27941W        W34391  19.343   0.522  30.608  0.0535 -0.0931  0.1537
27942W        W34392  20.691   1.459   4.516  0.2037  0.0204  0.0672
27943W        W34393   1.369   6.863  32.169 -0.0058  0.1983  0.0585
27944W        W34394   2.205   6.959  30.364 -0.4185  0.1088 -0.2740
27945W        W34395  22.509   3.477  21.268 -0.1039 -0.0845 -0.0143
27946W        W34396   1.652   2.934  27.931  0.0011 -0.1249 -0.3415
27947W        W34397   4.511   3.868   0.211 -0.0256 -0.0137 -0.1044
27948W        W34398  20.508   4.517   8.133  0.1119  0.0760 -0.4123
27949W        W34399   9.290   6.051  31.711  0.1524 -0.0475 -0.0570
27950W        W34400  11.698   5.947  23.081  0.0614 -0.1414  0.1730
27951W        W34401   3.374   3.914  23.534 -0.2054  0.0592 -0.1648
27952W        W34402   4.318   5.103   3.627  0.0150 -0.0705  0.0776
27953W        W34403   6.400   1.279  11.858 -0.0954 -0.0212 -0.1475
27954W        W34404  19.758   2.771  28.853 -0.2746  0.0251  0.0232
27955W        W34405  20.324   7.548  26.861  0.1036  0.0729 -0.2895
27956W        W34406  15.484   5.044  26.832 -0.0313  0.1021 -0.0791
27957W        W34407  24.605   6.895  27.419 -0.2028  0.4582  0.0216
27958W        W34408  23.747   6.296  26.949  0.1890 -0.3176  0.0638
27959W        W34409   5.279   1.143  26.417  0.3640 -0.4284  0.1983
27960W        W34410   5.386   4.021  10.588  0.1430 -0.2257  0.1197
27961W        W34411   3.961   1.284  10.650  0.0479  0.3112  0.3883
27962W        W34412  13.621   5.201   8.361 -0.1272  0.0060  0.0344
27963W        W34413  14.654   0.519  23.104 -0.3085 -0.1111 -0.3705
27964W        W34414   6.723   2.191   2.329  0.1212  0.2272 -0.2494
27965W        W34415  19.079   6.107  20.733  0.2391 -0.0588 -0.1876
27966W        W34416  22.617   7.308  10.932 -0.2411  0.0092  0.2158
27967W        W34417   6.971   3.256  10.811  0.0114  0.1597 -0.2885
27968W        W34418  20.690   6.768   7.180  0.2526  0.0809 -0.1876
27969W        W34419  22.085   6.902  31.231  0.0396 -0.1101 -0.4876
27970W        W34420  24.731   7.536  31.758 -0.0434  0.1374  0.1331
27971W        W34421  11.131   2.433  31.634 -0.0035 -0.3083 -0.0841
27972W        W34422   1.879   7.097  24.650  0.0929 -0.1433 -0.0340
27973W        W34423  14.166   3.605  27.627 -0.1940  0.1158  0.0036
27974W        W34424  23.886   6.665   6.920  0.0952 -0.0678 -0.0823
27975W        W34425   0.931   0.384   7.435 -0.0473 -0.1356 -0.0235
27976W        W34426   2.528   3.515  24.905  0.0500 -0.3692 -0.0232
27977W        W34427  14.227   2.309  29.596 -0.0833  0.2164 -0.1178
27978W        W34428  19.420   0.771  30.158  0.1046 -0.2383 -0.0455
27979W        W34429  17.302   4.196  25.027 -0.0671  0.4047  0.0094
27980W        W34430   4.710   0.753  10.355 -0.0378 -0.1016 -0.3241
27981W        W34431  19.153   0.293  28.322  0.2007 -0.0755 -0.0880
27982W        W34432  17.885   6.490   2.030 -0.0099 -0.1122  0.2222
27983W        W34433  16.716   7.225  18.920  0.1323 -0.1862 -0.0817
27984W        W34434  11.437   7.536  19.457  0.2848 -0.2453 -0.0172
27985W        W34435   6.005   1.247  10.662 -0.1262 -0.2473  0.2230
27986W        W34436  24.928   7.048   7.471 -0.2155 -0.0807 -0.0471
27987W        W34437  14.452   2.969   8.867 -0.0607 -0.1946  0.0546
27988W        W34438  18.693   1.556  32.542  0.3171  0.1252  0.3819
27989W        W34439   9.845   6.509  29.504  0.2937  0.2869  0.0205
27990W        W34440   7.185   5.581   4.882 -0.0777  0.3803  0.1653
27991W        W34441   8.524   4.871   6.175 -0.1987 -0.0875  0.1316
27992W        W34442   4.983   2.202   0.437 -0.3656 -0.0851  0.3235
27993W        W34443  15.500   2.705  17.948 -0.1740 -0.2488 -0.1542
27994W        W34444  14.297   1.203   7.698 -0.0403 -0.1581  0.0395
27995W        W34445  24.153   0.487  22.210 -0.2435  0.3258  0.3283
27996W        W34446   3.800   6.651  24.477  0.0159  0.0275 -0.0634
27997W        W34447  23.351   5.448   8.748 -0.2232 -0.0077 -0.0511
27998W        W34448  20.845   2.554  20.904  0.2451 -0.0230 -0.0772
27999W        W34449  13.272   3.601  21.861  0.2138 -0.0126 -0.0336
28000W        W34450  15.295   5.421   5.846 -0.1014 -0.0128 -0.2982
28001W        W34451  10.611   4.407   9.037 -0.2394 -0.0230  0.1133
28002W        W34452  16.733   3.970   1.070  0.1263 -0.0033  0.0653
28003W        W34453  23.329   1.801   1.915  0.2000 -0.3785  0.0017
28004W        W34454  16.581   6.260   9.478 -0.1798 -0.3118  0.1168
28005W        W34455  17.151   0.591   6.278  0.1498  0.0217 -0.0322
28006W        W34456   7.463   7.150   3.607  0.0110 -0.1563 -0.0768
28007W        W34457  14.087   4.224  16.552  0.1779  0.0242  0.0878
28008W        W34458   2.917   4.547   6.376  0.0735  0.1661  0.0950
28009W        W34459  13.044   5.990  32.234 -0.1133  0.0854  0.1080
28010W        W34460  12.498   6.034   0.575  0.0117  0.1039  0.0285
28011W        W34461  20.161   7.151  30.268 -0.1648 -0.0052 -0.2594
28012W        W34462  12.485   5.520  23.125  0.1350 -0.0853 -0.1548
28013W        W34463  13.644   3.143  24.552 -0.1521 -0.2245 -0.1664
28014W        W34464   7.717   2.099  30.592  0.0583 -0.0128 -0.0236
28015W        W34465  21.879   1.718  21.016 -0.1008  0.1401 -0.1584
28016W        W34466   8.423   7.552  22.277 -0.1539  0.0933  0.0819
28017W        W34467  15.603   2.187  24.401  0.2008 -0.0174  0.1092
28018W        W34468  21.601   7.277  27.161  0.1345  0.1639  0.0632
28019W        W34469  24.379   3.253  31.993  0.1888  0.0843 -0.0023
28020W        W34470   8.661   6.625  25.033 -0.0253  0.0162 -0.0178
28021W        W34471   3.084   7.016  30.839 -0.1748 -0.1051  0.0487
28022W        W34472   9.340   3.115  25.015 -0.0058  0.1619 -0.0542
28023W        W34473  13.948   2.407  19.941 -0.2800 -0.1167 -0.0313
28024W        W34474   5.486   2.302   1.042  0.1198  0.2619 -0.0200
28025W        W34475  10.780   6.686  25.481 -0.3019  0.0371 -0.0140
28026W        W34476  12.667   4.990   3.515 -0.0568 -0.0604  0.0418
28027W        W34477   3.406   6.708   4.830  0.0755  0.1793  0.3183
28028W        W34478  13.725   4.544  19.150 -0.1081 -0.0438  0.0103
28029W        W34479  23.066   0.543   0.736  0.2563 -0.1507 -0.0510
28030W        W34480  22.521   5.965   9.721  0.0416 -0.1544  0.0069
28031W        W34481   0.202   3.461   6.991  0.3730 -0.0584  0.0510
28032W        W34482   5.575   0.844   9.706 -0.1111 -0.2042 -0.1024
28033W        W34483  15.802   1.637  17.420  0.0542  0.1902 -0.0175
28034W        W34484  18.654   7.344   5.760  0.0003  0.2377 -0.0392
28035W        W34485   4.924   5.568  13.446  0.1772  0.0284  0.0410
28036W        W34486   5.946   7.642  23.952  0.2843  0.3672  0.3371
28037W        W34487   4.066   3.059  11.920  0.0720 -0.2084 -0.1450
28038W        W34488  21.252   1.189   8.993 -0.2106 -0.1278 -0.2129
28039W        W34489   4.992   6.042   8.143 -0.2226 -0.2689 -0.2560
28040W        W34490  22.112   3.483   1.192 -0.0829 -0.1020  0.2012
28041W        W34491   6.834   1.684   0.211 -0.0197  0.2966  0.3185
28042W        W34492   2.239   2.787  15.608 -0.0268  0.0656  0.0551
28043W        W34493  23.529   4.284  11.882 -0.1397 -0.0777  0.0499
28044W        W34494  10.760   0.400  23.663 -0.0396 -0.1634  0.0886
28045W        W34495   1.920   3.569  15.587  0.0982  0.0394  0.1031
28046W        W34496   4.924   5.778   4.923  0.0076 -0.2048 -0.0138
28047W        W34497  16.419   1.942   4.185 -0.1262 -0.0303 -0.3134
28048W        W34498  23.621   3.425   6.598 -0.1430  0.1462  0.1899
28049W        W34499  15.840   3.056   3.000 -0.1098 -0.3054  0.3518
28050W        W34500   7.394   7.478  31.480  0.2392 -0.0245 -0.2731
28051W        W34501   9.483   3.563  27.235 -0.0632  0.2172  0.0552
28052W        W34502  10.857   1.300  18.430  0.1354 -0.1288 -0.1239
28053W        W34503   1.956   2.616  21.979  0.2950 -0.0428 -0.1175
28054W        W34504   7.248   7.225  32.028 -0.0987  0.0100  0.2645
28055W        W34505   3.521   4.231  15.592  0.1741 -0.1472  0.3725
28056W        W34506   5.262   0.532   8.062 -0.0216 -0.0125 -0.2280
28057W        W34507   2.445   5.968  12.689  0.2686 -0.1963  0.1000
28058W        W34508  11.171   0.726   2.180  0.0559 -0.1078 -0.1463
28059W        W34509   6.236   2.630  22.072 -0.2411  0.0330  0.0871
28060W        W34510  20.427   5.241   2.391 -0.0854 -0.0660  0.2030
28061W        W34511   2.293   3.143   4.720 -0.1807  0.3278 -0.1762
28062W        W34512  15.548   2.132   6.470 -0.0522 -0.2698  0.2559
28063W        W34513  15.208   4.639  15.015  0.0319 -0.0266 -0.3530
28064W        W34514   3.479   6.457  16.908  0.1548 -0.0172 -0.0759
28065W        W34515  15.104   4.656  32.323  0.1950 -0.0139 -0.0019
28066W        W34516  17.032   6.596   1.764  0.2160 -0.1861 -0.1694
28067W        W34517   0.929   5.492  32.281  0.0770 -0.0392  0.0671
28068W        W34518  19.872   5.877   0.841 -0.3446 -0.4013  0.6509
28069W        W34519   5.733   4.510  14.827 -0.1920  0.2959  0.1481
28070W        W34520   1.245   4.782   1.019 -0.0235  0.1130 -0.1147
28071W        W34521  12.472   6.353   2.217  0.2019 -0.2843 -0.2637
28072W        W34522  17.189   1.886  22.351  0.1315 -0.2396  0.6552
28073W        W34523  17.896   3.786  20.695  0.2280  0.4656 -0.2163
28074W        W34524   7.799   7.175  32.611 -0.0504 -0.1795  0.6551
28075W        W34525   3.702   4.246  12.044  0.2468 -0.0899  0.1320
28076W        W34526  19.268   1.036  31.903  0.0766 -0.1393  0.1174
28077W        W34527  22.905   0.767  11.262  0.0754  0.1911 -0.3286
28078W        W34528   4.027   3.796   5.700 -0.0984 -0.0935  0.3840
28079W        W34529  13.693   5.837   1.627 -0.3176  0.0701 -0.0924
28080W        W34530  11.968   0.556  25.688  0.1955 -0.1556  0.2607
28081W        W34531   5.415   3.380   8.751  0.1457  0.1199  0.1494
28082W        W34532   5.078   4.510  18.442  0.1724 -0.1768  0.0454
28083W        W34533  21.316   3.585   5.839 -0.4388  0.1828  0.0551
28084W        W34534  20.296   2.985  31.487  0.0738  0.1810  0.1352
28085W        W34535  15.402   7.094   2.021 -0.1804  0.2313  0.3439
28086W        W34536  23.359   4.068   1.203  0.0251  0.1230  0.0892
28087W        W34537  22.542   7.613  27.191 -0.0791  0.0954  0.0123
28088W        W34538   4.358   2.144  28.257  0.0069 -0.3028 -0.3154
28089W        W34539   3.058   3.242  16.519 -0.1100  0.3516  0.2142
28090W        W34540  11.936   7.099   0.916  0.2078  0.1299 -0.1231
28091W        W34541   4.429   5.738  29.209 -0.1638 -0.1403  0.1039
28092W        W34542   6.013   0.252  10.346 -0.0504 -0.0554  0.1199
28093W        W34543  24.431   2.287  11.350  0.1336 -0.0689 -0.2138
28094W        W34544  10.455   6.586  23.105  0.0281  0.2910 -0.1004
28095W        W34545   0.822   5.138  22.400  0.0419 -0.0234  0.0459
28096W        W34546  14.792   2.617   6.947 -0.1177 -0.2600  0.1263
28097W        W34547  13.772   3.441   3.723  0.0262 -0.1051 -0.0818
28098W        W34548  24.444   1.237  12.429 -0.1016  0.3530 -0.0060
28099W        W34549   5.991   3.810  28.440  0.3389 -0.0647  0.0579
28100W        W34550  11.526   6.019  22.623  0.3120  0.1483 -0.2848
28101W        W34551   6.013   1.991  33.035  0.3148 -0.0358 -0.0583
28102W        W34552   1.302   4.937   9.927 -0.0540  0.0679 -0.2330
28103W        W34553   5.824   7.586   6.573  0.2385  0.4394  0.0757
28104W        W34554  13.850   6.860  16.967  0.1343  0.0973  0.1841
28105W        W34555   0.695   7.135  25.283  0.0738 -0.2649  0.1828
28106W        W34556   7.683   5.955   6.575  0.0407  0.0126  0.2032
28107W        W34557  16.845   3.639  17.005  0.0891 -0.0580 -0.0515
28108W        W34558  21.873   0.306   4.182 -0.3619 -0.0763 -0.1677
28109W        W34559   8.304   2.215   0.864  0.3656 -0.2935  0.1020
28110W        W34560   0.685   5.101  24.299 -0.1234 -0.0021 -0.0861
28111W        W34561  20.893   5.664  22.657 -0.1443 -0.0944  0.2325
28112W        W34562  20.183   7.180  17.352 -0.1515  0.0866  0.2068
28113W        W34563   2.496   1.721  10.002 -0.0469 -0.1455  0.2854
28114W        W34564   4.859   6.700  17.898  0.2879  0.1259 -0.0236
28115W        W34565   6.998   7.613  28.397 -0.0426  0.2664 -0.4805
28116W        W34566   0.100   3.931  27.736 -0.0561 -0.2027  0.1300
28117W        W34567   7.413   2.764  28.708 -0.0210  0.3497  0.2059
28118W        W34568   0.714   4.946   2.418 -0.0160  0.1700 -0.0542
28119W        W34569  13.996   2.285  22.710  0.0965 -0.0103 -0.0435
28120W        W34570   1.705   7.005  26.562  0.1155 -0.2522 -0.0062
28121W        W34571  18.672   1.944  25.566 -0.2302 -0.0457 -0.6067
28122W        W34572  23.681   3.215   8.329  0.1359 -0.1182  0.0206
28123W        W34573   1.639   0.620   7.823  0.0052 -0.0773 -0.1642
28124W        W34574  13.198   0.904   4.114  0.0406 -0.2266 -0.2985
28125W        W34575   9.204   4.794  29.083  0.1715 -0.3729 -0.1659
28126W        W34576   8.276   5.442   3.698  0.1229  0.0106 -0.0987
28127W        W34577  15.787   7.613  21.384  0.3201  0.1220  0.2798
28128W        W34578   3.683   6.271   0.212 -0.0658 -0.1462 -0.1384
28129W        W34579  16.248   5.396  22.125  0.0502  0.1902 -0.0091
28130W        W34580  23.858   7.296  29.441  0.1183  0.0434 -0.1879
28131W        W34581   0.300   3.546  31.749 -0.1680 -0.4907 -0.1881
28132W        W34582   9.368   1.207  25.218 -0.0089 -0.1318  0.0297
28133W        W34583  19.223   1.704  31.993 -0.0710 -0.1608  0.3969
28134W        W34584   7.307   7.666   0.431 -0.1519 -0.2321  0.0732
28135W        W34585   3.626   6.291   9.172 -0.3059 -0.0684 -0.1868
28136W        W34586  24.237   4.174   1.783  0.0786  0.0484 -0.4007
28137W        W34587  17.907   1.981   2.626  0.1335  0.3890  0.0120
28138W        W34588   5.802   4.761   5.391  0.3866 -0.0876 -0.1626
28139W        W34589  11.592   1.113  31.545 -0.3123  0.0287  0.4240
28140W        W34590  17.527   3.976   8.547  0.0135 -0.2707 -0.1162
28141W        W34591  21.240   6.652  22.543 -0.1107 -0.2850  0.1859
28142W        W34592  17.779   7.205   9.467  0.0679  0.0181  0.0672
28143W        W34593  24.523   2.361  14.807 -0.2135 -0.0924 -0.2075
28144W        W34594   9.004   1.736  24.129 -0.1539 -0.7758  0.0282
28145W        W34595  12.805   0.581   9.843  0.1349  0.1422 -0.5704
28146W        W34596   9.129   2.841   7.486 -0.2405  0.2254  0.0214
28147W        W34597  22.050   3.254  23.446 -0.1561  0.1736 -0.2766
28148W        W34598  17.958   3.719  29.987 -0.0404 -0.0797  0.0895
28149W        W34599  10.685   0.223   1.921  0.1453  0.0693  0.0211
28150W        W34600   1.407   7.389   5.642  0.0406  0.1291  0.1058
28151W        W34601  19.798   4.773   5.623  0.1086  0.0591  0.2256
28152W        W34602  22.542   3.307  26.740  0.0616  0.0976  0.2099
28153W        W34603  24.567   3.357   0.116 -0.0054 -0.0804 -0.1097
28154W        W34604  14.291   2.590  17.088 -0.1901 -0.0335  0.0742
28155W        W34605  22.336   0.551  28.835  0.0523  0.1028  0.0733
28156W        W34606   9.711   6.463   3.959  0.0249 -0.2132 -0.3832
28157W        W34607   2.043   2.817  14.418 -0.1594 -0.0301  0.3459
28158W        W34608  17.208   5.173  31.238  0.4207  0.0793 -0.2647
28159W        W34609   4.825   5.742  31.884 -0.1196 -0.0711 -0.1809
28160W        W34610   5.830   4.541   3.041 -0.0043  0.0273 -0.0314
28161W        W34611  14.458   5.531   2.731 -0.0610  0.0392  0.2717
28162W        W34612   2.380   5.832   7.445  0.0860 -0.1099 -0.1351
28163W        W34613  15.198   1.729  22.706 -0.1565  0.3591 -0.0738
28164W        W34614  19.961   5.423   5.512  0.2306  0.0008  0.2488
28165W        W34615  12.737   0.463  32.505  0.0863 -0.3950 -0.2716
28166W        W34616   6.873   4.774   0.148 -0.1397 -0.0939  0.0267
28167W        W34617  11.445   1.965   3.749 -0.2878 -0.3341 -0.0784
28168W        W34618   4.020   0.096   4.758  0.2996 -0.3651  0.0718
28169W        W34619   3.926   1.901  18.032 -0.0100 -0.0811  0.1616
28170W        W34620  11.748   1.199  28.482  0.3303 -0.3196 -0.1402
28171W        W34621  23.928   7.587  32.328 -0.1811 -0.3437 -0.1595
28172W        W34622  24.759   4.282  25.628  0.1349  0.2607  0.1266
28173W        W34623  22.799   1.377  25.719 -0.1001  0.1256  0.0965
28174W        W34624   6.417   5.386   6.226 -0.2243 -0.0421  0.1181
28175W        W34625   5.652   5.704   3.611  0.1831  0.1882 -0.0488
28176W        W34626  21.225   2.717  29.004 -0.0144 -0.2845 -0.1764
28177W        W34627  16.918   0.486  28.458  0.3131 -0.0480 -0.0046
28178W        W34628   7.356   3.292  32.871 -0.4374 -0.1691  0.1208
28179W        W34629  10.917   3.323   5.271  0.1578 -0.2810  0.1439
28180W        W34630  23.358   2.138  11.278 -0.0065 -0.1722  0.1365
28181W        W34631  13.627   1.328   6.111 -0.1333  0.0902 -0.0201
28182W        W34632   0.665   3.930  24.989 -0.0235  0.2602 -0.1142
28183W        W34633  17.577   4.670  23.740  0.0857 -0.1534  0.2403
28184W        W34634   9.281   3.564  23.426 -0.1884  0.1580 -0.1842
28185W        W34635  24.475   6.170   0.427  0.1376  0.1775 -0.2209
28186W        W34636   6.182   1.954  16.435  0.0390 -0.0111  0.0139
28187W        W34637   6.941   5.801  13.442 -0.2162 -0.1055 -0.0215
28188W        W34638   7.515   0.579   8.734 -0.0732  0.3733 -0.3562
28189W        W34639   2.489   6.715  12.026  0.4149  0.0213  0.2633
28190W        W34640   1.659   0.228   2.414 -0.1268 -0.0050 -0.1262
28191W        W34641  15.967   0.491  20.231 -0.2025 -0.0950  0.2366
28192W        W34642   9.451   5.783   6.914 -0.1334  0.0472  0.1203
28193W        W34643  12.858   6.224  19.407 -0.0128  0.3488 -0.1298
28194W        W34644  11.595   7.185  19.887  0.0071  0.2288 -0.0052
28195W        W34645  14.873   4.098  20.101 -0.1505 -0.0014  0.0246
28196W        W34646  23.907   3.409  21.077 -0.0012  0.1268  0.1403
28197W        W34647   7.507   0.123  10.755 -0.1692 -0.3811  0.0763
28198W        W34648  22.117   2.270   8.618 -0.0240 -0.0184 -0.0943
28199W        W34649  23.231   5.548  25.326  0.2217  0.1633  0.1071
28200W        W34650   1.360   4.060  30.614 -0.1614 -0.0527 -0.0817
28201W        W34651   0.789   3.622  16.142 -0.0746 -0.0430 -0.1294
28202W        W34652   2.559   6.931  13.396 -0.0806  0.2189  0.0353
28203W        W34653  19.891   5.243   2.473  0.0123  0.0141 -0.1692
28204W        W34654  11.159   6.316   8.779 -0.0213  0.1982  0.2138
28205W        W34655   9.349   3.879   8.230  0.2984 -0.1181  0.2601
28206W        W34656  23.658   1.309  21.998  0.0263  0.1723  0.1869
28207W        W34657  13.997   1.664  31.715  0.1875 -0.0443  0.2700
28208W        W34658  10.541   3.873  27.917  0.0501  0.2179  0.0585
28209W        W34659  19.690   2.041  27.108 -0.0761 -0.1535 -0.0673
28210W        W34660  15.417   7.154   2.573  0.0114 -0.1315 -0.1039
28211W        W34661  18.348   6.157  19.790 -0.0161 -0.2198  0.3162
28212W        W34662  21.968   6.793  26.430 -0.0060  0.2526  0.2632
28213W        W34663  10.635   0.741  32.116 -0.0681  0.4229 -0.1152
28214W        W34664   8.535   3.779  15.562  0.0440 -0.2246  0.1665
28215W        W34665  24.568   0.366  28.634 -0.1847 -0.1119  0.0823
28216W        W34666  10.364   1.826  24.466  0.1457  0.1897  0.0556
28217W        W34667  12.263   1.830  27.620 -0.0279  0.5458  0.1024
28218W        W34668   9.355   1.786  26.498  0.1035 -0.1790 -0.1808
28219W        W34669   7.649   1.661  30.430 -0.2722 -0.1182  0.0601
28220W        W34670  15.925   5.915   5.358  0.1073  0.2012 -0.0900
28221W        W34671  20.715   4.748   4.546  0.1705  0.0123  0.0839
28222W        W34672  18.176   7.239  26.062 -0.1465 -0.1479 -0.0095
28223W        W34673   4.201   2.252   6.141  0.2282 -0.3733 -0.1583
28224W        W34674  10.454   4.511  25.386 -0.0284 -0.2651 -0.1411
28225W        W34675  18.262   1.675   6.123  0.1075 -0.1498 -0.1199
28226W        W34676  12.131   5.824  29.092  0.2425 -0.0711 -0.1876
28227W        W34677  17.875   5.504   8.136 -0.2208  0.3175  0.1975
28228W        W34678   7.946   1.484  23.644  0.0429 -0.1797  0.1014
28229W        W34679  19.281   2.264   1.280 -0.0284  0.3083 -0.0290
28230W        W34680   4.015   0.912  13.512 -0.0354 -0.2161 -0.1203
28231W        W34681   6.834   6.585   2.855 -0.1777 -0.1270 -0.0180
28232W        W34682   5.785   0.171  25.319  0.0326  0.1772 -0.3696
28233W        W34683   6.201   5.110   2.565  0.0317 -0.1768 -0.1113
28234W        W34684   1.267   4.362  29.191 -0.1238  0.1355 -0.4186
28235W        W34685  18.808   5.686  20.400 -0.1221 -0.1133  0.0280
28236W        W34686   8.370   1.579  23.242  0.0444 -0.1220  0.4127
28237W        W34687   2.635   4.891   2.256  0.1095  0.1975  0.1515
28238W        W34688  10.775   3.350   1.964  0.1377  0.0504  0.0485
28239W        W34689  11.561   3.209  10.494 -0.1738  0.1234  0.2832
28240W        W34690  18.295   0.484   9.646 -0.0408 -0.1773 -0.1279
28241W        W34691  22.044   4.581  22.305  0.3014  0.0610 -0.0800
28242W        W34692  17.028   6.226  25.398 -0.0273  0.2344  0.2594
28243W        W34693  15.244   7.353   5.683  0.1936 -0.0022  0.1660
28244W        W34694  14.943   7.416   2.846  0.2558 -0.2074  0.3077
28245W        W34695  24.596   2.808  31.703 -0.1564  0.1640  0.1368
28246W        W34696  19.412   5.613  22.425  0.2187 -0.0445 -0.0975
28247W        W34697   3.679   4.325  32.820 -0.1014 -0.1287 -0.1328
28248W        W34698  16.103   7.199  23.625  0.1624 -0.1076  0.0891
28249W        W34699  15.169   0.751   1.650  0.0189 -0.0218  0.2416
28250W        W34700  10.939   6.969  30.891 -0.0121 -0.3736 -0.1435
28251W        W34701  15.188   3.477   0.389 -0.0785 -0.5574 -0.1955
28252W        W34702   6.691   4.781  31.660 -0.2631  0.0266  0.0753
28253W        W34703   1.137   2.941  25.942  0.2582 -0.3070 -0.0617
28254W        W34704   5.365   7.716  28.363 -0.1253  0.0583  0.2181
28255W        W34705   5.607   2.921  26.415 -0.1247 -0.1268 -0.3437
28256W        W34706  10.774   5.896  20.267  0.0658  0.1242 -0.1393
28257W        W34707   9.622   5.580   6.274 -0.2412 -0.3077 -0.1907
28258W        W34708   6.115   1.762  31.515  0.0089  0.2209  0.0859
28259W        W34709   6.812   5.175   3.992 -0.1710 -0.2182 -0.3253
28260W        W34710   7.246   0.063  17.550 -0.1623 -0.0663  0.0747
28261W        W34711   0.505   0.990  30.855 -0.5724 -0.0311 -0.0136
28262W        W34712  20.369   6.128   7.649  0.0874 -0.2283  0.0855
28263W        W34713   3.240   3.547  11.581 -0.5391  0.1537  0.0940
28264W        W34714   3.651   7.647   1.889 -0.2239 -0.0918  0.2326
28265W        W34715   1.189   5.721   8.758  0.3446 -0.1089 -0.3015
28266W        W34716   6.591   1.521   6.013  0.0966 -0.1162 -0.0134
28267W        W34717  19.239   7.366  32.957  0.0133 -0.3397  0.2421
28268W        W34718  24.219   5.345   8.159  0.0844  0.1382  0.0148
28269W        W34719   2.290   2.745   2.241  0.0939  0.3575 -0.1080
28270W        W34720  20.456   4.998   1.976 -0.0438 -0.0236  0.1302
28271W        W34721  18.754   4.502  30.565 -0.0531 -0.1799  0.1515
28272W        W34722  22.813   0.805  26.658  0.0187  0.0816 -0.0390
28273W        W34723   1.649   2.786   4.180 -0.1279  0.1571 -0.2098
28274W        W34724  24.555   6.770  23.990  0.0648  0.0548  0.1140
28275W        W34725   3.025   5.946  13.988  0.2385 -0.0351 -0.0423
28276W        W34726  24.840   2.057   2.339 -0.1150 -0.1881  0.1722
28277W        W34727  20.262   3.532   5.746  0.0944  0.2781 -0.1911
28278W        W34728   0.072   4.825  31.530  0.0159 -0.1640  0.0994
28279W        W34729  24.225   6.168  21.030  0.1950  0.3315  0.2596
28280W        W34730  11.109   1.141  25.916 -0.3067  0.1328  0.0694
28281W        W34731   8.231   2.081   2.241  0.1078 -0.0272  0.0496
28282W        W34732   3.104   4.762   7.232 -0.2615  0.3187  0.1276
28283W        W34733   5.790   4.437   3.600 -0.1594  0.2628  0.1187
28284W        W34734  10.605   5.956  29.850 -0.0380 -0.0528 -0.1868
28285W        W34735  21.944   7.070  25.781 -0.0755  0.0179 -0.1902
28286W        W34736   4.872   0.874  25.420 -0.0510 -0.0721 -0.0887
28287W        W34737  18.631   0.184  28.646 -0.2198  0.2787 -0.1117
28288W        W34738  11.076   0.084  20.136  0.0281  0.1385  0.2407
28289W        W34739  14.869   5.238   4.888 -0.2746 -0.0921 -0.2602
28290W        W34740  16.189   1.111   2.457  0.0342  0.2152 -0.0959
28291W        W34741  23.218   3.798  10.078  0.0119 -0.1830 -0.0335
28292W        W34742  13.042   7.257  32.478 -0.0405  0.0543  0.2132
28293W        W34743   3.161   5.581  10.192 -0.0461 -0.0826 -0.0218
28294W        W34744   3.117   3.293  25.711  0.0324 -0.1644  0.2339
28295W        W34745   8.637   3.352  25.548  0.0373  0.0072 -0.0883
28296W        W34746  21.392   7.485   4.849  0.1739 -0.0265  0.1711
28297W        W34747   0.749   2.858   9.375 -0.1477  0.0931  0.0510
28298W        W34748   7.269   7.370   5.034  0.0343  0.0284 -0.0121
28299W        W34749  11.966   1.222  30.565 -0.1040  0.2855 -0.3096
28300W        W34750  17.768   5.191   5.203 -0.0835  0.0452 -0.0177
28301W        W34751  21.370   4.620   2.482 -0.0963  0.0042  0.0417
28302W        W34752  14.761   6.878   9.273 -0.1589 -0.1391 -0.3064
28303W        W34753   3.791   0.085  22.849  0.0623  0.0828 -0.2221
28304W        W34754  15.311   3.156  20.253 -0.0541  0.2394 -0.0026
28305W        W34755   4.189   3.262  14.524  0.2414 -0.0963 -0.0893
28306W        W34756  13.532   7.478   8.330  0.0376 -0.1832 -0.0882
28307W        W34757  11.133   3.229   6.570  0.4058  0.1207 -0.1816
28308W        W34758  19.879   4.901  29.124 -0.1087  0.5068 -0.0300
28309W        W34759   9.419   3.379  32.496 -0.0584  0.1456  0.1497
28310W        W34760  12.668   0.742   0.420  0.0952 -0.0261 -0.2596
28311W        W34761  16.989   3.796  15.788 -0.0142 -0.0789  0.0522
28312W        W34762  19.576   5.136  22.431 -0.0542  0.1206  0.0057
28313W        W34763  20.149   2.362  22.326 -0.0983 -0.0354 -0.0012
28314W        W34764   7.663   6.576  15.695  0.0397  0.0263 -0.1824
28315W        W34765   8.267   3.352   9.969 -0.1144 -0.1346 -0.0126
28316W        W34766  17.031   0.571  18.060  0.0511  0.2936 -0.0717
28317W        W34767  23.549   3.679   8.105  0.2804 -0.3183  0.0808
28318W        W34768  18.218   4.946  25.749 -0.0897  0.1086  0.1661
28319W        W34769  18.752   1.500   5.840 -0.0415 -0.0981 -0.3632
28320W        W34770  21.791   5.943  31.938  0.2151 -0.1380  0.0406
28321W        W34771   6.765   1.923   6.593  0.0960  0.0703 -0.2963
28322W        W34772  11.196   6.974  19.492 -0.0601  0.3650  0.2414
28323W        W34773  13.204   6.825  21.885  0.2146 -0.0261 -0.1546
28324W        W34774  10.707   0.399  28.799  0.1467  0.0159 -0.0552
28325W        W34775  18.556   1.831   5.416  0.0717  0.0302 -0.0600
28326W        W34776  10.560   3.475   5.741 -0.1523 -0.1263 -0.0161
28327W        W34777  20.609   1.018   5.298 -0.2567 -0.0252  0.0754
28328W        W34778  13.907   3.696   7.135 -0.1512  0.5766  0.1830
28329W        W34779  12.796   6.985  18.530 -0.0537  0.6557 -0.1551
28330W        W34780  10.810   1.879  22.015  0.4037  0.1000 -0.0150
28331W        W34781  14.785   2.059  27.731  0.0681  0.0054 -0.2141
28332W        W34782  14.030   3.128  26.961  0.0820 -0.0931  0.1056
28333W        W34783   1.138   7.102  26.301  0.3439 -0.1217  0.1713
28334W        W34784  11.316   6.770  10.212 -0.0798 -0.1478 -0.0577
28335W        W34785   3.081   7.460  12.919  0.2287 -0.2110 -0.1108
28336W        W34786  18.468   2.414   3.107 -0.3488  0.0713  0.2155
28337W        W34787  17.122   3.231  29.375  0.0251 -0.1329 -0.1842
28338W        W34788  10.551   5.148   3.936  0.0982  0.2171  0.3383
28339W        W34789  24.594   4.235  26.963  0.2554  0.2752  0.2710
28340W        W34790   5.796   4.615  29.686 -0.1304 -0.0158  0.1208
28341W        W34791   7.665   3.491  22.274  0.0702  0.0193 -0.0228
28342W        W34792   7.520   1.596  28.403  0.1394  0.1642 -0.1817
28343W        W34793  20.842   0.539  31.126  0.1488  0.0748  0.1758
28344W        W34794  19.096   7.012   5.941  0.1282  0.0240  0.0276
28345W        W34795   0.186   0.286  24.453  0.1952  0.2252  0.2629
28346W        W34796  22.229   4.837  28.771  0.0056  0.2565 -0.1832
28347W        W34797   2.784   1.063   2.327  0.0959  0.0876  0.3203
28348W        W34798   8.596   2.497  24.865  0.0210  0.2034  0.3729
28349W        W34799  23.598   0.559  12.060  0.1110  0.1849  0.1764
28350W        W34800   8.028   2.489  32.460 -0.1113  0.0492 -0.0069
28351W        W34801   3.268   6.421   1.441  0.0718 -0.3639 -0.0954
28352W        W34802  12.938   4.502   8.875 -0.1772 -0.1788 -0.1700
28353W        W34803  19.272   5.878   1.899 -0.1007 -0.0482  0.0618
28354W        W34804  23.843   6.033  26.401  0.0846  0.0823 -0.1398
28355W        W34805   9.597   3.716   9.326  0.0977  0.2744  0.0663
28356W        W34806   8.203   3.874  28.022  0.0351 -0.1224 -0.1218
28357W        W34807  23.267   4.867  29.603  0.1999  0.0000  0.1407
28358W        W34808  11.177   6.543  20.240 -0.0397 -0.1902 -0.0990
28359W        W34809   9.360   5.367  27.957  0.1464 -0.0838  0.0847
28360W        W34810   1.321   6.410   5.594 -0.0270  0.2376  0.1416
28361W        W34811  18.415   0.813  26.496  0.1071 -0.2660 -0.1737
28362W        W34812   0.926   3.330   1.946 -0.0980  0.0063 -0.3689
28363W        W34813   2.119   3.394   1.568 -0.1326  0.1968  0.0519
28364W        W34814  13.757   6.414  10.043 -0.0977 -0.0433  0.1362
28365W        W34815   6.115   3.035  10.894 -0.0311 -0.1438  0.1751
28366W        W34816  11.223   4.402  25.821 -0.0005  0.0984 -0.0245
28367W        W34817  22.204   2.484   7.463  0.1338 -0.3160  0.1162
28368W        W34818   2.679   7.248   6.897  0.1888  0.0647  0.2259
28369W        W34819  11.255   4.745  29.368 -0.0982  0.1774 -0.2396
28370W        W34820  11.135   0.550  20.399  0.0300  0.1642 -0.0777
28371W        W34821  16.879   7.336  26.040 -0.1326 -0.2409 -0.0877
28372W        W34822  12.804   5.828  26.142  0.0071  0.2026 -0.2273
28373W        W34823   0.889   2.960  24.958  0.2135  0.0620 -0.1125
28374W        W34824  12.160   6.201   8.407  0.0690  0.1442 -0.3249
28375W        W34825  18.782   7.005   5.355 -0.5493 -0.2483 -0.0516
28376W        W34826   5.358   4.027   3.709 -0.5774 -0.0162 -0.0176
28377W        W34827  15.074   4.477  17.688 -0.1104  0.0548  0.1217
28378W        W34828   5.735   6.117  28.974 -0.0738 -0.0104 -0.0814
28379W        W34829  11.986   5.837   9.992  0.1976 -0.2021  0.1230
28380W        W34830  14.565   4.233  16.549 -0.1271 -0.5977  0.0588
28381W        W34831  16.770   1.831  14.350 -0.0396 -0.2768  0.1303
28382W        W34832   0.660   0.805  15.707  0.0142 -0.3214  0.1846
28383W        W34833   1.455   4.761  10.773  0.0818 -0.1889  0.2015
28384W        W34834  16.195   0.534  23.718  0.3308  0.1365  0.0086
28385W        W34835  24.651   2.881   1.770  0.0413 -0.1146 -0.0295
28386W        W34836  14.125   0.716  16.156  0.0149 -0.2121  0.1788
28387W        W34837   6.199   7.499  28.561 -0.1869  0.1909  0.1419
28388W        W34838  15.618   5.647   4.794 -0.1464 -0.0398 -0.0166
28389W        W34839  15.204   5.570   7.717  0.1389 -0.0461  0.1103
28390W        W34840  12.060   1.300   6.791  0.1590  0.0469 -0.5003
28391W        W34841   8.274   0.644   1.007  0.1541 -0.1505 -0.1240
28392W        W34842  21.332   4.072  18.237  0.0647  0.0716 -0.1665
28393W        W34843  18.650   7.009  31.425  0.2355 -0.0672 -0.1459
28394W        W34844   9.954   4.376   7.404 -0.2285 -0.1454 -0.0197
28395W        W34845  17.647   7.651  24.663 -0.2353  0.0014 -0.0352
28396W        W34846  12.482   4.057  26.601 -0.0948 -0.2024  0.0391
28397W        W34847   0.196   6.892  15.655 -0.0894  0.1346  0.0400
28398W        W34848   4.895   0.077  33.022  0.1322  0.1944 -0.0842
28399W        W34849  14.224   0.650  22.064 -0.0861 -0.0962  0.1744
28400W        W34850  16.006   1.004   4.789  0.1770  0.1229  0.0107
28401W        W34851   6.386   3.999  10.258  0.3819 -0.1957  0.1731
28402W        W34852  23.600   1.497  21.148  0.4228 -0.1601 -0.1589
28403W        W34853  11.957   1.314   9.382 -0.2716 -0.1074  0.0375
28404W        W34854  21.659   7.639   0.882 -0.2277  0.0487  0.1334
28405W        W34855  22.066   6.375  28.809  0.0661 -0.2936 -0.0506
28406W        W34856  13.288   0.266  29.139 -0.2298  0.2686 -0.0788
28407W        W34857  16.081   4.868  25.665  0.1633  0.1295 -0.0841
28408W        W34858  23.598   2.947   9.219  0.0031  0.0381 -0.2333
28409W        W34859   3.551   6.007  11.632  0.0111 -0.0002  0.0170
28410W        W34860  13.591   7.526  30.672  0.1541  0.1111 -0.0330
28411W        W34861  20.426   4.959  29.511  0.0377  0.0225 -0.0909
28412W        W34862   2.836   2.325   0.853  0.1443 -0.3110 -0.1793
28413W        W34863  21.576   5.473  11.560  0.1140 -0.1919 -0.0653
28414W        W34864  19.667   6.346  21.952 -0.1971  0.2392  0.1081
28415W        W34865   7.972   4.175  28.513  0.1091 -0.1634  0.0934
28416W        W34866  13.140   0.231   3.268  0.0925  0.2726 -0.1682
28417W        W34867  24.730   5.278  21.464  0.0710 -0.2440  0.3739
28418W        W34868  12.454   6.565  28.098 -0.0480 -0.2849  0.0767
28419W        W34869   4.897   2.801   2.024 -0.1421  0.2194 -0.1692
28420W        W34870   2.948   3.238  14.643 -0.1260 -0.1399  0.0655
28421W        W34871   6.921   0.489  26.511 -0.2463  0.1481  0.1274
28422W        W34872   2.835   5.809   0.204  0.1238  0.4224 -0.1857
28423W        W34873  17.433   6.338   1.885 -0.1370  0.0062 -0.2405
28424W        W34874  17.219   6.493  27.311  0.0290 -0.1850 -0.0251
28425W        W34875   3.592   7.596  32.293  0.2124 -0.3053  0.3132
28426W        W34876  19.843   1.680   8.970  0.1394  0.0519  0.0562
28427W        W34877  12.594   3.492  26.403 -0.1009 -0.3570 -0.1481
28428W        W34878   9.694   7.150   8.093  0.2259  0.1041 -0.1429
28429W        W34879  16.009   2.659  17.810  0.0573 -0.2221 -0.0443
28430W        W34880  17.719   2.750   0.451 -0.1580 -0.0115  0.1013
28431W        W34881   3.561   0.584  25.357  0.1503  0.0191 -0.0308
28432W        W34882  14.944   7.087  18.970  0.0603  0.0877  0.2721
28433W        W34883   8.243   6.212  24.702 -0.0980 -0.0348  0.0374
28434W        W34884  16.892   1.038   9.179 -0.2027 -0.1055  0.3666
28435W        W34885   8.376   4.882   7.366 -0.0073 -0.0469 -0.1854
28436W        W34886  24.815   4.447  29.446 -0.2655  0.1104  0.1013
28437W        W34887   3.830   3.667  16.450  0.1906  0.1414 -0.1284
28438W        W34888  11.819   5.199  31.685 -0.0151  0.3205  0.1780
28439W        W34889  20.353   4.232  28.333  0.4318 -0.1649  0.1843
28440W        W34890   8.777   4.717  27.865  0.0118  0.0001 -0.0849
28441W        W34891  13.830   4.933  32.314 -0.0027  0.0050  0.0565
28442W        W34892  21.859   2.956   7.182  0.0311 -0.5381  0.3123
28443W        W34893   8.730   7.275   2.523  0.0250  0.1764  0.0270
28444W        W34894   2.305   5.308   2.405  0.3284 -0.1414 -0.1529
28445W        W34895   5.307   4.076  32.487  0.1401  0.2997  0.0439
28446W        W34896  22.692   3.071  28.700  0.0203 -0.1754  0.0444
28447W        W34897   8.221   4.931   5.132 -0.2488  0.3662  0.0115
28448W        W34898   6.299   2.427  23.978 -0.0349  0.2264 -0.0579
28449W        W34899  13.016   2.266  22.265  0.1346  0.0709 -0.0878
28450W        W34900  16.106   0.606  20.747 -0.1450  0.0319 -0.2582
28451W        W34901  16.923   4.449   7.990 -0.1535 -0.0347 -0.0761
28452W        W34902  24.712   0.906  25.642  0.1420  0.1825  0.0332
28453W        W34903   9.060   4.714  30.841 -0.3911 -0.2210 -0.0444
28454W        W34904  19.576   5.709  28.686  0.1113 -0.1526  0.1547
28455W        W34905  17.518   0.071  22.782 -0.2223  0.0281 -0.2167
28456W        W34906  19.950   4.506  21.364  0.0394 -0.0811  0.0935
28457W        W34907  21.586   3.069  28.056 -0.0856 -0.0037  0.1497
28458W        W34908   8.370   0.277  14.236  0.1258 -0.0119  0.1487
28459W        W34909  23.388   6.027  27.806 -0.1859  0.0727 -0.1770
28460W        W34910  12.250   7.558  26.056  0.1867  0.1310  0.2095
28461W        W34911  21.899   0.911  32.571 -0.1409 -0.3352 -0.1295
28462W        W34912  18.243   6.592   3.590 -0.1061 -0.2089 -0.0645
28463W        W34913   3.082   5.565  15.472  0.1596  0.0740 -0.1395
28464W        W34914  21.719   0.386  32.289 -0.1118  0.3910  0.0453
28465W        W34915   7.757   1.091  22.627  0.0478 -0.0889 -0.1565
28466W        W34916  16.055   4.483   2.784  0.0299 -0.2951 -0.2916
28467W        W34917  20.824   5.280  26.389  0.0191 -0.1260  0.0602
28468W        W34918  18.226   4.979   2.288  0.0040 -0.3888  0.0745
28469W        W34919  15.369   4.918  27.835 -0.1712  0.1534 -0.1268
28470W        W34920  23.452   6.980  11.240  0.3126  0.0946  0.1705
28471W        W34921   5.067   4.494  25.767 -0.1705 -0.0947 -0.2650
28472W        W34922  23.010   1.315  28.666  0.0344  0.2515 -0.0118
28473W        W34923   2.506   1.174  28.824 -0.0335  0.1684  0.3514
28474W        W34924   8.006   6.853  30.393 -0.0539  0.1861 -0.0982
28475W        W34925  14.070   2.222  19.485  0.1656  0.1844 -0.0840
28476W        W34926  23.041   0.404  26.934  0.0172 -0.1576 -0.2322
28477W        W34927   0.283   6.015  28.240 -0.2044 -0.1708 -0.3015
28478W        W34928   1.622   2.177   9.603  0.0513  0.0338 -0.0143
28479W        W34929  13.735   5.849   0.237 -0.2227  0.0452 -0.1032
28480W        W34930   1.369   2.866  15.445  0.1597 -0.1089 -0.0512
28481W        W34931   9.038   7.283  12.075  0.0254 -0.4672 -0.0680
28482W        W34932   2.034   3.010   9.303 -0.3096 -0.2584  0.1094
28483W        W34933  24.222   2.162  28.956  0.1579 -0.0312 -0.1919
28484W        W34934   2.638   6.919  17.303 -0.0067 -0.0597  0.2287
28485W        W34935  23.917   5.162   9.335 -0.2011 -0.1414  0.3669
28486W        W34936   1.662   2.560   7.261 -0.1613  0.2202  0.1443
28487W        W34937  14.303   4.597   9.792 -0.1768  0.2690 -0.0081
28488W        W34938  19.461   0.878  24.819 -0.2197  0.0276  0.0815
28489W        W34939  17.156   7.236   0.605 -0.0642 -0.0623  0.0186
28490W        W34940  24.271   2.167  22.190 -0.1228  0.0710 -0.1879
28491W        W34941  15.527   6.573  28.503  0.2615 -0.2695  0.1225
28492W        W34942  18.472   4.676   3.518  0.1272 -0.0753  0.0378
28493W        W34943   6.061   2.317  13.600 -0.1804 -0.0629  0.0157
28494W        W34944   0.259   2.136   8.335 -0.1196  0.0183  0.1821
28495W        W34945   0.429   7.609   1.396 -0.0811  0.2179  0.1463
28496W        W34946  17.330   6.880  16.912 -0.3172 -0.4479 -0.2312
28497W        W34947  11.664   3.478  32.072 -0.4221 -0.1178 -0.0798
28498W        W34948  10.173   3.410   1.085  0.0739 -0.0608  0.1071
28499W        W34949  15.974   6.923   9.298 -0.1921  0.2391  0.0673
28500W        W34950  13.640   1.359  29.984  0.1913  0.1900  0.0256
28501W        W34951  17.316   5.134   0.133  0.1287  0.0631  0.1587
28502W        W34952  24.850   1.784   3.716 -0.1720 -0.0202  0.1912
28503W        W34953  18.984   0.260   8.586  0.0468  0.0707  0.1388
28504W        W34954  11.956   2.726  28.637  0.1734 -0.2705 -0.0113
28505W        W34955   1.736   5.404  16.112 -0.3522 -0.0336  0.2272
28506W        W34956  21.887   6.843  31.765 -0.1210 -0.0706 -0.1430
28507W        W34957  16.951   3.560  23.605  0.0104 -0.2518  0.2393
28508W        W34958  13.405   4.962  22.194  0.1184 -0.0745  0.1702
28509W        W34959   9.558   1.665   2.929  0.0155 -0.1611  0.2212
28510W        W34960  21.974   2.319  29.464 -0.0158 -0.2344  0.2720
28511W        W34961  21.990   5.394  22.739  0.0505  0.0506 -0.1468
28512W        W34962  15.801   1.812  21.933 -0.0137  0.0254 -0.2014
28513W        W34963   1.727   6.012  29.064 -0.0133  0.0159 -0.1075
28514W        W34964  24.410   3.028  12.552  0.0738 -0.0428  0.1178
28515W        W34965  24.067   4.966   4.198  0.0593 -0.1912  0.0334
28516W        W34966   4.892   3.471  24.660  0.1684 -0.1776 -0.2456
28517W        W34967   5.303   0.917   2.876  0.0303  0.2026 -0.0117
28518W        W34968   1.404   6.213  31.754  0.1451 -0.2441  0.0842
28519W        W34969  16.403   3.895  25.698 -0.1518  0.0281  0.1319
28520W        W34970   9.036   4.769  13.912 -0.0164 -0.0867  0.3392
28521W        W34971   3.105   7.537  17.639  0.0601  0.1510  0.1553
28522W        W34972   6.775   6.442  15.451  0.2204 -0.1785  0.1144
28523W        W34973  11.285   2.338  29.799  0.1707 -0.1067  0.1469
28524W        W34974  24.670   6.198  31.696 -0.1573 -0.1104  0.0976
28525W        W34975   2.732   6.977  25.351  0.2168 -0.0621  0.0453
28526W        W34976  11.571   4.339   4.647 -0.2695 -0.1009  0.1026
28527W        W34977   1.645   0.310  14.471  0.3029  0.1570 -0.1074
28528W        W34978  21.669   4.786  10.791  0.3970 -0.0991 -0.0762
28529W        W34979  11.253   3.550   9.230  0.1756  0.3123 -0.0045
28530W        W34980  15.351   2.254  20.975  0.1912 -0.1474  0.1358
28531W        W34981   5.513   7.318  14.747  0.0734 -0.0393  0.0888
28532W        W34982   6.231   3.945  32.807  0.0337  0.0562 -0.0309
28533W        W34983  18.564   2.998   0.556 -0.3422 -0.1126  0.0148
28534W        W34984  12.958   5.448   2.829 -0.3252 -0.0199  0.0630
28535W        W34985   6.521   0.614  24.125 -0.1837  0.1451 -0.0899
28536W        W34986   6.823   6.488   8.928  0.0277  0.1489 -0.2792
28537W        W34987  17.901   7.713  17.148 -0.0615 -0.1917 -0.0506
28538W        W34988  18.066   4.798   9.093  0.2720 -0.1048 -0.0753
28539W        W34989  19.227   5.353  28.977  0.2219 -0.0834 -0.2509
28540W        W34990   5.323   2.212  24.597 -0.0101 -0.0779  0.1824
28541W        W34991   1.131   4.845   8.305  0.0482  0.0203  0.1459
28542W        W34992  22.056   4.804   5.997 -0.0039  0.0452 -0.0509
28543W        W34993  10.588   7.421   1.058 -0.2638 -0.1379 -0.2731
28544W        W34994   4.102   0.887   7.922 -0.0906 -0.0662  0.1272
28545W        W34995  11.701   0.377  11.325  0.0028  0.3095 -0.0676
28546W        W34996   8.948   6.300  10.772  0.2819 -0.0448  0.0727
28547W        W34997   4.346   5.269  29.152  0.2954 -0.4428 -0.2009
28548W        W34998  11.709   3.830  31.070  0.0338  0.0023  0.2105
28549W        W34999   0.588   5.267  13.366 -0.1048  0.0312  0.1322
28550W        W35000   7.182   4.608  23.149 -0.2744 -0.0829 -0.1826
28551W        W35001   0.840   0.365  27.293 -0.3036  0.2534  0.1188
28552W        W35002  22.285   0.662  12.585 -0.1966 -0.0540  0.1889
28553W        W35003  22.722   4.222   1.111 -0.1506 -0.1968 -0.2264
28554W        W35004  19.620   0.258  25.365 -0.1539 -0.2837  0.2729
28555W        W35005  20.415   4.401   6.433  0.2131  0.2299  0.1699
28556W        W35006  14.959   4.808  22.284 -0.2821  0.0024  0.0157
28557W        W35007  12.022   0.292  27.272 -0.1552  0.0377 -0.2238
28558W        W35008  22.068   0.213   9.504  0.1418  0.2170 -0.0787
28559W        W35009  19.425   0.012   6.762 -0.4869  0.1708  0.1378
28560W        W35010   8.432   4.285  27.181  0.3444 -0.2031 -0.0546
28561W        W35011   9.881   3.393   8.694 -0.0136 -0.1357  0.1545
28562W        W35012   1.089   5.975  31.381 -0.0876  0.0816 -0.2261
28563W        W35013   7.882   6.103  31.835  0.1855 -0.0033  0.1052
28564W        W35014   0.966   6.275  29.698 -0.1900  0.1363  0.1348
28565W        W35015   9.208   7.187  23.095  0.1515 -0.1812  0.0165
28566W        W35016   9.638   4.494  31.082  0.0755 -0.2208  0.3806
28567W        W35017  23.090   4.137   6.936 -0.2339  0.4747 -0.1603
28568W        W35018  16.063   2.215   9.261 -0.2207  0.0079  0.1737
28569W        W35019   8.002   2.510   1.960 -0.2632  0.0706 -0.1292
28570W        W35020  10.910   7.273   8.970  0.1073 -0.3112 -0.0375
28571W        W35021  22.515   3.126  24.858 -0.0139 -0.0218 -0.0543
28572W        W35022   0.716   6.481  24.614  0.1056  0.0520 -0.0453
28573W        W35023   7.292   1.306  12.255  0.1789  0.1500 -0.0109
28574W        W35024   7.096   1.796  31.232  0.2665 -0.1866 -0.3585
28575W        W35025  23.163   0.607  12.291 -0.1963 -0.2425  0.3368
28576W        W35026   3.789   7.136  25.719 -0.0977  0.0079  0.1871
28577W        W35027  21.098   0.611   2.879 -0.1087  0.2285  0.3000
28578W        W35028  15.353   0.875  16.480 -0.0171 -0.1191  0.2185
28579W        W35029   2.307   4.108  29.131  0.1148 -0.1605  0.1962
28580W        W35030   6.644   3.891  29.122 -0.0155  0.0243  0.2737
28581W        W35031   7.936   2.783   7.729 -0.0747  0.0840 -0.1035
28582W        W35032   4.242   4.394  15.921  0.1175 -0.0091  0.4200
28583W        W35033  22.056   2.538  21.013 -0.2181 -0.2902 -0.0266
28584W        W35034   6.280   3.205  13.065  0.0490  0.2718  0.0071
28585W        W35035   1.171   1.637   9.020  0.0747 -0.0458  0.1229
28586W        W35036   1.280   5.210  12.841  0.0703  0.0141 -0.3916
28587W        W35037  13.701   0.333  20.708  0.2735  0.1530  0.1356
28588W        W35038   1.306   6.603   3.640 -0.2312  0.0895  0.0086
28589W        W35039   5.929   3.538  23.193  0.2755  0.2009 -0.2284
28590W        W35040  19.159   0.430  21.758  0.0748  0.0254  0.3137
28591W        W35041  24.317   4.195   0.744  0.2921 -0.1461  0.2845
28592W        W35042  14.124   3.019  21.697 -0.0806 -0.1501  0.0268
28593W        W35043   5.922   0.031   4.466 -0.1144 -0.0016 -0.0301
28594W        W35044  15.362   2.240  30.924  0.2264  0.2844 -0.1470
28595W        W35045  22.300   5.147  29.142  0.1077  0.3531 -0.0812
28596W        W35046  16.249   3.787   7.106 -0.0856 -0.0488 -0.0978
28597W        W35047  20.499   3.449  31.250  0.6044  0.0984  0.2784
28598W        W35048  23.710   4.759  22.453 -0.0794 -0.0849 -0.0305
28599W        W35049   8.821   4.001   8.152  0.2615 -0.1908 -0.2012
28600W        W35050   9.966   0.520  22.741  0.1560 -0.0450 -0.0071
28601W        W35051  14.369   1.988  25.516  0.0786  0.0883 -0.1840
28602W        W35052  13.820   4.033  26.551 -0.2855 -0.0996 -0.3651
28603W        W35053  11.168   5.902  19.473 -0.1796 -0.2319 -0.2791
28604W        W35054  20.032   5.865   4.550  0.4530 -0.1716  0.0536
28605W        W35055   8.421   0.923   4.491 -0.0351 -0.3014 -0.2818
28606W        W35056  21.643   4.320  22.234  0.2116 -0.1777  0.0433
28607W        W35057   6.546   4.180   8.071  0.0175 -0.1076 -0.0942
28608W        W35058  10.627   4.364   2.006  0.0058  0.2197 -0.0733
28609W        W35059  17.832   2.052  20.712 -0.2464  0.0494  0.1504
28610W        W35060  12.667   6.332  26.166  0.0636 -0.3847 -0.0416
28611W        W35061   5.870   3.027  23.327 -0.0086 -0.2610  0.2011
28612W        W35062  24.857   6.377  31.234  0.1181 -0.2575  0.2187
28613W        W35063  15.768   7.449   6.024 -0.0697 -0.2035  0.2555
28614W        W35064  16.624   2.147   1.979 -0.0193  0.2308 -0.1316
28615W        W35065  19.031   1.076  17.038 -0.0898 -0.1017 -0.0701
28616W        W35066  21.381   7.417  11.297 -0.2033  0.2336 -0.0089
28617W        W35067  18.351   3.865  32.273 -0.2434  0.2450 -0.2323
28618W        W35068   7.278   0.192  15.351  0.2478 -0.1080 -0.1220
28619W        W35069  22.192   0.334   4.704 -0.0034 -0.1907  0.0551
28620W        W35070   8.429   5.522  15.583  0.0152  0.0511  0.1505
28621W        W35071  20.274   2.077  23.359 -0.2393  0.2128  0.1087
28622W        W35072   0.499   1.963  31.685  0.1763 -0.0869  0.1440
28623W        W35073   9.544   1.228   2.650 -0.0211 -0.2246  0.1611
28624W        W35074  24.770   5.029  25.232  0.0186  0.2174 -0.1113
28625W        W35075  17.816   7.340   1.910 -0.1065  0.1799 -0.0102
28626W        W35076  12.066   7.218   5.074 -0.1261  0.0744 -0.1186
28627W        W35077  20.794   2.670  24.634  0.1457 -0.1290  0.2056
28628W        W35078  10.837   6.812  23.479 -0.1014  0.0468 -0.1628
28629W        W35079   1.450   0.932  23.737  0.0526 -0.0654 -0.0932
28630W        W35080   9.375   4.547   3.258 -0.1202 -0.3905  0.0458
28631W        W35081  12.820   1.841  25.456  0.0929  0.0499  0.1263
28632W        W35082  20.710   3.096  10.253  0.2756  0.0523  0.0364
28633W        W35083  24.312   1.931  11.705  0.1948  0.1396 -0.0413
28634W        W35084  17.754   3.892  22.988 -0.0752 -0.1701 -0.0147
28635W        W35085  18.707   1.249  26.336  0.2798  0.2717  0.0844
28636W        W35086   0.610   6.000  14.275  0.1099 -0.1171  0.1679
28637W        W35087  13.586   6.743  29.516 -0.3452  0.1653 -0.2989
28638W        W35088   0.531   7.045   3.162 -0.2472  0.1108  0.0158
28639W        W35089  16.015   3.603  17.694  0.1063  0.0097 -0.3576
28640W        W35090   4.258   5.010   8.372 -0.1673  0.3945 -0.2316
28641W        W35091  20.571   5.513  29.469  0.1033  0.0529  0.1007
28642W        W35092  14.265   1.591  21.779  0.0925 -0.0419  0.0889
28643W        W35093   1.165   7.182  11.043  0.1302 -0.2099 -0.0115
28644W        W35094  17.076   7.113  18.521  0.0807  0.1827  0.0013
28645W        W35095   2.743   0.371   3.170 -0.4390 -0.0399  0.0470
28646W        W35096  21.784   1.974  30.868  0.1146  0.1608 -0.1415
28647W        W35097   1.546   5.721  12.867  0.0737  0.0256 -0.2149
28648W        W35098  10.838   1.268  24.411  0.3088  0.2145  0.0447
28649W        W35099   7.437   1.917  23.507  0.2984 -0.0712  0.0992
28650W        W35100   2.780   3.050  24.973 -0.1935  0.1229  0.1160
28651W        W35101  11.269   2.540  22.669 -0.0368 -0.2187  0.0493
28652W        W35102  11.200   3.975  32.810  0.1687 -0.0155 -0.4050
28653W        W35103  22.570   1.510   3.909 -0.3827 -0.1938 -0.0835
28654W        W35104  12.928   2.091  16.604 -0.0790 -0.0436 -0.0290
28655W        W35105  15.595   2.932   5.360  0.2086  0.0867  0.1991
28656W        W35106  12.564   0.557  27.661  0.1901  0.0596 -0.0036
28657W        W35107  11.352   6.099  28.538 -0.0179  0.0012 -0.3259
28658W        W35108  21.001   3.453   1.832 -0.1158  0.1886  0.1579
28659W        W35109  14.743   1.703  21.712 -0.0121 -0.3024  0.1941
28660W        W35110   9.843   5.770  27.368 -0.1515 -0.0465  0.1250
28661W        W35111   1.084   5.057  13.380  0.3055  0.2071 -0.2015
28662W        W35112   4.408   6.467  18.025  0.0875  0.0592 -0.3816
28663W        W35113  23.161   2.853  23.876  0.2867 -0.1155 -0.1479
28664W        W35114   5.821   1.555   1.955 -0.1094  0.1229  0.1001
28665W        W35115   9.315   4.086  27.488 -0.1181  0.1430 -0.2412
28666W        W35116   9.450   2.520   2.658  0.0766 -0.0038 -0.0604
28667W        W35117  20.060   7.016   8.097  0.0509  0.3792 -0.2982
28668W        W35118  17.490   1.527  28.702  0.0761 -0.1432  0.3354
28669W        W35119  13.651   6.936   7.975 -0.2300  0.3379 -0.2372
28670W        W35120  16.737   4.968  29.241 -0.4305 -0.1946 -0.2123
28671W        W35121  10.197   6.723  11.562  0.0020  0.0025  0.0191
28672W        W35122  17.460   0.627  22.932 -0.0675  0.0202  0.1409
28673W        W35123  16.254   5.140   6.818 -0.3276 -0.0210 -0.1076
28674W        W35124   8.116   1.667  24.127 -0.0289 -0.0846  0.0432
28675W        W35125   9.448   5.297  32.050 -0.0787 -0.0998 -0.0125
28676W        W35126   6.204   2.501  27.406  0.1531  0.1097 -0.2192
28677W        W35127  19.348   6.779  26.599 -0.1859  0.0464  0.0336
28678W        W35128   4.401   6.776  25.537 -0.1002 -0.0845  0.1236
28679W        W35129  13.977   4.430  26.834  0.1410  0.0319 -0.1455
28680W        W35130  23.945   2.650  26.478  0.2733  0.0085  0.2790
28681W        W35131   5.280   1.947   4.731  0.0573  0.1731  0.1054
28682W        W35132   1.603   4.925   8.761  0.1740 -0.0304  0.1025
28683W        W35133  11.231   7.223   9.877 -0.0329  0.2370 -0.1085
28684W        W35134  10.154   5.416  24.735 -0.0198 -0.1368 -0.2013
28685W        W35135  13.101   4.248   5.401  0.1285  0.1989 -0.0133
28686W        W35136   5.948   2.433  29.218  0.1654 -0.0101 -0.1930
28687W        W35137  20.978   0.707  25.702 -0.1268 -0.2614  0.2762
28688W        W35138   6.883   6.294  29.315 -0.0710 -0.2631  0.4053
28689W        W35139   4.777   2.438   7.365  0.1042 -0.0368 -0.2086
28690W        W35140   4.984   1.659   5.526 -0.0525  0.3272 -0.1073
28691W        W35141  10.418   6.334   0.767 -0.1358  0.2989 -0.0156
28692W        W35142  14.773   1.409  16.853 -0.0416  0.0644 -0.0897
28693W        W35143  22.831   4.629  31.977 -0.4450 -0.0265 -0.0741
28694W        W35144  15.072   3.581  18.919  0.1229 -0.0914 -0.1744
28695W        W35145  23.085   6.550  24.788  0.0521 -0.3125  0.1741
28696W        W35146  21.873   2.566  18.061  0.5385  0.2929 -0.1539
28697W        W35147   4.179   0.311   8.085  0.0823  0.1205  0.0580
28698W        W35148  10.649   4.219   5.049 -0.0409 -0.0328 -0.0808
28699W        W35149  12.032   2.206   0.140  0.1119  0.1564 -0.2091
28700W        W35150   4.191   2.955  27.613  0.0033 -0.0445 -0.0834
28701W        W35151  14.714   5.980  29.576 -0.1673  0.1497 -0.1748
28702W        W35152  19.366   3.103  16.233 -0.0219 -0.0720 -0.0565
28703W        W35153   4.369   2.720  17.442 -0.3512  0.0821 -0.0272
28704W        W35154  12.423   1.947   8.675  0.1291 -0.0667 -0.0243
28705W        W35155  14.024   3.757  24.004 -0.0127 -0.1486  0.2276
28706W        W35156  15.059   6.606  21.430 -0.0814  0.2121  0.1833
28707W        W35157  15.031   2.826  27.129 -0.1001 -0.0737 -0.0577
28708W        W35158  16.197   6.639   8.956 -0.0533  0.0116 -0.1595
28709W        W35159  24.388   1.931   5.163  0.2262  0.0730 -0.1514
28710W        W35160   9.225   0.422  12.671  0.1146 -0.1768 -0.0243
28711W        W35161  24.379   7.628   7.087  0.0551  0.0263 -0.1672
28712W        W35162   1.711   5.587  26.695  0.2332 -0.1905 -0.0278
28713W        W35163  10.213   1.782  32.958 -0.2117  0.0015  0.0379
28714W        W35164  22.618   3.976  24.628  0.1273 -0.0584 -0.3498
28715W        W35165  13.185   0.264  24.563 -0.0447  0.3496  0.0096
28716W        W35166  24.563   3.662  13.278  0.1884 -0.0790  0.2989
28717W        W35167  15.766   4.552   7.337  0.0546  0.2165 -0.1234
28718W        W35168  14.582   5.668   5.134 -0.1067  0.1760  0.0810
28719W        W35169  14.037   1.246  26.998 -0.1203 -0.2116 -0.0439
28720W        W35170  19.199   3.971  16.889 -0.2540  0.1497  0.1790
28721W        W35171   2.026   1.703   1.735  0.0290 -0.1263  0.4327
28722W        W35172   0.838   2.231  30.227 -0.0886 -0.1631  0.0762
28723W        W35173   8.126   4.438  25.376  0.2480  0.1558  0.1061
28724W        W35174  21.617   5.093  28.691  0.1087 -0.0043  0.0251
28725W        W35175  15.102   3.839  28.169  0.3040  0.0495  0.1264
28726W        W35176  14.415   1.352  27.300  0.1858  0.1268 -0.3592
28727W        W35177   4.031   5.046   7.445 -0.2347  0.2245 -0.0167
28728W        W35178   2.172   2.191   2.419  0.1269  0.3228  0.4594
28729W        W35179   7.618   3.661  26.616 -0.0567  0.2454  0.0871
28730W        W35180   6.132   7.141  25.126  0.0702 -0.0927 -0.2300
28731W        W35181   0.024   6.944  32.890  0.0349 -0.0016 -0.2518
28732W        W35182  14.194   0.430   9.135 -0.0785  0.2103  0.1787
28733W        W35183  12.710   5.134   5.629  0.0420 -0.1183  0.0161
28734W        W35184   5.011   3.830  30.905 -0.0572 -0.0122  0.0360
28735W        W35185   5.810   1.019   4.809 -0.1314 -0.1250 -0.1235
28736W        W35186  11.361   0.040   7.256 -0.0880  0.2653 -0.3857
28737W        W35187  24.311   0.488  23.033  0.0452  0.2369 -0.0873
28738W        W35188  13.771   1.368  19.983 -0.1524 -0.1281 -0.1455
28739W        W35189  20.098   4.699   0.870  0.1815  0.0240 -0.0511
28740W        W35190  20.489   7.540   6.456  0.1006 -0.0675 -0.0120
28741W        W35191  13.669   1.851  19.905 -0.2669 -0.0408  0.0016
28742W        W35192   2.374   3.635   2.087  0.0512 -0.1069 -0.1918
28743W        W35193  12.875   3.469   6.298 -0.0694  0.0204 -0.0916
28744W        W35194  11.802   4.555  18.702  0.0884  0.1446 -0.1202
28745W        W35195  13.988   1.540   7.912 -0.0925 -0.1803  0.1247
28746W        W35196   0.408   6.422   5.653  0.0928 -0.0409  0.2806
28747W        W35197  13.670   1.396  25.198  0.0381 -0.5640 -0.0206
28748W        W35198  22.379   6.998   9.056 -0.1562  0.3894  0.2354
28749W        W35199   4.151   4.033  14.226  0.0544 -0.1442  0.2896
28750W        W35200  13.027   1.251  29.129  0.2114  0.0061  0.1849
28751W        W35201  22.358   2.539  30.980  0.2257 -0.0532  0.4096
28752W        W35202  12.744   0.798  23.000  0.1609 -0.0598 -0.1377
28753W        W35203  15.726   2.955  20.926  0.0833  0.0055  0.0217
28754W        W35204   9.574   6.263  21.682 -0.0799 -0.0708  0.0338
28755W        W35205  22.157   0.378  10.762 -0.1749 -0.1494  0.1508
28756W        W35206   9.907   6.311  11.544  0.1302 -0.1385 -0.0854
28757W        W35207  16.346   5.262  21.142 -0.1823 -0.1841 -0.1570
28758W        W35208  11.282   2.906  11.641  0.2041 -0.0690  0.1201
28759W        W35209   4.132   3.955  12.442 -0.1869  0.0666 -0.1690
28760W        W35210  17.562   5.265  23.937  0.0839 -0.0869 -0.1222
28761W        W35211  21.975   0.860  28.357  0.2808  0.1858  0.0929
28762W        W35212   3.638   5.379   7.451  0.1834 -0.0754  0.1107
28763W        W35213  22.160   6.368  19.852  0.0576 -0.1648  0.0406
28764W        W35214  21.853   3.625   3.930  0.1008 -0.0798  0.1176
28765W        W35215   3.404   0.173   0.478  0.1583  0.2521 -0.1360
28766W        W35216  15.238   5.334  15.760  0.1068 -0.1602  0.2761
28767W        W35217   9.791   6.797  27.917  0.0193  0.1501  0.0157
28768W        W35218   3.665   4.805  23.475 -0.0279  0.1989 -0.0621
28769W        W35219   2.517   2.502   7.305 -0.0287  0.0263 -0.1844
28770W        W35220  12.421   6.201   3.735 -0.1155 -0.0842 -0.1412
28771W        W35221  10.100   2.400   6.647  0.2078 -0.1661 -0.2234
28772W        W35222  14.191   5.464  28.323  0.2862  0.4591 -0.0406
28773W        W35223  18.774   0.514  25.204  0.0186 -0.0967 -0.2700
28774W        W35224  17.280   1.663   4.058 -0.2019  0.2534  0.1546
28775W        W35225  16.852   5.946   6.020  0.4067 -0.2129 -0.1310
28776W        W35226  15.846   7.539   8.898 -0.0647  0.0603 -0.1173
28777W        W35227  15.570   2.339   2.420  0.0076 -0.4163 -0.0543
28778W        W35228  24.114   5.919   4.510  0.1243  0.2221  0.3226
28779W        W35229  15.220   0.312  32.777 -0.1825 -0.0513 -0.1228
28780W        W35230  21.675   1.157  21.671  0.1604 -0.0059 -0.0387
28781W        W35231   7.808   6.847  28.763  0.2303  0.1314 -0.0843
28782W        W35232  18.671   4.787  16.515  0.3709 -0.1627 -0.2148
28783W        W35233  10.995   6.473   6.002  0.3875 -0.0600  0.1627
28784W        W35234  20.196   3.099   1.675  0.0731  0.0612 -0.1506
28785W        W35235  15.743   1.498  29.893  0.0191  0.0738 -0.1657
28786W        W35236  19.498   6.642   9.818  0.0683 -0.1222  0.0652
28787W        W35237  10.309   3.641  29.933 -0.0881  0.0520  0.0567
28788W        W35238   8.590   7.597   8.192 -0.4590 -0.1903  0.1253
28789W        W35239  17.451   3.728  25.080  0.4049 -0.0644 -0.2047
28790W        W35240  13.630   2.437  20.293  0.2242 -0.1483 -0.0633
28791W        W35241   7.022   0.311   6.280 -0.5924 -0.2705  0.2428
28792W        W35242   1.097   5.051   2.000  0.0093 -0.0127  0.2522
28793W        W35243  20.697   0.311  21.988  0.0998 -0.1377 -0.3423
28794W        W35244   1.254   4.953  30.093  0.4628  0.1548  0.0535
28795W        W35245  11.706   7.742  22.974 -0.1345 -0.0168  0.2320
28796W        W35246  22.548   7.035  28.416  0.1295  0.0766 -0.2224
28797W        W35247  21.151   1.053   5.315  0.1806  0.0135 -0.3874
28798W        W35248  15.154   6.440  29.680  0.1710 -0.0929 -0.1367
28799W        W35249  10.806   5.057  27.282  0.1863 -0.0185 -0.1249
28800W        W35250   5.822   6.692  16.255  0.0887 -0.0834  0.1131
28801W        W35251  11.768   3.684   2.635 -0.0698  0.0502 -0.0011
28802W        W35252  10.196   2.087  11.258 -0.0054  0.1268  0.1217
28803W        W35253  11.991   3.952  28.553 -0.4572  0.2097 -0.0283
28804W        W35254  24.235   5.690  22.544  0.2542  0.1840  0.0163
28805W        W35255  24.242   1.717   4.355  0.1012  0.0900 -0.0298
28806W        W35256  22.603   5.357  11.078  0.1103 -0.0064  0.0158
28807W        W35257  13.980   1.378  21.372 -0.1362 -0.1327  0.1368
28808W        W35258   1.516   2.786   5.261 -0.0637  0.1516  0.0578
28809W        W35259  20.032   3.149   7.055  0.1431 -0.0329 -0.3468
28810W        W35260  14.393   7.186  19.271 -0.1655  0.0802  0.1196
28811W        W35261  20.795   5.327   2.078 -0.1337  0.3336 -0.2591
28812W        W35262  24.204   3.918  28.873 -0.1820 -0.3973 -0.1669
28813W        W35263  10.896   4.442  27.056  0.0531 -0.0616  0.0792
28814W        W35264  11.646   3.178  25.373  0.3513  0.3298  0.2336
28815W        W35265   8.717   1.740  30.067  0.1148  0.1432 -0.0089
28816W        W35266   6.545   7.525   1.519  0.0614  0.1275 -0.1849
28817W        W35267  21.946   6.485  21.509  0.2708  0.0718  0.0371
28818W        W35268   1.546   0.625   3.494 -0.0497 -0.2596 -0.3660
28819W        W35269  22.923   2.513  10.618  0.3496  0.2173  0.2051
28820W        W35270   0.452   7.622   4.506  0.0839 -0.1690 -0.1813
28821W        W35271  21.593   3.254   6.905  0.0414 -0.0822  0.0148
28822W        W35272  17.535   7.374  30.464 -0.1138 -0.0110  0.0555
28823W        W35273   1.486   4.224   5.467  0.2685 -0.3564  0.0197
28824W        W35274  19.348   7.788  22.439 -0.0516 -0.0590  0.1899
28825W        W35275  22.959   3.280  29.483 -0.5347  0.1278 -0.1066
28826W        W35276  16.331   1.331   1.612 -0.2156  0.0789 -0.0121
28827W        W35277  22.095   6.223  26.388 -0.3574 -0.3128 -0.3069
28828W        W35278  21.814   6.662  12.667 -0.2593  0.0384 -0.0093
28829W        W35279  11.128   5.071  28.824 -0.0401 -0.0935 -0.0747
28830W        W35280   9.368   6.269   9.434 -0.1277 -0.3097  0.0076
28831W        W35281  10.550   0.392  29.279  0.0604 -0.2177 -0.0963
28832W        W35282  10.983   2.963   7.108 -0.0085  0.0113  0.3131
28833W        W35283   2.672   0.524  23.962 -0.1934 -0.1324 -0.0817
28834W        W35284   1.106   7.027   3.356  0.1446  0.3113 -0.5452
28835W        W35285   7.482   4.883   4.446 -0.3325 -0.0411  0.0880
28836W        W35286  24.095   0.604  23.478 -0.0690 -0.0094 -0.0276
28837W        W35287   4.766   6.480  29.067 -0.1539  0.2475  0.0077
28838W        W35288   2.831   2.703  14.741 -0.0218 -0.2135  0.2738
28839W        W35289   7.431   6.569  10.553  0.2148  0.0314 -0.2474
28840W        W35290   9.764   5.780   2.299 -0.3825 -0.0513  0.2716
28841W        W35291  14.218   4.571  16.909 -0.0403 -0.0106 -0.1788
28842W        W35292   8.497   3.350   9.016  0.2307  0.1115  0.0412
28843W        W35293   8.751   6.900  24.459 -0.1241 -0.1486  0.1255
28844W        W35294   3.960   6.394  28.639 -0.1670 -0.0758  0.1245
28845W        W35295  15.868   5.222   2.286 -0.1052 -0.0934 -0.0813
28846W        W35296  13.513   2.068  24.664  0.2364 -0.1306 -0.1373
28847W        W35297  19.632   0.056  20.200  0.0782  0.1560  0.0683
28848W        W35298  24.225   6.150  23.254 -0.0134 -0.1511 -0.0949
28849W        W35299   5.004   3.489   0.956  0.2413  0.0190  0.1275
28850W        W35300  21.877   2.766  24.853 -0.0583  0.0598  0.0499
28851W        W35301  10.249   3.645  10.883  0.3748 -0.1375 -0.1016
28852W        W35302  15.107   5.059  23.781  0.0919  0.1177 -0.2942
28853W        W35303  19.384   1.019   1.985 -0.1633 -0.2501 -0.0749
28854W        W35304   3.347   3.095   3.248  0.1406 -0.1646 -0.0960
28855W        W35305  18.124   6.490   7.437  0.0962  0.2047 -0.1944
28856W        W35306  20.819   5.125  26.849 -0.1002  0.0306 -0.1931
28857W        W35307  15.052   7.079   3.993  0.2089  0.1393  0.1083
28858W        W35308  23.894   6.342  28.448  0.0347  0.0602 -0.1445
28859W        W35309   3.273   3.192  30.953 -0.0232  0.0134  0.1187
28860W        W35310   5.840   1.125  24.977  0.1362 -0.1428 -0.5807
28861W        W35311  17.955   2.661  18.422  0.1035  0.0127  0.0330
28862W        W35312  17.660   6.194   9.306 -0.4844 -0.0211  0.0671
28863W        W35313  22.872   5.155  10.649  0.3720  0.0643 -0.0836
28864W        W35314   2.655   0.422   3.731  0.1766 -0.1389  0.1390
28865W        W35315  11.220   6.080  23.551  0.0848  0.0386 -0.2952
28866W        W35316  20.214   6.230  23.794 -0.2316  0.1042 -0.2497
28867W        W35317  11.992   5.436  28.277  0.0150  0.3056  0.0244
28868W        W35318  20.748   1.260  25.877  0.2023  0.1336 -0.1129
28869W        W35319   6.563   5.075  13.023  0.0072 -0.0008 -0.0431
28870W        W35320  11.669   2.420  20.024  0.3756  0.1353  0.0868
28871W        W35321  10.523   7.189   0.618  0.0410 -0.1695  0.0958
28872W        W35322  24.201   5.107  23.701  0.1423 -0.2559 -0.2047
28873W        W35323  15.435   4.086  21.297 -0.2103 -0.2013 -0.0634
28874W        W35324  21.641   2.989  24.456  0.3065  0.1021 -0.0913
28875W        W35325  18.651   2.210   9.849 -0.0402  0.1942  0.1887
28876W        W35326   5.556   5.899   7.970  0.1147  0.2958 -0.2144
28877W        W35327  17.024   6.220  23.183 -0.2447 -0.3020  0.0120
28878W        W35328  14.836   4.269  18.406  0.1398  0.1883 -0.0412
28879W        W35329  12.126   6.031   4.182  0.1370 -0.1099 -0.0810
28880W        W35330  23.796   3.106   1.430 -0.3777  0.0473  0.0426
28881W        W35331  18.573   7.130  23.477  0.2869 -0.0213  0.1200
28882W        W35332   4.448   3.146   1.668 -0.1814 -0.1477  0.0270
28883W        W35333   4.503   1.719  30.598  0.3299  0.1816 -0.0924
28884W        W35334   3.071   4.534  26.014 -0.1292 -0.1331 -0.1569
28885W        W35335   7.459   2.901   8.930  0.1227 -0.1409  0.2509
28886W        W35336   7.189   2.145  28.970  0.0057 -0.0116 -0.0924
28887W        W35337  23.853   7.505   2.319  0.1521  0.1462  0.1397
28888W        W35338  11.241   4.778  11.020 -0.0200 -0.1179  0.3041
28889W        W35339  14.488   0.062   5.394  0.2181 -0.0582  0.0548
28890W        W35340  13.209   1.326  29.643 -0.0962 -0.0297  0.0939
28891W        W35341  18.073   6.663  24.669 -0.0578  0.1410 -0.4369
28892W        W35342  18.688   6.963  21.052 -0.1496  0.0754 -0.1566
28893W        W35343   5.434   7.450  18.003  0.0020  0.1322  0.0379
28894W        W35344   8.095   1.248   4.390  0.2770 -0.1705 -0.0373
28895W        W35345  15.200   0.989  24.964  0.1749 -0.2891  0.0925
28896W        W35346   9.099   1.113  11.234 -0.1785 -0.0412 -0.1950
28897W        W35347  19.452   7.307   4.623  0.1143  0.0354  0.0880
28898W        W35348  12.780   4.896  28.741  0.0489  0.1086 -0.2637
28899W        W35349   3.693   5.368   6.184 -0.0792  0.1383 -0.2966
28900W        W35350  16.853   2.777   3.472  0.0899 -0.1133  0.2758
28901W        W35351   9.157   5.134   8.892  0.1630 -0.0695  0.1370
28902W        W35352   3.250   1.993  25.800 -0.0394 -0.0947 -0.1276
28903W        W35353   5.655   4.714  23.022 -0.0711 -0.1855  0.1575
28904W        W35354  16.481   5.248   8.376  0.1817 -0.0625  0.0422
28905W        W35355   6.297   7.482  32.299  0.0222  0.0649  0.0266
28906W        W35356   7.324   5.223  30.198 -0.2105  0.2365  0.2687
28907W        W35357  23.987   7.181  30.418 -0.0966  0.1928 -0.3182
28908W        W35358  18.458   0.028   9.679  0.0328 -0.0774 -0.4033
28909W        W35359  12.441   7.477  27.825  0.1963  0.1623  0.3065
28910W        W35360   7.093   6.506   9.710  0.0434 -0.0063 -0.1929
28911W        W35361  16.893   5.206  20.114 -0.1333 -0.2697  0.0121
28912W        W35362  22.436   0.743  22.683 -0.0854 -0.3332  0.0645
28913W        W35363   5.099   5.779   3.803 -0.0140 -0.0448 -0.2063
28914W        W35364  20.027   6.668  28.955 -0.1091 -0.0212 -0.3228
28915W        W35365   9.407   4.281  23.833 -0.2302 -0.0628  0.1660
28916W        W35366  23.501   6.252   6.304 -0.0287 -0.0073  0.1044
28917W        W35367   9.558   7.139  32.923  0.0271  0.0034 -0.1287
28918W        W35368   9.536   4.317  21.164  0.1487 -0.1179  0.0637
28919W        W35369  17.848   3.055  32.573  0.1168 -0.0298 -0.0751
28920W        W35370  11.340   6.433   6.359 -0.1389 -0.1704 -0.1120
28921W        W35371   4.549   3.238  30.268 -0.4012  0.2147  0.1678
28922W        W35372   6.117   4.326   5.326 -0.0168  0.1235 -0.5374
28923W        W35373   2.321   5.556  29.183  0.1002  0.2667 -0.0834
28924W        W35374   5.521   1.571  28.110 -0.0048 -0.0193  0.2472
28925W        W35375  22.149   7.767  22.568 -0.1324 -0.2419 -0.0119
28926W        W35376   7.156   1.002   7.321  0.1597  0.0880 -0.1037
28927W        W35377  17.227   7.121  10.162  0.1343  0.1746 -0.3555
28928W        W35378   9.237   6.335   1.966  0.1616  0.1024  0.0612
28929W        W35379  22.561   3.602  29.365  0.2866  0.0066  0.1281
28930W        W35380  19.950   2.581  17.639 -0.0277 -0.0421 -0.4141
28931W        W35381  22.285   6.864  30.670 -0.1579  0.3652  0.0758
28932W        W35382  19.458   6.015   4.002 -0.1892 -0.1022  0.1800
28933W        W35383  14.705   5.785  23.964 -0.2628 -0.4840 -0.0409
28934W        W35384   3.907   4.959  25.904  0.1120 -0.2597  0.1997
28935W        W35385  18.948   0.895   0.312  0.0926 -0.3154  0.3302
28936W        W35386   0.961   0.005  28.673  0.4042  0.4848 -0.0757
28937W        W35387  23.570   6.932  24.277  0.3020 -0.0505 -0.0185
28938W        W35388  10.926   2.011  23.753  0.0787 -0.1738 -0.1599
28939W        W35389  23.928   7.125  24.574  0.2042  0.2176 -0.1347
28940W        W35390  16.932   0.688  27.977  0.0950 -0.4659  0.0029
28941W        W35391   7.259   5.627  11.709  0.0462  0.3222  0.1627
28942W        W35392  12.746   7.266   0.538 -0.0899  0.1162 -0.1220
28943W        W35393  21.727   7.691  31.494 -0.1667  0.3243  0.0729
28944W        W35394   1.255   1.727   8.508 -0.0631  0.0430  0.1953
28945W        W35395   5.041   0.965   8.090  0.1466 -0.0130 -0.1197
28946W        W35396  21.027   1.540  32.468  0.2786 -0.2369  0.2354
28947W        W35397  20.795   6.505  19.313 -0.4098  0.0898 -0.1268
28948W        W35398  13.386   4.877  24.986  0.1267 -0.2000  0.0070
28949W        W35399  19.494   1.020  25.973  0.1417 -0.1122 -0.0302
28950W        W35400   9.991   5.353   4.488  0.0079  0.1282  0.1143
28951W        W35401   7.002   4.752  22.665 -0.4416 -0.0163 -0.1568
28952W        W35402   7.792   4.666  25.743  0.1502 -0.2151 -0.0862
28953W        W35403  21.004   1.276   5.755 -0.1809  0.3408  0.1933
28954W        W35404  19.552   6.078   8.594  0.2163 -0.2464 -0.0469
28955W        W35405  11.258   7.007  21.818 -0.2594 -0.0431  0.2543
28956W        W35406  10.174   1.675  23.488 -0.1183  0.0287 -0.2367
28957W        W35407   3.945   0.522  15.725  0.1561  0.0611  0.2654
28958W        W35408   3.210   5.102  12.432  0.2344 -0.0978  0.1882
28959W        W35409  22.360   2.400   4.259  0.0519 -0.0964  0.1972
28960W        W35410  17.901   5.553  29.202  0.0766  0.5100  0.2994
28961W        W35411   4.832   2.248  16.463  0.0424 -0.0974  0.1357
28962W        W35412  19.170   4.716  21.738  0.2299  0.1200  0.0183
28963W        W35413  23.013   2.531   0.023 -0.1373 -0.1220 -0.0242
28964W        W35414  22.193   2.309   5.348  0.0458 -0.0149  0.0257
28965W        W35415  18.488   2.697  20.755 -0.1981 -0.0560  0.0190
28966W        W35416   6.269   5.701  29.361 -0.2939 -0.1894  0.1846
28967W        W35417   4.192   2.234  14.666  0.2383 -0.3050  0.0039
28968W        W35418   2.326   1.761   3.455 -0.0057 -0.0231 -0.1167
28969W        W35419  13.920   1.136   1.823  0.3052 -0.2134  0.2267
28970W        W35420   0.628   7.276  29.220  0.1419  0.2953 -0.3022
28971W        W35421  17.744   4.577  30.358  0.0804 -0.1314  0.1737
28972W        W35422  20.504   4.740   8.619  0.0197 -0.2051  0.5814
28973W        W35423   1.829   4.960   7.305 -0.4091 -0.2739 -0.1816
28974W        W35424   6.059   4.876  11.415 -0.3604  0.3027 -0.0338
28975W        W35425   9.527   7.664  31.411  0.0010  0.1639 -0.1202
28976W        W35426   8.045   6.108  30.018  0.3813  0.0921 -0.0004
28977W        W35427  12.449   3.142  29.268 -0.0494 -0.1180 -0.1089
28978W        W35428   0.891   5.986   8.460  0.0765 -0.0356  0.2601
28979W        W35429  14.954   7.493   6.779 -0.1213 -0.0925  0.0034
28980W        W35430  11.600   6.293  27.180 -0.2687  0.1497  0.0679
28981W        W35431  21.123   5.821   2.696  0.2387 -0.1723 -0.1450
28982W        W35432   6.189   3.663   2.896 -0.0069 -0.0413  0.0765
28983W        W35433   4.464   3.011  18.409  0.1159  0.2976  0.1932
28984W        W35434  18.294   4.083  25.516 -0.0692 -0.1349 -0.0821
28985W        W35435  19.032   1.952  27.886  0.0076 -0.1980 -0.1985
28986W        W35436  18.216   1.901  30.035  0.1381  0.0589 -0.4423
28987W        W35437  10.151   7.457  27.057  0.0049 -0.0124 -0.0847
28988W        W35438   3.114   1.100   3.511 -0.1332 -0.0221 -0.2126
28989W        W35439   9.970   1.545  19.845  0.1623 -0.1375 -0.1183
28990W        W35440   8.596   4.878  23.031 -0.0574 -0.0807  0.0914
28991W        W35441  24.124   2.896  30.483  0.2132  0.0283  0.1185
28992W        W35442   2.730   6.385   3.206 -0.2837  0.1182 -0.2389
28993W        W35443  11.819   4.013  29.037 -0.0338  0.3141 -0.1153
28994W        W35444   9.630   0.763  30.310  0.3024  0.1571  0.0279
28995W        W35445   3.366   5.437   2.849  0.1911  0.4060  0.3378
28996W        W35446  22.969   0.869   2.791  0.2955 -0.0557  0.2405
28997W        W35447  15.792   3.804   7.451 -0.3321 -0.3558 -0.6725
28998W        W35448   8.035   4.941   3.412 -0.1560 -0.2165  0.0968
28999W        W35449  12.433   1.813  18.149  0.0512  0.0894  0.0555
29000W        W35450   1.830   6.621  32.021  0.0086 -0.0026  0.1439
29001W        W35451   3.346   2.798  13.086  0.1151  0.3868  0.0806
29002W        W35452   3.513   0.615  29.387  0.0221 -0.0277 -0.0341
29003W        W35453  20.838   3.875  26.191 -0.2422 -0.0787 -0.2575
29004W        W35454  17.295   6.536   0.440  0.0998 -0.2051 -0.0388
29005W        W35455   6.523   4.872  22.884  0.1126 -0.1588 -0.0728
29006W        W35456  22.262   3.865  20.885  0.0440  0.0110  0.2904
29007W        W35457   5.488   3.408  15.183 -0.0666  0.0540  0.1343
29008W        W35458   7.607   2.757  32.476  0.2603 -0.0797  0.1824
29009W        W35459  21.948   6.647  20.234  0.1862  0.2240  0.0481
29010W        W35460  11.573   4.119  10.903 -0.0256  0.0554 -0.2302
29011W        W35461  11.460   3.198  26.808 -0.0749 -0.1558  0.1272
29012W        W35462   7.244   2.477   0.201 -0.1619  0.1973  0.1406
29013W        W35463  24.466   0.957   0.977  0.0507  0.0590  0.0668
29014W        W35464   4.092   3.531  12.151  0.1840 -0.0691 -0.1785
29015W        W35465   3.107   4.710  27.459 -0.0517 -0.0863  0.0563
29016W        W35466   6.298   5.139  28.046 -0.3214  0.1843 -0.2440
29017W        W35467   4.079   0.377   5.797 -0.3732 -0.1345  0.2752
29018W        W35468  14.935   2.217  31.308  0.0498  0.0022 -0.0018
29019W        W35469  13.956   2.951   3.697  0.0083  0.0797 -0.0512
29020W        W35470  11.046   2.280   0.683 -0.5899  0.1281 -0.0164
29021W        W35471  10.165   6.386   7.268  0.1162  0.0829 -0.0450
29022W        W35472  22.820   1.930  21.088  0.0162  0.3804 -0.1330
29023W        W35473   8.345   4.185   0.917  0.0698  0.0777  0.1719
29024W        W35474   5.991   7.245   6.266 -0.0723  0.0786  0.1807
29025W        W35475   6.010   1.325   8.092  0.4747  0.0619  0.1682
29026W        W35476  18.885   0.609   7.383 -0.0620  0.1230  0.2133
29027W        W35477   5.904   1.192  28.045  0.1371  0.1771  0.1488
29028W        W35478   2.639   1.636  25.001  0.3474 -0.0808  0.1426
29029W        W35479   2.155   2.269  14.403 -0.1127 -0.3055  0.1601
29030W        W35480  14.811   4.125   3.272  0.0976 -0.1469  0.0115
29031W        W35481  22.642   1.924  23.291  0.1710 -0.0437 -0.0952
29032W        W35482  11.292   5.215  31.722 -0.1630  0.1450  0.0203
29033W        W35483  24.059   5.368  30.733 -0.1452  0.2855  0.2900
29034W        W35484   1.523   3.961  28.873 -0.1019 -0.0191  0.2832
29035W        W35485  22.303   1.747   1.993  0.1734  0.1028  0.1626
29036W        W35486   1.107   6.529  10.918  0.0024 -0.2008 -0.1929
29037W        W35487   6.491   2.721  24.899  0.1033 -0.1101  0.2645
29038W        W35488  18.817   4.994  19.059 -0.0394 -0.0006 -0.0609
29039W        W35489  22.815   3.791  10.600  0.2109 -0.4066 -0.0280
29040W        W35490   8.506   3.561   4.044 -0.0225  0.1121  0.1121
29041W        W35491  19.510   5.812   7.776  0.0863  0.1663 -0.1577
29042W        W35492  22.624   3.851  20.115 -0.2999 -0.0775  0.0579
29043W        W35493  16.662   2.417  20.678 -0.0558  0.1442 -0.1331
29044W        W35494   3.954   0.170   9.439  0.1296  0.0374 -0.1479
29045W        W35495  24.902   7.186  29.774  0.1429 -0.2806 -0.0605
29046W        W35496   9.181   4.136  32.005  0.0922 -0.0484  0.2087
29047W        W35497  10.076   2.695  11.756  0.0143  0.1064  0.2641
29048W        W35498  13.922   4.701   5.730 -0.0938  0.0518  0.0072
29049W        W35499  12.231   0.280   8.569  0.1705 -0.0777  0.0854
29050W        W35500  17.139   4.320  24.034  0.1095  0.2136 -0.4610
29051W        W35501  16.061   7.114  27.097  0.1186  0.1669  0.3362
29052W        W35502  15.865   7.181  14.695 -0.3958  0.1565 -0.0764
29053W        W35503  16.218   2.620  23.159  0.0790 -0.1214  0.0046
29054W        W35504   8.905   2.507  21.227  0.0714  0.2309  0.0356
29055W        W35505  10.787   3.424  27.901  0.0954  0.2342  0.0473
29056W        W35506  10.306   6.875  28.357  0.2526 -0.1785 -0.0382
29057W        W35507   8.361   6.960   8.742 -0.0898 -0.2203 -0.0609
29058W        W35508  24.316   3.282   0.630 -0.0505  0.1819 -0.0542
29059W        W35509  19.603   5.377  20.122  0.0944 -0.0171  0.1631
29060W        W35510  13.909   4.225  32.812 -0.2435 -0.0797 -0.0436
29061W        W35511   3.385   6.789   9.146  0.3305  0.0435 -0.2325
29062W        W35512  11.328   3.459   4.008  0.3458 -0.0190  0.1584
29063W        W35513  14.561   6.502  30.949  0.1631 -0.1789  0.0041
29064W        W35514  14.961   4.863  28.716  0.3025  0.2695 -0.3157
29065W        W35515  21.056   3.882   9.732  0.1226 -0.1624 -0.0675
29066W        W35516  10.187   6.986  31.737 -0.0206  0.0534 -0.0470
29067W        W35517   8.128   3.764  11.419 -0.1106  0.0090 -0.2113
29068W        W35518  21.129   0.285  27.790  0.0990 -0.0388  0.0280
29069W        W35519  14.368   3.628  19.544  0.0236  0.1284 -0.0129
29070W        W35520   1.525   1.163  11.619  0.0485 -0.2504  0.3180
29071W        W35521   9.661   1.203   6.460  0.1828 -0.0945 -0.2373
29072W        W35522  11.391   3.969  25.455 -0.0716  0.2080 -0.1164
29073W        W35523   5.306   3.449   9.351 -0.0438 -0.1782 -0.3725
29074W        W35524  12.552   5.840   2.176  0.4024 -0.0209  0.1253
29075W        W35525  16.558   0.153  15.104  0.1727 -0.2961 -0.1300
29076W        W35526  14.239   4.589  22.874  0.1437 -0.3747 -0.0122
29077W        W35527  20.606   6.505   4.992  0.0067  0.3120  0.0385
29078W        W35528   0.798   2.873  30.238 -0.1443 -0.0401  0.1960
29079W        W35529  24.760   4.396  11.428  0.0533 -0.2617  0.3128
29080W        W35530  13.887   0.277   1.725 -0.2759 -0.1395  0.0109
29081W        W35531  14.802   7.174   5.160 -0.2016  0.1104  0.2323
29082W        W35532  14.991   0.593  28.461  0.7055  0.2723  0.1944
29083W        W35533  24.034   6.960  31.323  0.0384  0.2192  0.0094
29084W        W35534  15.924   6.606  20.813  0.2084 -0.0688  0.0571
29085W        W35535   3.474   4.726  12.795 -0.0991 -0.0820 -0.2114
29086W        W35536   2.760   6.192  12.114  0.0739  0.2010 -0.3504
29087W        W35537  23.063   6.344  28.042 -0.3324  0.1393 -0.0523
29088W        W35538  10.109   0.421   5.627 -0.1255  0.1612  0.0031
29089W        W35539  21.800   2.608  24.003  0.0757 -0.0934  0.3521
29090W        W35540  15.288   4.135  30.574 -0.1075  0.1708 -0.1980
29091W        W35541  19.616   6.998  22.032  0.2471  0.0339 -0.0153
29092W        W35542  15.489   1.887  20.081 -0.2254  0.1490  0.1896
29093W        W35543  13.552   0.153  32.516 -0.1038  0.0978  0.3234
29094W        W35544  23.801   7.339   3.945 -0.2263  0.2674  0.1656
29095W        W35545  13.653   5.578  28.255  0.0712  0.0180 -0.0345
29096W        W35546   0.295   2.996   9.037  0.0419 -0.5144  0.0876
29097W        W35547  11.289   0.017   5.013  0.0371 -0.0479 -0.1883
29098W        W35548   5.465   6.301  14.631 -0.0699  0.1462  0.0335
29099W        W35549   4.994   4.358   7.473  0.0653 -0.1215  0.1007
29100W        W35550  20.096   0.686  27.278  0.1442  0.0798 -0.0488
29101W        W35551   8.759   3.251  29.834  0.1455 -0.1833 -0.0781
29102W        W35552   0.850   1.507  10.474  0.1039  0.1367  0.0214
29103W        W35553   0.274   6.922  29.513  0.0466 -0.1881  0.2839
29104W        W35554   9.599   1.160   3.996 -0.3408 -0.1592  0.0406
29105W        W35555  14.375   6.347   6.096  0.1218 -0.2151 -0.1515
29106W        W35556  19.809   2.756   1.458 -0.1762  0.4129  0.1264
29107W        W35557  17.943   0.166   2.531 -0.0557  0.0790 -0.2796
29108W        W35558   9.681   1.359  32.318  0.1270  0.2467 -0.6775
29109W        W35559   4.591   2.018  11.039 -0.0273 -0.1544  0.1503
29110W        W35560   4.191   1.796   7.431  0.2218 -0.3526  0.0642
29111W        W35561  15.818   2.422  18.599 -0.1107 -0.2064 -0.0763
29112W        W35562  15.433   5.711  18.424  0.0990  0.2262  0.0015
29113W        W35563   6.176   4.285  12.156  0.1502  0.1597  0.1120
29114W        W35564  21.782   6.914  32.264  0.0273  0.1327 -0.1529
29115W        W35565   4.348   2.366  17.791 -0.1069  0.2861  0.2384
29116W        W35566   8.280   5.838  25.522  0.0693  0.0480 -0.2837
29117W        W35567   6.153   1.000  14.560  0.1823 -0.1707 -0.0584
29118W        W35568  16.218   2.427  20.419  0.2491  0.0772 -0.2190
29119W        W35569   2.027   1.164  12.137  0.0495 -0.2681  0.1500
29120W        W35570   9.906   0.589  23.634  0.2137  0.0243 -0.2436
29121W        W35571   4.113   7.449  25.939  0.0823  0.2466  0.0907
29122W        W35572  13.010   5.327  20.584 -0.0225  0.1022 -0.0896
29123W        W35573   9.966   5.372   0.648  0.1326  0.1655  0.0430
29124W        W35574  14.268   1.642   1.895 -0.0494  0.0787  0.1460
29125W        W35575  19.918   7.715   6.538 -0.0800 -0.1029 -0.0764
29126W        W35576  16.418   3.672   0.242 -0.0201  0.0620 -0.0468
29127W        W35577  22.170   1.020  30.187  0.1552 -0.0920 -0.0889
29128W        W35578  11.484   3.876   1.558 -0.0448 -0.0763  0.2448
29129W        W35579   9.858   2.076  31.865  0.0453 -0.0817 -0.3080
29130W        W35580   3.177   6.306  17.893 -0.1644 -0.0970  0.0280
29131W        W35581  22.619   0.124  25.469  0.4655 -0.0745 -0.3061
29132W        W35582  20.531   2.361   4.980 -0.1758 -0.2277  0.1746
29133W        W35583   8.615   5.474  30.319  0.0018 -0.2041  0.0971
29134W        W35584   7.424   1.031  10.911  0.2057 -0.2530  0.0862
29135W        W35585  13.336   6.216   1.937 -0.0053  0.2866 -0.1414
29136W        W35586  13.246   0.962   3.343  0.2602 -0.3301  0.0725
29137W        W35587  18.761   1.790   0.551 -0.1593 -0.1495  0.0651
29138W        W35588  22.697   4.711   0.802 -0.1116  0.0574 -0.0571
29139W        W35589   5.228   6.696  28.571  0.2448  0.3118 -0.0518
29140W        W35590   3.178   0.497  12.036  0.2614 -0.0503 -0.0558
29141W        W35591  16.677   5.128  24.885 -0.0372 -0.1501 -0.1561
29142W        W35592  10.545   0.786  22.311 -0.1847  0.1029  0.0060
29143W        W35593   7.491   4.007  25.333 -0.0090  0.0734  0.2208
29144W        W35594  21.498   6.814   3.517 -0.0868 -0.0942 -0.0611
29145W        W35595  21.568   2.423  10.249 -0.2463 -0.0031  0.1853
29146W        W35596   4.081   7.077  15.181  0.0941  0.0246  0.0744
29147W        W35597   8.270   7.183  13.433 -0.2704 -0.2362  0.1196
29148W        W35598  16.830   0.320  17.254  0.1697  0.0653 -0.0136
29149W        W35599   5.230   5.710  26.076 -0.0140  0.0257 -0.0717
29150W        W35600   5.683   2.947  11.476 -0.3163  0.0266  0.2464
29151W        W35601  15.988   2.805   3.916 -0.1078 -0.2041  0.1632
29152W        W35602   2.126   6.581  13.958  0.1013  0.0071 -0.0469
29153W        W35603  21.453   1.140  19.832  0.0838  0.0853  0.0169
29154W        W35604   7.465   6.727   8.110  0.3064  0.0885 -0.0864
29155W        W35605  24.016   6.995   9.084  0.0703  0.0555 -0.2028
29156W        W35606  12.842   7.464  23.189 -0.1411  0.1185  0.2057
29157W        W35607  24.001   5.684  12.678  0.0597  0.2605 -0.0505
29158W        W35608   1.335   2.595  28.251 -0.1892 -0.0990 -0.0941
29159W        W35609  10.600   6.381   8.134  0.0317 -0.0155  0.1645
29160W        W35610  20.333   3.147  33.018  0.2297  0.0173  0.1329
29161W        W35611  10.470   1.142  23.224  0.1111  0.1330  0.0565
29162W        W35612  22.001   5.698  30.763 -0.2205 -0.3292  0.1539
29163W        W35613  17.732   1.803   4.006 -0.1685 -0.1934 -0.2852
29164W        W35614  17.610   0.794  27.805 -0.2405 -0.1289 -0.0528
29165W        W35615   0.283   3.054  27.413 -0.3055 -0.0041 -0.1107
29166W        W35616  10.924   5.443   4.113 -0.0676  0.0190 -0.3496
29167W        W35617  23.692   6.214  31.938  0.2883  0.2040  0.0220
29168W        W35618  23.259   2.683  11.495  0.0375 -0.2225  0.0828
29169W        W35619   4.737   1.896  29.295 -0.1844 -0.2343 -0.0463
29170W        W35620   0.140   2.370  23.909 -0.0527 -0.1339  0.0126
29171W        W35621  22.218   4.534   3.124  0.0918 -0.2427 -0.0147
29172W        W35622  23.399   2.591  13.845  0.2802 -0.0251 -0.2165
29173W        W35623  20.603   7.211  29.395  0.2798 -0.1089 -0.1032
29174W        W35624  14.323   4.142  23.840 -0.0403  0.2980  0.3098
29175W        W35625  15.142   4.536  24.351 -0.2282  0.2196  0.0613
29176W        W35626   5.759   1.874   6.310  0.1179  0.0241 -0.1212
29177W        W35627   3.981   1.251  11.591  0.1667  0.1420 -0.0554
29178W        W35628  22.538   6.098  26.643  0.2011 -0.0321  0.1561
29179W        W35629  19.484   1.960  32.796 -0.0960  0.0198  0.0027
29180W        W35630  12.327   4.485  20.923 -0.1300 -0.2275  0.1541
29181W        W35631  24.926   4.303  14.482 -0.0475  0.0623 -0.1720
29182W        W35632  19.346   2.976   1.483 -0.0364 -0.1479  0.0870
29183W        W35633   2.142   2.783   7.485  0.0910  0.3726  0.0778
29184W        W35634   4.029   6.572  14.047 -0.1154  0.0349 -0.0040
29185W        W35635  10.643   5.746   1.497 -0.4801  0.3691  0.0514
29186W        W35636  11.740   6.725  25.183  0.1570  0.0625 -0.0010
29187W        W35637  12.952   4.745  29.825 -0.0118 -0.0089  0.3273
29188W        W35638   0.036   1.252  13.533  0.0103  0.1046  0.1731
29189W        W35639  23.923   1.099   5.626 -0.2903 -0.1776 -0.0246
29190W        W35640   5.410   1.041  13.628 -0.2399  0.1669 -0.1086
29191W        W35641  19.715   1.638   5.870 -0.0596  0.3746  0.0634
29192W        W35642  17.884   6.205  15.823  0.0320 -0.2099  0.0046
29193W        W35643  24.787   7.458  32.268 -0.0934 -0.0869 -0.0494
29194W        W35644   7.452   3.501   5.215  0.0861 -0.5410  0.0216
29195W        W35645  15.758   5.586  10.619  0.0662 -0.1902  0.1633
29196W        W35646  12.337   0.267  21.927 -0.1201 -0.1522 -0.1025
29197W        W35647  19.254   6.662  25.455  0.0997  0.2313 -0.2999
29198W        W35648  11.643   1.241  10.051  0.1207 -0.3009  0.1368
29199W        W35649   9.276   0.441  14.423 -0.1209  0.1941 -0.0880
29200W        W35650  21.119   5.200  28.733  0.1159  0.1657 -0.1077
29201W        W35651  21.651   7.597   0.278 -0.0968 -0.0673 -0.3465
29202W        W35652  22.016   3.929   4.760  0.1310 -0.0408 -0.0062
29203W        W35653  20.382   4.859   3.283 -0.0099 -0.0702  0.4069
29204W        W35654   9.966   6.707  25.878 -0.0010 -0.1087 -0.1066
29205W        W35655  19.836   2.753  22.336 -0.1581 -0.0008 -0.1882
29206W        W35656  19.525   4.067  29.348  0.1322 -0.0018 -0.3139
29207W        W35657  14.331   7.048  16.923 -0.1354 -0.2034  0.0596
29208W        W35658   6.490   5.433   5.762 -0.2510  0.0517  0.1169
29209W        W35659  11.674   3.944  21.303 -0.1931  0.0296 -0.0595
29210W        W35660  18.469   2.931  29.709  0.0709  0.0170 -0.1138
29211W        W35661  18.622   3.191   2.461  0.1660  0.1672  0.0264
29212W        W35662   0.325   2.731   6.442 -0.1250  0.1616 -0.1999
29213W        W35663  11.544   4.701  28.875 -0.2059 -0.2572 -0.1563
29214W        W35664   7.125   3.297  32.399  0.0818 -0.1536  0.0156
29215W        W35665   0.124   4.632  11.116 -0.0659 -0.0368 -0.1038
29216W        W35666  18.504   6.199   8.132  0.1584 -0.0507  0.0125
29217W        W35667  24.022   2.285  25.557  0.0456 -0.0282 -0.1783
29218W        W35668   9.540   2.522   3.642  0.1392  0.2436 -0.0446
29219W        W35669  23.375   5.829   5.470 -0.2991 -0.1105  0.1926
29220W        W35670  14.512   0.003  31.438 -0.1158  0.1092 -0.2336
29221W        W35671   9.443   1.344   1.901  0.3772 -0.2991  0.0400
29222W        W35672   2.154   6.508   3.888 -0.3205 -0.2516  0.2485
29223W        W35673  17.405   6.127  17.719 -0.1826  0.0365 -0.3346
29224W        W35674  23.797   1.205  11.838 -0.1920  0.0813 -0.3494
29225W        W35675   4.134   1.876  25.773 -0.0513  0.0187  0.0919
29226W        W35676  20.370   6.913   2.846  0.1130  0.1515 -0.2181
29227W        W35677  12.459   5.942   1.263 -0.1865 -0.0294  0.1519
29228W        W35678   0.361   7.718   3.527 -0.2088 -0.1861  0.1680
29229W        W35679  18.038   6.273  17.968  0.0537  0.1610 -0.0407
29230W        W35680  17.391   7.486  26.035 -0.1545 -0.1087  0.3776
29231W        W35681  18.681   6.627  22.667  0.0566  0.0108 -0.1546
29232W        W35682  17.509   1.105   6.240 -0.1552 -0.1444 -0.5016
29233W        W35683  22.441   7.159  12.241 -0.4905  0.0097  0.0191
29234W        W35684  17.052   2.278  20.285 -0.0335  0.2659 -0.0701
29235W        W35685   5.642   7.698   3.139 -0.0433 -0.3802 -0.4521
29236W        W35686  20.151   6.062  25.454 -0.1257  0.1686 -0.0430
29237W        W35687   8.373   4.953   2.177 -0.2205 -0.1627  0.1374
29238W        W35688  15.811   2.844   2.507  0.1344  0.2020  0.0069
29239W        W35689   0.698   2.669   3.244 -0.3205  0.1353  0.0603
29240W        W35690   1.913   1.225  17.928 -0.0495  0.1355  0.0463
29241W        W35691  14.827   4.004  19.567  0.1358  0.1953 -0.2589
29242W        W35692   0.735   7.681   7.401  0.0979 -0.1818 -0.0202
29243W        W35693  13.803   7.001  25.510  0.2826 -0.1008 -0.0260
29244W        W35694  21.765   7.694   5.174 -0.2009 -0.0600 -0.2398
29245W        W35695   1.103   3.342   2.471  0.1857 -0.4220 -0.0465
29246W        W35696  19.989   0.894  20.125  0.1742  0.2793 -0.0355
29247W        W35697  20.476   5.531  10.217 -0.1825 -0.1943  0.1134
29248W        W35698  23.539   2.214   5.543  0.2470 -0.1407 -0.2666
29249W        W35699   4.345   3.279  24.743  0.2688 -0.0381  0.1097
29250W        W35700   7.992   3.930  13.910  0.0670 -0.2352 -0.0510
29251W        W35701  21.207   5.000  11.001  0.1686  0.3594  0.1764
29252W        W35702  20.456   6.495  21.256  0.2045  0.0581 -0.0113
29253W        W35703  20.966   0.603   4.511 -0.1428  0.4005  0.0104
29254W        W35704  19.939   3.692  25.452  0.2080  0.3082  0.0498
29255W        W35705   6.993   4.023  14.802 -0.4267 -0.1439 -0.1078
29256W        W35706   7.046   6.580   0.786  0.0278  0.0320  0.0253
29257W        W35707  10.464   1.454  28.551 -0.1769 -0.0305 -0.0947
29258W        W35708  14.083   6.177  27.050 -0.1427 -0.2138  0.1450
29259W        W35709  21.336   4.599   3.435 -0.1521 -0.1466  0.1000
29260W        W35710   0.894   7.142   2.821  0.0964  0.4003  0.0544
29261W        W35711  22.943   5.173   6.202  0.1553 -0.3920  0.1619
29262W        W35712  12.008   6.994  21.770 -0.1390  0.1706  0.0322
29263W        W35713   1.117   4.939   5.915  0.3266  0.2211 -0.2058
29264W        W35714   1.739   6.575  11.678  0.2663 -0.1960  0.0724
29265W        W35715  21.053   7.526   1.072  0.1512 -0.1441 -0.1638
29266W        W35716  16.678   0.097  21.456  0.2086  0.0307 -0.2037
29267W        W35717  10.200   2.451  28.104 -0.4326 -0.0155  0.0120
29268W        W35718  18.275   6.527  30.778  0.0241  0.0382 -0.0196
29269W        W35719  20.657   2.111  29.874 -0.1872  0.1047  0.1761
29270W        W35720  11.703   1.162  29.778 -0.2282 -0.2063 -0.1972
29271W        W35721  11.945   5.079  30.593  0.0398  0.2662  0.2900
29272W        W35722  13.063   5.349  19.612 -0.1413  0.0126 -0.1162
29273W        W35723   6.351   6.374  16.578 -0.0792 -0.5897  0.0167
29274W        W35724   0.867   6.964   4.977 -0.1521 -0.3137 -0.1413
29275W        W35725  24.116   3.056  23.606 -0.1553 -0.0006  0.1189
29276W        W35726   5.742   7.346   0.489  0.0020  0.0312  0.1316
29277W        W35727  21.621   6.500   5.106  0.0001 -0.0994  0.3755
29278W        W35728   7.667   3.303  27.003  0.1000  0.0125  0.3116
29279W        W35729   9.268   6.283  11.431 -0.0209 -0.1989  0.0689
29280W        W35730  22.554   1.828  25.636  0.0206 -0.1898  0.1608
29281W        W35731   6.555   4.709  14.147  0.2047  0.1123 -0.1893
29282W        W35732   3.638   2.902  15.774  0.1233  0.1140  0.0549
29283W        W35733  13.662   4.911  25.429 -0.2092  0.0783  0.1365
29284W        W35734  12.848   1.711   1.645 -0.4352 -0.0619 -0.1581
29285W        W35735  22.503   7.032  19.126  0.2891  0.2388 -0.1127
29286W        W35736  13.116   7.758   7.041  0.0729  0.0562 -0.1254
29287W        W35737  22.758   2.083  10.444 -0.2779  0.0209  0.0577
29288W        W35738  20.460   3.719  10.807  0.2342 -0.0187  0.1184
29289W        W35739   1.936   5.884  13.594  0.1257  0.1967 -0.0317
29290W        W35740  14.157   4.376  27.288 -0.1226  0.0134 -0.0231
29291W        W35741   5.662   1.460  31.666 -0.0075  0.1164  0.1848
29292W        W35742   8.078   3.791   4.121 -0.0683 -0.1337  0.0203
29293W        W35743   3.497   1.916  10.186 -0.2139  0.1981 -0.0859
29294W        W35744   5.866   3.712   7.387  0.1394 -0.1434  0.0388
29295W        W35745  24.953   7.505   5.563 -0.2108  0.0357  0.1607
29296W        W35746   4.950   7.410  17.249  0.0730 -0.0904  0.0327
29297W        W35747   2.575   5.113  29.180 -0.2890  0.0418 -0.0358
29298W        W35748  15.242   3.551  15.997 -0.0025 -0.0278 -0.0973
29299W        W35749   5.728   4.832  11.001  0.1139  0.1518  0.0553
29300W        W35750  20.452   1.263   5.755 -0.0264  0.1306 -0.2020
29301W        W35751  24.136   4.498   8.268 -0.2203 -0.3053 -0.1006
29302W        W35752   0.313   7.232  14.268  0.1757  0.0462  0.1205
29303W        W35753   7.323   6.311   2.801 -0.0635 -0.0677 -0.3624
29304W        W35754   2.469   6.818  14.120 -0.0326  0.0454 -0.0432
29305W        W35755  23.399   3.743  26.610  0.2816  0.0681  0.1665
29306W        W35756   3.494   2.122  18.064 -0.2545  0.4448 -0.1235
29307W        W35757   6.590   7.593  13.846  0.2876  0.0618 -0.1867
29308W        W35758  16.006   3.389   6.285  0.0637  0.2176 -0.0167
29309W        W35759   5.934   2.264  14.091  0.0595  0.1634  0.1088
29310W        W35760  14.881   4.676  28.118  0.1914 -0.0056 -0.1781
29311W        W35761   3.358   2.749   4.774  0.1868 -0.0457 -0.0911
29312W        W35762   7.620   6.969  23.962  0.0772  0.2311 -0.2321
29313W        W35763  10.672   6.554   5.145 -0.2755 -0.0319  0.0129
29314W        W35764  22.610   6.428   1.020 -0.2705 -0.0803  0.0498
29315W        W35765   1.666   6.810  13.581  0.0127 -0.1127 -0.1325
29316W        W35766  11.453   1.270   6.718 -0.0344  0.0646 -0.0841
29317W        W35767   6.889   4.409  17.150  0.0055  0.1730  0.0636
29318W        W35768  13.000   6.846  28.241 -0.2996  0.1669 -0.0784
29319W        W35769   9.428   2.808  31.296  0.0721  0.1357 -0.0548
29320W        W35770  13.792   7.196   7.411 -0.0899 -0.1719  0.0863
29321W        W35771  22.355   3.494  10.523  0.0613 -0.0155  0.0997
29322W        W35772   4.789   2.744  32.904 -0.0646 -0.1653  0.0134
29323W        W35773  14.151   0.632  17.239  0.2181 -0.3126 -0.0738
29324W        W35774  21.764   4.956   2.565 -0.0305 -0.1320  0.1403
29325W        W35775  15.416   4.663  26.339  0.1628 -0.2212 -0.0731
29326W        W35776  18.188   6.018  32.206  0.0683  0.0055 -0.2123
29327W        W35777   8.223   3.229  27.804 -0.1387 -0.0719  0.1091
29328W        W35778  23.932   7.215  26.441 -0.0119  0.3496 -0.0666
29329W        W35779  23.282   0.616   6.685 -0.0659  0.3144  0.2825
29330W        W35780  19.224   7.578   2.841 -0.1484  0.0255  0.4047
29331W        W35781  24.240   1.778  13.257 -0.0494  0.2561  0.0882
29332W        W35782   3.400   7.135   1.209 -0.0071 -0.2303 -0.1190
29333W        W35783   8.007   1.777  31.781  0.0805 -0.1530 -0.1875
29334W        W35784  12.233   3.289  30.551  0.0191  0.4409 -0.3837
29335W        W35785   8.889   5.460  15.256  0.0677 -0.0163 -0.1806
29336W        W35786  24.426   5.413  30.418 -0.1600  0.1021  0.0411
29337W        W35787  22.143   5.144   9.414  0.1910 -0.0929 -0.3105
29338W        W35788   6.925   5.945  28.107  0.1308 -0.0275  0.3097
29339W        W35789  21.618   1.738   1.451 -0.1008  0.0643  0.1044
29340W        W35790   4.971   5.074  11.188  0.1994  0.3824 -0.1990
29341W        W35791  18.390   1.332   9.884  0.1268  0.0197  0.4435
29342W        W35792   6.241   7.640   1.877  0.2971  0.1005  0.0327
29343W        W35793  18.350   3.106  10.478  0.0763 -0.0334 -0.2861
29344W        W35794   3.637   1.565  27.001  0.1768 -0.1539 -0.0085
29345W        W35795   1.734   5.130  26.729 -0.2540 -0.0227  0.0137
29346W        W35796   9.574   1.048   7.947  0.2295 -0.2849  0.1029
29347W        W35797  19.832   2.551  27.751  0.0926 -0.0216  0.1061
29348W        W35798  18.806   7.168  17.491 -0.1033  0.1782 -0.0147
29349W        W35799  14.112   2.494   2.063  0.1712  0.2612  0.1959
29350W        W35800   6.073   5.274   8.593 -0.1404  0.0201  0.1938
29351W        W35801  18.358   1.585  31.806  0.4742 -0.0476  0.1553
29352W        W35802   2.579   1.142  31.993 -0.0861  0.0554 -0.0893
29353W        W35803   8.626   0.268  11.511 -0.2563 -0.1333 -0.4394
29354W        W35804  23.132   5.546  23.975  0.0331  0.0714 -0.0382
29355W        W35805   0.714   4.498  28.700 -0.0649  0.1371  0.3239
29356W        W35806  19.014   5.848  19.173 -0.0547 -0.0263  0.0550
29357W        W35807  15.928   2.398   0.001 -0.1602 -0.0191 -0.1681
29358W        W35808   7.942   4.458  16.233  0.1542  0.0931  0.1954
29359W        W35809   2.993   5.826  25.327  0.0894  0.2015  0.1653
29360W        W35810   4.602   2.210   6.929  0.0463  0.2113  0.1730
29361W        W35811  13.752   4.718   3.835 -0.0945 -0.0236 -0.3546
29362W        W35812  22.170   4.381   4.944  0.0493 -0.0603 -0.1354
29363W        W35813  22.305   0.803   0.535  0.2793 -0.2041 -0.1435
29364W        W35814  10.695   0.252   9.984 -0.1078  0.2524 -0.1076
29365W        W35815   6.334   4.321   7.140 -0.2505  0.1795 -0.2047
29366W        W35816   2.288   7.224  11.470  0.0215  0.2449 -0.3707
29367W        W35817  17.986   7.420  19.543 -0.1641  0.2350 -0.3022
29368W        W35818  24.493   5.934  12.587 -0.0055 -0.1468  0.2358
29369W        W35819  11.312   3.235   7.920 -0.0883  0.2098  0.1641
29370W        W35820   7.903   4.962  32.390  0.0651  0.0445  0.0497
29371W        W35821  23.128   4.846  29.057  0.0723 -0.0613 -0.0263
29372W        W35822  19.196   3.389  23.168 -0.0593 -0.0545 -0.3781
29373W        W35823   6.898   0.515  14.706  0.3747 -0.0526 -0.2649
29374W        W35824  15.625   0.290  22.768 -0.0616 -0.0494 -0.2128
29375W        W35825   3.436   2.787   6.625  0.5205  0.0652 -0.2953
29376W        W35826   2.359   0.152  24.327  0.0128 -0.0373  0.0044
29377W        W35827   8.187   7.785  11.948  0.0444  0.3165  0.0269
29378W        W35828   3.559   7.621  16.637  0.1143  0.1204 -0.3595
29379W        W35829  17.257   1.689  21.364  0.0430 -0.1559  0.0430
29380W        W35830   1.840   6.083  26.569  0.3664  0.1484 -0.1641
29381W        W35831   8.887   4.806  11.602 -0.0791  0.2932 -0.1040
29382W        W35832   4.602   3.601  32.477 -0.2097  0.1624 -0.1392
29383W        W35833   1.993   7.589   5.520 -0.0995  0.1168 -0.1486
29384W        W35834  12.107   5.083  31.268 -0.2273  0.2685 -0.0651
29385W        W35835  18.238   5.567   6.113  0.2296 -0.1927  0.1747
29386W        W35836  11.973   4.998  20.166 -0.0020 -0.1177 -0.3451
29387W        W35837   0.262   6.269  27.439 -0.1354 -0.2633  0.3926
29388W        W35838   1.808   1.770  33.043  0.0598 -0.0399  0.3634
29389W        W35839   1.602   2.545  12.667 -0.2874  0.1313 -0.2167
29390W        W35840   1.259   6.122  15.826  0.1136 -0.0211  0.2006
29391W        W35841  12.436   3.157   8.630 -0.0621 -0.3480  0.2949
29392W        W35842   6.541   6.980  27.877  0.1142  0.0574  0.1948
29393W        W35843   4.949   3.088  11.398  0.1764 -0.1262  0.1858
29394W        W35844  20.055   3.424  29.183 -0.0211  0.5068  0.2222
29395W        W35845   1.256   1.280  10.317  0.0859 -0.0589  0.1094
29396W        W35846   8.317   0.695   0.132  0.0029  0.0960  0.1725
29397W        W35847  24.787   6.234  27.779 -0.2567 -0.0894 -0.1660
29398W        W35848  23.572   2.551   9.515  0.1999 -0.0434  0.0517
29399W        W35849  13.271   2.133   6.662 -0.2375 -0.1356 -0.1365
29400W        W35850   4.076   4.032   3.520 -0.3044  0.2424  0.1073
29401W        W35851  18.204   5.282  19.858  0.0305  0.3247  0.1028
29402W        W35852  15.401   1.912  10.432 -0.4095 -0.0406 -0.2418
29403W        W35853   9.873   7.611   3.914  0.1014  0.3276 -0.1047
29404W        W35854  13.566   5.319  24.223 -0.1975  0.4282  0.2518
29405W        W35855  10.728   7.554   3.110  0.0080  0.1865 -0.1063
29406W        W35856   5.407   5.301  28.177  0.3103  0.2791  0.1698
29407W        W35857   7.261   2.576  25.835  0.1259 -0.2909  0.0538
29408W        W35858  19.969   7.209   3.076  0.0251 -0.5452 -0.1042
29409W        W35859  11.845   4.333   1.470 -0.0314 -0.0415 -0.0111
29410W        W35860  17.201   7.219  10.673  0.0211 -0.1106  0.0396
29411W        W35861   9.306   5.121   3.313 -0.1570 -0.0507  0.0205
29412W        W35862  16.052   2.798  21.536 -0.1244 -0.1367 -0.2304
29413W        W35863  20.617   7.390  11.342  0.0884  0.0985 -0.2230
29414W        W35864  15.590   3.886   0.435  0.4048  0.1909  0.1666
29415W        W35865  11.002   1.377   7.037 -0.2220 -0.1940  0.1413
29416W        W35866   6.395   5.773   1.004 -0.2235  0.0185  0.0341
29417W        W35867  14.989   4.900   3.551 -0.1793  0.0025 -0.0066
29418W        W35868  23.297   4.055  10.469  0.1331  0.2249 -0.1449
29419W        W35869   2.708   5.659  11.359  0.1869  0.1378  0.1007
29420W        W35870  20.809   0.296  29.030 -0.1088 -0.2476  0.1469
29421W        W35871  21.712   5.832  23.841  0.1032  0.0264  0.2046
29422W        W35872   7.099   4.021   7.810 -0.0830  0.0104  0.2189
29423W        W35873  22.893   3.107   2.013  0.3361  0.0218  0.1168
29424W        W35874   3.968   4.521   7.345  0.0137 -0.0950  0.0338
29425W        W35875  19.821   3.908  25.901  0.0245  0.1061  0.1003
29426W        W35876  16.016   2.480   6.562 -0.1318 -0.1560 -0.1777
29427W        W35877  10.736   3.950  10.996  0.0626  0.2015 -0.1243
29428W        W35878  16.239   1.783  21.611 -0.1941 -0.0763  0.1563
29429W        W35879  11.845   4.231  23.657 -0.1795  0.1300  0.2630
29430W        W35880  21.117   5.388   1.328  0.0389 -0.4483 -0.1724
29431W        W35881  15.944   1.514   6.061  0.1414 -0.2158  0.0630
29432W        W35882   5.859   0.472  31.933 -0.0108 -0.1144 -0.4094
29433W        W35883  16.100   3.471  25.830 -0.1114  0.0499 -0.0488
29434W        W35884  21.447   4.524  23.231  0.1487 -0.0224  0.0379
29435W        W35885   0.343   4.569  30.002  0.1165  0.0266  0.3542
29436W        W35886   6.843   5.950   7.820 -0.0944 -0.0562 -0.1691
29437W        W35887  13.953   0.242   4.328  0.2022 -0.1993  0.2490
29438W        W35888  17.052   0.296  18.472 -0.1861  0.2652 -0.1572
29439W        W35889  20.514   4.229  17.570  0.0830 -0.3401  0.0441
29440W        W35890  13.661   3.178  15.507  0.2812 -0.1359 -0.1832
29441W        W35891  19.524   2.580  25.541  0.2688 -0.0307  0.1425
29442W        W35892  13.255   4.574  25.406 -0.1999  0.1363 -0.0005
29443W        W35893   9.635   5.493   8.313 -0.0776 -0.1591 -0.0042
29444W        W35894   8.979   3.328  31.999  0.2222  0.0323  0.0828
29445W        W35895  17.419   3.450   3.043 -0.0073 -0.0003 -0.2451
29446W        W35896   3.616   2.406  12.258  0.0697 -0.3479 -0.0117
29447W        W35897  23.630   4.886   1.999 -0.0415  0.0381 -0.2724
29448W        W35898   9.933   3.301  28.299  0.0576  0.1701  0.2369
29449W        W35899  20.666   3.835  28.220  0.0763  0.0221  0.0810
29450W        W35900  22.933   0.485  11.816 -0.2916  0.0507  0.1554
29451W        W35901   9.881   7.317   6.818 -0.0141  0.0580  0.0281
29452W        W35902   7.162   1.279  28.397 -0.1437 -0.0152  0.2655
29453W        W35903   8.430   0.885   3.033 -0.0228 -0.1877  0.0237
29454W        W35904   0.120   4.108   1.454  0.0960 -0.0242 -0.3896
29455W        W35905  20.377   2.703  31.037 -0.0048  0.2224 -0.1557
29456W        W35906  23.746   6.935  32.685  0.0946  0.0924 -0.0865
29457W        W35907   7.913   3.657  31.837  0.0625  0.2442 -0.1792
29458W        W35908   6.845   3.871  10.174  0.2165 -0.0792 -0.1292
29459W        W35909  18.165   1.758  25.757  0.0692 -0.1843  0.0863
29460W        W35910  24.215   2.685  14.424 -0.1701 -0.1924  0.3789
29461W        W35911   2.766   3.732  26.188 -0.1933  0.3415  0.0635
29462W        W35912   7.230   5.293  31.700  0.0736  0.0912  0.1716
29463W        W35913  19.982   1.257   4.624  0.0937 -0.3905 -0.0807
29464W        W35914  12.503   0.049  32.751  0.0617  0.0307 -0.0294
29465W        W35915  23.507   7.609  30.911  0.1513 -0.0560 -0.1543
29466W        W35916   6.380   6.194  15.638  0.0186 -0.0072  0.1707
29467W        W35917  14.028   4.203   0.396 -0.2519 -0.2184 -0.0117
29468W        W35918  14.411   0.165  21.867 -0.3480 -0.0312  0.0462
29469W        W35919  23.859   7.199  27.196 -0.1023 -0.3724 -0.1398
29470W        W35920  20.564   0.329  19.062 -0.3007 -0.1278 -0.1017
29471W        W35921   9.375   6.190   1.512 -0.0661  0.0754  0.0173
29472W        W35922  10.102   2.019   4.213 -0.1480  0.3991 -0.2483
29473W        W35923  17.292   2.532  16.657  0.0355  0.0088  0.4195
29474W        W35924   1.915   0.071  27.683  0.1050  0.0902  0.0326
29475W        W35925   3.580   4.054   7.012  0.2837  0.4011  0.0006
29476W        W35926  18.071   7.201  28.396  0.0728 -0.0031 -0.0656
29477W        W35927  21.705   2.708  29.646  0.1279  0.1536 -0.0201
29478W        W35928  14.546   0.948  19.036 -0.0562  0.0301 -0.0356
29479W        W35929  10.352   3.565  29.109 -0.2949 -0.0268 -0.1906
29480W        W35930  21.838   3.125  23.876 -0.0691 -0.0377  0.0399
29481W        W35931   6.987   5.317  14.737 -0.3672 -0.0655 -0.4027
29482W        W35932  20.047   7.584  10.585  0.3219  0.1657  0.0432
29483W        W35933  18.706   6.617   3.880 -0.0238 -0.0051 -0.1793
29484W        W35934   1.990   5.967   9.779 -0.0573 -0.2466  0.1442
29485W        W35935  24.616   1.731  10.777  0.1549  0.0794 -0.1652
29486W        W35936   7.199   3.452  14.873 -0.0805 -0.2042 -0.2511
29487W        W35937  21.822   0.163  21.456 -0.0173 -0.0657  0.2898
29488W        W35938   6.679   7.502  28.785  0.2544  0.1285 -0.2617
29489W        W35939   9.004   2.234  23.529  0.2008 -0.0061 -0.1901
29490W        W35940   0.779   1.112  29.802 -0.1749 -0.0544  0.2228
29491W        W35941   7.161   2.825  23.997  0.0630 -0.2686  0.0219
29492W        W35942  22.953   3.591  23.478 -0.1178 -0.0248 -0.0612
29493W        W35943   6.920   1.609   2.433 -0.3310  0.1750  0.2089
29494W        W35944  13.435   0.298   5.226 -0.4195 -0.1346  0.1868
29495W        W35945  17.517   7.251   2.370 -0.0781 -0.0250  0.0995
29496W        W35946   0.678   7.013  14.025  0.1712  0.0271  0.1410
29497W        W35947  14.160   1.145  15.187  0.1153 -0.1788 -0.0595
29498W        W35948   2.830   4.849   8.177 -0.1202 -0.1915  0.1959
29499W        W35949  19.783   4.750   4.746 -0.1060 -0.0604  0.0077
29500W        W35950   2.353   1.862   5.699  0.0316  0.2364 -0.0141
29501W        W35951  18.629   6.863  25.440 -0.1164 -0.0114  0.1016
29502W        W35952   1.782   6.024  32.012 -0.1068 -0.2296  0.2080
29503W        W35953  20.932   6.164  18.456  0.1625 -0.1331  0.1727
29504W        W35954  19.662   5.826  23.289  0.1607 -0.2719  0.1855
29505W        W35955  15.427   5.491  29.465 -0.1084 -0.0336  0.3653
29506W        W35956   0.068   0.783  15.087 -0.1881 -0.1396  0.1663
29507W        W35957  18.291   6.181   3.212 -0.2684 -0.0996 -0.1696
29508W        W35958  15.154   0.839  17.445  0.2267  0.1261 -0.0779
29509W        W35959  23.186   6.518  30.070  0.0699  0.0685 -0.1563
29510W        W35960   8.198   5.363  25.037 -0.4244  0.2068 -0.0841
29511W        W35961  24.568   6.298   4.968  0.1154  0.1811  0.2797
29512W        W35962  16.851   7.396  23.077 -0.0730 -0.1100 -0.0145
29513W        W35963  24.781   2.704  32.612  0.1010  0.0239  0.3320
29514W        W35964  11.875   1.511   3.832  0.0413 -0.2870 -0.1039
29515W        W35965  22.657   5.351   1.267 -0.0594 -0.0211 -0.1064
29516W        W35966   0.725   3.117  28.791 -0.1051 -0.0261  0.3281
29517W        W35967   6.161   6.266   8.747 -0.0650 -0.1151 -0.2431
29518W        W35968   1.648   1.678  10.378 -0.1015 -0.1558 -0.0956
29519W        W35969   6.796   3.073  26.492  0.2224 -0.1401 -0.2463
29520W        W35970  21.884   0.106   8.470 -0.3858  0.0213 -0.0573
29521W        W35971  16.311   1.189   3.708 -0.0944  0.1782 -0.1551
29522W        W35972  12.964   3.208   9.528 -0.2495 -0.0215  0.1650
29523W        W35973  11.572   6.048  22.056 -0.2872 -0.1711  0.1924
29524W        W35974  11.507   3.483  21.425  0.1150 -0.2449 -0.1104
29525W        W35975  23.141   7.307  30.701  0.0007 -0.1709 -0.1625
29526W        W35976  23.361   4.658  20.702 -0.4169  0.0524 -0.3243
29527W        W35977  20.701   0.194  25.710  0.1474 -0.1212  0.0507
29528W        W35978  22.313   2.987  26.452 -0.0588  0.1645  0.1757
29529W        W35979  14.731   6.027  23.476 -0.1904  0.2369 -0.1642
29530W        W35980  22.425   5.025  23.795  0.1637 -0.3484 -0.1132
29531W        W35981  14.820   1.499  30.639 -0.1056  0.1499  0.0027
29532W        W35982   8.550   5.858   5.556  0.1713  0.2821  0.1836
29533W        W35983  11.124   1.614   7.521 -0.1746  0.0291  0.0031
29534W        W35984  15.029   6.059   0.422 -0.0382  0.1173  0.0471
29535W        W35985   7.524   5.274   8.700 -0.1736  0.0448  0.0023
29536W        W35986  17.856   1.243  24.428 -0.2638  0.1008  0.2232
29537W        W35987  15.488   0.928  28.210 -0.1773  0.1329  0.0004
29538W        W35988  16.805   2.444  31.270  0.1087  0.2083 -0.0142
29539W        W35989  12.576   4.104  28.466  0.1576  0.1525  0.1140
29540W        W35990  21.160   2.181  22.740  0.0386 -0.1449  0.1017
29541W        W35991   8.905   6.081   1.704  0.0429 -0.0106 -0.0190
29542W        W35992  11.364   2.156  20.353 -0.0002 -0.2601 -0.2684
29543W        W35993  21.655   2.406  21.741 -0.0592 -0.0101 -0.1243
29544W        W35994  11.831   3.988  32.204  0.1121 -0.0453 -0.0479
29545W        W35995   5.704   0.978   7.346  0.2053  0.1956 -0.2048
29546W        W35996   7.174   1.568   8.617 -0.2233  0.4663 -0.3426
29547W        W35997   6.504   2.273  13.961 -0.0960 -0.0220 -0.1113
29548W        W35998  20.657   4.236  23.543 -0.0193 -0.1958  0.1155
29549W        W35999   8.876   0.579  23.235  0.0027  0.4628  0.2326
29550W        W36000  12.568   6.069  20.954 -0.1357  0.1619  0.2176
29551W        W36001  18.866   7.094   0.028 -0.1532 -0.0480  0.0853
29552W        W36002   3.762   4.058   9.610 -0.0407 -0.0023  0.1005
29553W        W36003   9.750   6.705  30.990  0.1707 -0.1162  0.1881
29554W        W36004  15.983   6.306  30.796  0.3574  0.0432  0.3246
29555W        W36005   8.641   5.950   5.090  0.3313  0.1060  0.0809
29556W        W36006   6.228   6.580  11.249  0.1925  0.0110 -0.2830
29557W        W36007  18.992   5.515  18.758  0.2374  0.3682  0.2982
29558W        W36008  22.124   1.323   2.194  0.3030  0.0572  0.0854
29559W        W36009  11.066   5.346   5.930 -0.0360 -0.0438 -0.0180
29560W        W36010  18.290   7.571   2.760  0.2183  0.2143  0.0205
29561W        W36011  17.232   6.888  31.889  0.1439  0.2871  0.3251
29562W        W36012  20.861   3.569  20.006  0.0751 -0.1997 -0.0636
29563W        W36013   0.199   3.222   6.457  0.0300  0.3171 -0.2470
29564W        W36014  18.837   4.017  24.740 -0.0383  0.0251  0.3492
29565W        W36015  17.371   2.597   1.943 -0.3121 -0.0107 -0.1813
29566W        W36016  13.885   4.800   8.486  0.1795 -0.1701 -0.0038
29567W        W36017   7.782   6.102  12.404 -0.0685 -0.1636  0.1461
29568W        W36018  14.185   5.835  26.754 -0.0170  0.0956 -0.0908
29569W        W36019  17.722   4.999  31.358 -0.0814  0.2595 -0.2140
29570W        W36020  22.009   0.627   9.860  0.0531  0.0857 -0.0480
29571W        W36021  15.882   0.744   9.296 -0.3413  0.0999  0.0494
29572W        W36022  16.251   0.337   4.990 -0.1947  0.1133 -0.2350
29573W        W36023  12.279   2.408  20.653  0.0435 -0.4830 -0.1280
29574W        W36024  12.274   0.021   2.726  0.1032  0.0292  0.4120
29575W        W36025  22.744   6.184   8.258  0.0423  0.2272 -0.1521
29576W        W36026   8.978   5.326  22.351 -0.0111  0.3154 -0.3024
29577W        W36027  11.187   5.710  24.986 -0.1131 -0.0312  0.3036
29578W        W36028  22.847   5.725   2.881 -0.0038 -0.1526 -0.1590
29579W        W36029   5.993   5.878  31.259  0.0114  0.0297 -0.0064
29580W        W36030  11.032   5.439  11.345 -0.1665 -0.0671  0.4979
29581W        W36031  22.607   4.657   4.161  0.0608  0.0031 -0.0183
29582W        W36032   5.128   7.511  11.132 -0.2970 -0.1337  0.0344
29583W        W36033  12.565   7.687  31.710  0.0588  0.2073  0.1450
29584W        W36034   9.980   4.274  22.515 -0.1632  0.0452 -0.0868
29585W        W36035  12.544   6.510   1.323 -0.2678 -0.0659 -0.1839
29586W        W36036  19.564   4.938  24.801 -0.1772 -0.0659  0.2139
29587W        W36037  17.320   6.405  17.240 -0.2044  0.2296 -0.1031
29588W        W36038  24.547   5.566   7.460  0.0741 -0.2578 -0.0287
29589W        W36039  24.556   0.836   4.149  0.2166 -0.2880  0.1397
29590W        W36040  24.555   5.019   2.025 -0.2435 -0.0926 -0.2728
29591W        W36041  22.719   1.459  27.835  0.1605  0.0674 -0.2480
29592W        W36042  22.218   4.063  24.392 -0.0421  0.2938  0.1065
29593W        W36043  16.235   5.690   4.202  0.2994 -0.0750 -0.1352
29594W        W36044   4.176   0.620   9.183  0.0011 -0.1253  0.1667
29595W        W36045   4.711   4.843   6.856 -0.1573 -0.1508  0.0860
29596W        W36046  18.805   0.008  19.921  0.2893 -0.1101 -0.2597
29597W        W36047   0.630   2.135  23.664  0.1705 -0.1279 -0.1949
29598W        W36048  12.293   2.155  22.968 -0.0157 -0.3036 -0.2213
29599W        W36049  23.780   4.895  20.004  0.0825  0.0998 -0.0927
29600W        W36050  17.579   7.788  17.953 -0.0755  0.0772  0.1020
29601W        W36051   7.828   7.314  28.496  0.2821  0.1664  0.3499
29602W        W36052   4.585   1.801  23.376 -0.0691 -0.0242  0.1726
29603W        W36053  18.986   6.234  28.034  0.1681  0.0976  0.0887
29604W        W36054   4.659   7.279  23.747 -0.1124 -0.2010  0.0307
29605W        W36055   9.322   5.732   8.014  0.4692  0.0414  0.1964
29606W        W36056  13.788   0.359  19.893  0.1208 -0.1695 -0.1138
29607W        W36057  12.852   2.420   2.549  0.2169  0.0005  0.2417
29608W        W36058  21.800   3.157  25.166 -0.0629 -0.1476 -0.0576
29609W        W36059  21.269   2.652   7.883  0.1230  0.0253  0.0400
29610W        W36060  20.331   4.301  26.699 -0.3223  0.1352  0.0124
29611W        W36061  15.950   6.735   5.467  0.3273 -0.0047  0.0466
29612W        W36062  23.813   0.903  30.384  0.2641  0.1556 -0.0077
29613W        W36063   3.956   3.766  31.411  0.2050  0.0637  0.0646
29614W        W36064   1.235   0.528  26.983  0.0126 -0.1679 -0.1135
29615W        W36065   4.523   6.624   0.390 -0.0968 -0.0537  0.1091
29616W        W36066  23.939   6.785  24.920  0.1075 -0.2357 -0.2040
29617W        W36067  14.653   2.293  23.814  0.0527  0.0299  0.0122
29618W        W36068   8.528   6.026  26.932  0.1996  0.1178 -0.0088
29619W        W36069   9.841   4.522  23.642 -0.1965  0.1460 -0.0604
29620W        W36070  23.297   5.717   4.541  0.0669  0.1071 -0.2007
29621W        W36071  17.417   1.061   2.337  0.3323  0.0917 -0.0544
29622W        W36072  21.391   3.806   4.043  0.1828  0.0685  0.0407
29623W        W36073  15.665   4.383  17.366 -0.1540 -0.2944 -0.1206
29624W        W36074  23.966   0.838  26.743  0.0813  0.0074  0.2283
29625W        W36075  24.881   5.439  27.665 -0.0029  0.1487 -0.1646
29626W        W36076  24.404   2.757   6.248 -0.0441 -0.0844  0.2216
29627W        W36077  12.531   5.833   7.792  0.2716 -0.1214  0.1582
29628W        W36078  20.667   5.859  18.124 -0.0783 -0.3171  0.0255
29629W        W36079  19.814   2.592  30.116  0.3773  0.1543  0.0532
29630W        W36080  11.185   0.747  32.592 -0.1534  0.2778 -0.0585
29631W        W36081  12.442   3.098   3.567  0.0412  0.0403  0.2655
29632W        W36082  13.209   7.280   1.447  0.2020  0.1369  0.0649
29633W        W36083   8.228   5.232   6.389 -0.0273 -0.1137  0.0847
29634W        W36084  20.039   1.071  26.416 -0.0484 -0.1431 -0.0056
29635W        W36085   3.902   2.301  29.469  0.2299 -0.1651  0.1423
29636W        W36086   1.207   6.707   6.397 -0.3485 -0.2124 -0.0369
29637W        W36087  17.931   6.525  31.300  0.1585  0.1880 -0.0484
29638W        W36088  17.325   1.766   8.545 -0.0253  0.3131  0.0013
29639W        W36089   2.879   0.303  27.882  0.5025  0.0292  0.2940
29640W        W36090   5.328   2.651   1.690  0.0007 -0.1718  0.1873
29641W        W36091  18.437   1.992   3.481 -0.2332  0.0430 -0.0991
29642W        W36092   5.658   4.292  25.070 -0.0809  0.0306  0.1038
29643W        W36093   9.223   5.169  24.533 -0.2532 -0.0674 -0.1174
29644W        W36094   9.574   0.270   3.730  0.1323 -0.2839 -0.3385
29645W        W36095  19.130   2.652  23.175 -0.1889  0.2291 -0.1222
29646W        W36096  17.977   6.774  26.094 -0.2141  0.0064 -0.2209
29647W        W36097  23.689   6.100  29.240 -0.0255 -0.3686  0.0795
29648W        W36098  13.155   5.468  32.141 -0.0546  0.0390  0.1163
29649W        W36099  23.381   6.889   2.783 -0.2973 -0.0330  0.1841
29650W        W36100  17.113   1.827  17.529  0.3199 -0.1085  0.1272
29651W        W36101   4.749   4.320   9.489  0.0272  0.1140 -0.1079
29652W        W36102  22.043   6.246   8.802  0.2013  0.0663  0.0444
29653W        W36103   6.770   0.749  13.639  0.2508  0.1307 -0.0635
29654W        W36104  18.748   7.161  32.622 -0.3110 -0.0656  0.4076
29655W        W36105  24.346   0.610  25.396 -0.0202  0.1626 -0.0348
29656W        W36106  20.798   5.795   0.536 -0.2657 -0.3786  0.2168
29657W        W36107  13.320   3.929   0.158 -0.0956 -0.2449  0.2641
29658W        W36108   0.321   5.262  25.602 -0.1740  0.0892  0.4884
29659W        W36109  15.304   6.025   9.744 -0.0142  0.1260 -0.2273
29660W        W36110   4.194   2.762  18.013 -0.0417  0.0756  0.0477
29661W        W36111  11.520   7.126   5.049  0.0504 -0.0659  0.1921
29662W        W36112  14.618   5.230   5.422  0.0968 -0.1369  0.0550
29663W        W36113   5.402   1.476  26.066 -0.0657 -0.1004  0.1706
29664W        W36114  13.541   1.297   3.887 -0.0854  0.3692 -0.0384
29665W        W36115  20.136   2.769  21.451 -0.1434  0.2596 -0.0564
29666W        W36116  11.376   7.271   5.841  0.1035 -0.1332 -0.0491
29667W        W36117   3.583   2.628  32.421 -0.1316  0.2406 -0.1549
29668W        W36118  11.907   4.266  19.111  0.2235 -0.2172  0.1240
29669W        W36119   7.401   3.017  17.268  0.4468 -0.1436 -0.2968
29670W        W36120   0.657   3.483   9.937  0.2114  0.0932 -0.1161
29671W        W36121  19.861   5.601   1.212 -0.2082  0.0484  0.0888
29672W        W36122   1.527   7.149   1.308  0.0002  0.3504 -0.1365
29673W        W36123   1.555   7.070  12.697 -0.0322 -0.2120 -0.1776
29674W        W36124  18.278   2.413  25.008  0.1233  0.0810 -0.3120
29675W        W36125  17.965   5.316  21.235  0.3495 -0.1106 -0.1469
29676W        W36126  23.473   2.509  21.196  0.0389  0.2236  0.3330
29677W        W36127   7.014   1.371  26.388  0.3189  0.1346  0.0478
29678W        W36128   6.999   6.736  29.208  0.2432 -0.0578 -0.0301
29679W        W36129   5.691   3.108  30.464  0.1105  0.0568 -0.0060
29680W        W36130  12.572   7.080  24.158  0.1566 -0.1416  0.1421
29681W        W36131   0.612   1.977   2.797  0.0118  0.0843 -0.0493
29682W        W36132  12.888   7.572  18.192 -0.0036  0.0816  0.0024
29683W        W36133  10.932   0.701  29.396  0.1181  0.0312  0.2616
29684W        W36134  16.958   1.400   3.094  0.0998 -0.3057  0.1143
29685W        W36135  21.380   6.857  31.830  0.0497 -0.1876  0.0015
29686W        W36136  14.493   6.676  19.780  0.1479 -0.2088 -0.4844
29687W        W36137   1.505   7.659   5.053 -0.0183 -0.0874  0.2191
29688W        W36138   6.585   6.839   4.668 -0.2209 -0.1954 -0.1570
29689W        W36139  10.566   5.928  31.671 -0.2299 -0.2038 -0.1886
29690W        W36140  20.691   6.466  18.816 -0.0698  0.0901  0.0149
29691W        W36141  20.368   7.170  30.750  0.0433 -0.2654  0.1302
29692W        W36142   3.276   0.883  12.328  0.1856 -0.0589  0.2774
29693W        W36143  23.985   6.276  11.160  0.1716  0.0288 -0.1219
29694W        W36144  12.886   1.541   6.928 -0.2557  0.1233  0.4765
29695W        W36145  13.197   2.774  25.509  0.1204 -0.2032  0.3627
29696W        W36146  17.215   3.680  28.475 -0.1255  0.0401  0.0132
29697W        W36147   2.652   4.849   5.536  0.2680 -0.2553 -0.0566
29698W        W36148   6.320   7.553  31.788 -0.0062 -0.3653  0.1191
29699W        W36149  10.908   7.138  32.798 -0.0455 -0.0184  0.1378
29700W        W36150  20.608   4.436  23.063  0.0168  0.1664  0.2044
29701W        W36151   5.535   7.055  30.205  0.0732 -0.0614 -0.0966
29702W        W36152   0.396   4.634   2.995 -0.0109 -0.1005 -0.0855
29703W        W36153  24.185   6.361  30.511  0.1206  0.2450 -0.0652
29704W        W36154   0.280   3.663  31.011 -0.0719  0.2169 -0.1340
29705W        W36155  11.667   1.944   2.289  0.2218 -0.0968  0.1553
29706W        W36156  18.351   1.716  25.198 -0.0281  0.0952 -0.2170
29707W        W36157  15.216   7.081  17.306 -0.0706  0.2927  0.2586
29708W        W36158  11.773   6.964  10.404  0.1446 -0.0459  0.0161
29709W        W36159  10.574   0.063  23.123  0.3406  0.2843 -0.1772
29710W        W36160   9.451   3.226  25.543 -0.2427 -0.3229 -0.2736
29711W        W36161  17.184   4.867   7.667 -0.0954  0.1319 -0.0785
29712W        W36162   0.414   6.811  26.226 -0.0149 -0.1257  0.0927
29713W        W36163  20.651   4.929  18.348 -0.0241  0.0797 -0.0604
29714W        W36164  18.672   7.601  26.774  0.0788  0.6001  0.1364
29715W        W36165  14.121   4.110  29.327 -0.3504  0.2994 -0.1286
29716W        W36166  23.006   6.749  28.474  0.0089  0.1277  0.2044
29717W        W36167  17.698   1.710  20.162  0.0548  0.0903  0.1015
29718W        W36168   1.978   4.495  21.820 -0.2240  0.4285  0.1147
29719W        W36169   6.876   0.223  12.325 -0.0758  0.2452 -0.0872
29720W        W36170   5.906   5.009   6.286 -0.2309  0.0684 -0.2085
29721W        W36171  21.029   6.314   2.932 -0.0196 -0.0116 -0.0379
29722W        W36172  15.744   2.497   8.019 -0.1532 -0.2071  0.1561
29723W        W36173   6.820   6.398  16.354  0.1814 -0.3596  0.0218
29724W        W36174   9.633   0.135   7.939 -0.1797  0.3515 -0.0030
29725W        W36175   7.633   0.986  15.727 -0.0643  0.0618  0.2840
29726W        W36176  15.899   2.784  24.085 -0.0224 -0.0141 -0.2844
29727W        W36177  23.048   1.596   4.902  0.0204 -0.3285 -0.2228
29728W        W36178   5.010   4.469   0.702 -0.1374  0.0441 -0.0208
29729W        W36179  11.391   3.811   7.909  0.1106  0.1043 -0.2138
29730W        W36180  24.093   5.565  25.062  0.2020  0.1125  0.1737
29731W        W36181  16.028   0.082   2.636 -0.1635 -0.0425 -0.0862
29732W        W36182   3.506   1.547  18.223  0.0354  0.0240 -0.1044
29733W        W36183  11.972   7.074  32.614 -0.0459 -0.0939  0.0940
29734W        W36184  23.935   5.811  26.828  0.4009  0.1325 -0.1245
29735W        W36185   1.971   2.695   6.002 -0.0801 -0.0045 -0.1341
29736W        W36186  10.097   0.343  20.480  0.0187 -0.0990  0.1548
29737W        W36187  16.004   5.368   9.155 -0.1777  0.0838  0.0944
29738W        W36188  11.463   2.574  12.261  0.1882 -0.1525 -0.1724
29739W        W36189  24.156   4.975  27.764  0.0341 -0.4847  0.0836
29740W        W36190   0.809   6.344  12.994  0.0812  0.0753 -0.0987
29741W        W36191   7.703   5.544  30.083  0.1592  0.3231  0.0408
29742W        W36192   8.004   3.868   8.750  0.2023  0.0265 -0.2256
29743W        W36193  15.099   2.884  28.307  0.1410 -0.0698  0.1224
29744W        W36194  15.935   2.768   0.840 -0.0585  0.1586 -0.2095
29745W        W36195   1.956   5.909   0.225 -0.0674  0.1774 -0.3427
29746W        W36196  24.069   4.154  23.176  0.3031 -0.0386  0.2529
29747W        W36197  11.359   7.120   8.957 -0.0664 -0.0890  0.4082
29748W        W36198   0.719   3.761   8.463 -0.0836 -0.4493 -0.0508
29749W        W36199  20.962   7.074  24.064 -0.0902 -0.1022 -0.3812
29750W        W36200  17.621   2.767  28.607 -0.1396  0.0445 -0.1085
29751W        W36201  19.582   2.839   6.883 -0.1686 -0.1152 -0.0732
29752W        W36202  15.383   7.725   5.375 -0.1970 -0.1711  0.0873
29753W        W36203  19.942   2.167   8.228 -0.0539  0.4617 -0.0374
29754W        W36204  23.195   2.713   1.979 -0.2194 -0.4388  0.1721
29755W        W36205  22.531   6.844  23.062  0.1013  0.0658 -0.1149
29756W        W36206  21.142   4.816  27.169  0.1492  0.2278  0.0610
29757W        W36207  23.726   7.457  11.152  0.2367  0.3087 -0.0994
29758W        W36208  23.188   3.992  12.067  0.2911 -0.1530 -0.1347
29759W        W36209  21.601   0.213  20.632  0.1332 -0.2161 -0.0786
29760W        W36210   4.228   1.478  14.009  0.1273  0.2217 -0.2195
29761W        W36211  13.189   4.330  29.524  0.1783 -0.0684  0.0226
29762W        W36212   6.604   5.209   8.106 -0.3319 -0.2151 -0.1922
29763W        W36213  20.724   1.818  29.300  0.0810 -0.1126 -0.1415
29764W        W36214  18.251   1.322  18.906  0.0960  0.0438 -0.0556
29765W        W36215   0.194   3.808  23.791 -0.0271  0.0687 -0.0752
29766W        W36216   2.730   3.632   6.128 -0.1159  0.0287  0.1512
29767W        W36217   7.492   4.327  32.230 -0.0942  0.2395 -0.1557
29768W        W36218   3.591   3.991  10.413 -0.1267  0.2648  0.2888
29769W        W36219   8.991   7.551  23.973 -0.2901 -0.1391  0.1468
29770W        W36220  24.427   1.857   2.002 -0.2947 -0.1367  0.3239
29771W        W36221  21.070   2.545   3.422  0.0884  0.1775 -0.0202
29772W        W36222  13.678   2.475   3.614 -0.2295  0.2653  0.1835
29773W        W36223  22.006   5.222   3.500 -0.0252  0.0556 -0.1554
29774W        W36224   3.161   1.585   3.310  0.2328 -0.0015  0.2551
29775W        W36225  21.297   2.101   5.994 -0.2317 -0.1591  0.2573
29776W        W36226   0.823   2.692   7.934  0.1698 -0.0798  0.0881
29777W        W36227  16.082   0.864  21.369 -0.3805 -0.1276 -0.1394
29778W        W36228  15.448   0.075  32.473  0.1166  0.0912 -0.3206
29779W        W36229  22.614   7.013   7.523  0.0911 -0.2258 -0.0064
29780W        W36230  18.279   2.194   9.420 -0.0318 -0.2498 -0.2768
29781W        W36231  14.019   4.564  32.003 -0.0815  0.0056 -0.0110
29782W        W36232   8.251   2.193  32.851 -0.0249  0.1054 -0.1303
29783W        W36233  12.917   0.110  20.336  0.1917 -0.0913 -0.2177
29784W        W36234   3.976   1.821  26.483 -0.0456  0.0883 -0.2804
29785W        W36235  12.734   7.233  26.069 -0.0680 -0.2544 -0.1330
29786W        W36236  22.518   3.140  11.453  0.0354 -0.1364  0.3151
29787W        W36237  21.871   6.386  19.442  0.4059 -0.1693 -0.4210
29788W        W36238  13.475   5.137  30.402 -0.1704  0.0908  0.0263
29789W        W36239  24.694   6.667   2.738  0.5759 -0.1003 -0.2601
29790W        W36240   8.467   2.305   9.270  0.1250  0.0553 -0.0530
29791W        W36241   0.292   3.775  24.627  0.0432  0.0938  0.1483
29792W        W36242   3.528   5.352  17.877 -0.1729  0.0098  0.0738
29793W        W36243  16.279   0.968   6.522  0.0790 -0.2360  0.2169
29794W        W36244   7.224   3.121  26.887  0.4574  0.2190 -0.0330
29795W        W36245   0.382   7.030  27.903  0.0170  0.0534 -0.0226
29796W        W36246   1.802   4.281  29.103  0.0838 -0.2502  0.0933
29797W        W36247  22.684   7.087  30.730 -0.1146 -0.1656 -0.1876
29798W        W36248  19.597   0.890   5.080 -0.0129  0.4403 -0.0812
29799W        W36249  20.389   5.699   0.098 -0.0388 -0.0324  0.0867
29800W        W36250  22.470   6.961   6.967  0.0583 -0.1249  0.1786
29801W        W36251  13.100   4.838  20.829 -0.1019  0.1258  0.1249
29802W        W36252  13.354   2.896  30.577 -0.1283 -0.0913  0.3174
29803W        W36253  21.650   7.495  25.224  0.2102 -0.1176 -0.2458
29804W        W36254   0.991   6.019   7.750 -0.2279  0.0136 -0.1422
29805W        W36255  19.134   1.061   4.393 -0.3030 -0.1279 -0.0278
29806W        W36256   0.955   4.552  13.996  0.1274  0.1556 -0.3181
29807W        W36257   9.799   5.425   5.460 -0.0099 -0.2349  0.1533
29808W        W36258  22.272   2.129  12.138 -0.0901  0.3190  0.0546
29809W        W36259   4.176   6.430  32.327  0.0393 -0.2656 -0.0784
29810W        W36260  11.943   6.328   5.559 -0.2755  0.3411  0.1818
29811W        W36261  16.350   2.364  18.006 -0.1062 -0.0198 -0.0505
29812W        W36262  24.765   5.115  32.389  0.0552 -0.0946  0.0733
29813W        W36263  12.165   1.519  19.311 -0.1066  0.1778 -0.3309
29814W        W36264   9.329   3.945   9.942  0.5748 -0.2730  0.1151
29815W        W36265  14.125   0.011   1.344 -0.0447 -0.0159 -0.0912
29816W        W36266  24.520   4.128   6.169  0.2109  0.1754  0.0396
29817W        W36267  20.385   6.621   5.653 -0.2892  0.0663  0.1872
29818W        W36268  20.569   3.774   6.579  0.1570 -0.0554 -0.1959
29819W        W36269   2.009   4.550  22.712  0.0277 -0.0607 -0.0425
29820W        W36270   5.301   4.906  15.443 -0.2853  0.1269  0.0656
29821W        W36271  14.579   6.827  21.575 -0.3028  0.0673 -0.1849
29822W        W36272   3.877   7.739  16.259 -0.1927 -0.1130  0.2807
29823W        W36273  12.803   6.346   4.067 -0.0914 -0.2736 -0.2212
29824W        W36274   5.905   2.563  24.203 -0.0662 -0.3463  0.0478
29825W        W36275   0.421   5.152  12.090 -0.1692  0.1487 -0.1679
29826W        W36276  20.610   6.178  30.187 -0.0405  0.1194 -0.0789
29827W        W36277   3.119   1.568  28.688 -0.2364 -0.3212 -0.0420
29828W        W36278  19.411   1.026   2.494  0.1792 -0.0961  0.2032
29829W        W36279  21.137   4.753   8.742 -0.2062  0.0594 -0.1076
29830W        W36280  18.437   5.065  19.416  0.3428  0.0790 -0.1052
29831W        W36281  11.536   5.391  10.343 -0.1585 -0.0162  0.0271
29832W        W36282  21.497   4.264   7.353 -0.0073 -0.3619  0.1980
29833W        W36283   4.943   6.282   6.015 -0.2767  0.3592  0.1298
29834W        W36284  10.980   7.415  13.061 -0.0756 -0.0300 -0.0018
29835W        W36285   7.576   7.378  33.007  0.0057 -0.1090  0.0461
29836W        W36286  10.834   4.235   0.965 -0.0912 -0.0455 -0.1097
29837W        W36287   5.297   5.570  29.048 -0.0921  0.1023  0.1491
29838W        W36288  18.904   6.628  25.796 -0.0395 -0.0030  0.1158
29839W        W36289   0.068   5.740  30.015 -0.0349  0.0788 -0.2574
29840W        W36290  24.498   4.260  14.169 -0.1144  0.0294  0.0582
29841W        W36291  21.702   0.712  10.437  0.0290 -0.3013 -0.1221
29842W        W36292  12.797   0.346  21.748  0.1009  0.0148 -0.2366
29843W        W36293  20.568   0.282   1.633  0.2089  0.0768 -0.0837
29844W        W36294  15.927   3.831  25.473 -0.1410  0.1120 -0.2403
29845W        W36295  21.802   6.835   7.709  0.0854  0.3483  0.0023
29846W        W36296  18.212   5.063   7.266  0.0935 -0.0702 -0.1871
29847W        W36297  10.168   1.877   0.449 -0.4628 -0.0553 -0.4551
29848W        W36298   9.085   0.946  22.463 -0.0595 -0.0524 -0.1649
29849W        W36299  16.334   1.722   6.995  0.2253  0.0290  0.0093
29850W        W36300   2.506   5.835   5.283 -0.0505 -0.2317  0.0142
29851W        W36301   3.161   3.929  15.879  0.0470  0.3377 -0.1373
29852W        W36302   6.396   1.314   9.372  0.0409  0.0709 -0.1595
29853W        W36303   1.704   5.677  10.510  0.2466  0.0917  0.1752
29854W        W36304  22.150   2.172  20.698 -0.1995  0.0470  0.0346
29855W        W36305  22.921   4.725  26.383 -0.0872 -0.5085 -0.0907
29856W        W36306  21.189   7.259  28.713 -0.2953 -0.2242  0.1165
29857W        W36307  11.092   3.212   0.244 -0.2729  0.0208 -0.0744
29858W        W36308  15.532   2.043   5.948 -0.1790 -0.1837  0.0468
29859W        W36309   6.554   0.634  23.348 -0.1566  0.0128 -0.1266
29860W        W36310   5.813   1.471   7.623 -0.2598  0.1703 -0.1968
29861W        W36311  19.992   1.918  22.401  0.2151 -0.1662  0.2056
29862W        W36312   6.294   7.059  15.052  0.0665  0.1492  0.1972
29863W        W36313  18.790   7.793  11.031 -0.0184 -0.1679  0.1565
29864W        W36314  13.074   5.884  20.244 -0.1463  0.0229  0.0885
29865W        W36315   5.586   1.721   7.209 -0.0315  0.0453  0.2273
29866W        W36316  16.688   3.060  18.066  0.0802  0.5745  0.1182
29867W        W36317  17.094   6.928  22.963 -0.1512 -0.1080 -0.3488
29868W        W36318  10.781   4.489  26.169  0.0138 -0.0432 -0.1365
29869W        W36319   9.974   7.256  27.498  0.1805 -0.3769  0.2247
29870W        W36320  21.767   0.255   6.920  0.1999 -0.2457  0.0727
29871W        W36321   6.842   6.751  13.736 -0.0391  0.0474  0.0804
29872W        W36322  24.172   4.312  21.788  0.0851 -0.2830  0.2163
29873W        W36323   2.732   0.442   9.370 -0.0683  0.0134  0.1473
29874W        W36324   2.409   3.407  30.400 -0.2154 -0.3339 -0.0126
29875W        W36325  20.624   2.937  28.478  0.2594 -0.0428  0.0539
29876W        W36326   2.328   5.798  24.151 -0.4345 -0.1130 -0.0792
29877W        W36327  16.261   0.431  31.167 -0.0531  0.0335 -0.2020
29878W        W36328   0.573   2.742  21.601 -0.1718  0.0908 -0.0700
29879W        W36329   9.826   2.586  29.665  0.0938 -0.3559  0.0181
29880W        W36330  22.156   7.593  11.619 -0.1659  0.0511 -0.1134
29881W        W36331  19.850   2.629  19.016  0.0982  0.0261 -0.1590
29882W        W36332   2.176   5.823  25.820  0.2170  0.1256  0.0489
29883W        W36333  18.064   3.684  27.480 -0.5331  0.2481 -0.3934
29884W        W36334  24.345   2.209   3.504  0.0002 -0.1732 -0.1354
29885W        W36335  16.196   4.082  14.431 -0.0499  0.0677  0.0768
29886W        W36336   9.336   2.458   7.802 -0.5307 -0.0868  0.2437
29887W        W36337  16.210   4.629   5.719 -0.1833  0.4158 -0.0911
29888W        W36338  17.403   5.100  16.933  0.3051  0.0803 -0.2027
29889W        W36339   4.198   4.259  12.817  0.1215 -0.0695 -0.0684
29890W        W36340  15.200   6.144  29.248  0.1625 -0.1890  0.0515
29891W        W36341  11.091   1.829  27.387 -0.1205 -0.1599  0.1994
29892W        W36342  19.387   5.784   1.055  0.0262  0.3160 -0.1547
29893W        W36343  18.699   0.745   5.129 -0.3357  0.0688  0.1296
29894W        W36344   4.458   0.356  23.611  0.1893 -0.1577 -0.2000
29895W        W36345  20.366   6.299  31.414  0.1522  0.0609  0.2349
29896W        W36346   9.770   5.920  25.137  0.0998 -0.1390 -0.0553
29897W        W36347  11.291   5.021  19.287  0.1605  0.1697  0.0370
29898W        W36348   5.084   6.644   2.663  0.0418  0.1884 -0.0633
29899W        W36349  10.079   2.568  19.306 -0.0769  0.0847  0.0906
29900W        W36350   7.222   4.618  28.979 -0.1712 -0.0957 -0.2383
29901W        W36351  15.184   5.637  32.549  0.2915 -0.2756 -0.3172
29902W        W36352   5.600   1.946  24.019  0.1535 -0.1620 -0.1559
29903W        W36353  13.071   4.372  23.476  0.3214  0.4273 -0.1919
29904W        W36354  12.704   2.515   8.966 -0.2030  0.2124 -0.1845
29905W        W36355  22.943   4.193   4.181 -0.0905 -0.0436 -0.1530
29906W        W36356   2.644   7.345  13.667 -0.1548  0.0989 -0.0988
29907W        W36357   0.548   0.001  24.981  0.1532  0.0835 -0.0899
29908W        W36358   4.989   7.078  26.265  0.3741  0.1126 -0.0932
29909W        W36359  10.653   0.592  23.207 -0.1613 -0.2067 -0.1640
29910W        W36360  13.346   3.731   4.948  0.1882  0.1584 -0.1428
29911W        W36361   7.954   2.291  26.778 -0.1477 -0.2080  0.1147
29912W        W36362   2.099   1.211  26.830 -0.1657  0.0315  0.1472
29913W        W36363  19.719   1.253  20.414  0.2950 -0.0476 -0.1437
29914W        W36364  24.691   4.291  21.781  0.0550  0.1350  0.0234
29915W        W36365  14.925   2.426   3.055  0.0314  0.0223 -0.2137
29916W        W36366   0.867   2.714  16.226  0.1268 -0.0184  0.0020
29917W        W36367  12.146   4.112  21.252 -0.2239  0.0672 -0.0910
29918W        W36368   7.390   3.641  11.724  0.2767 -0.3585 -0.1289
29919W        W36369  15.386   0.534  28.875  0.2045  0.0829 -0.0371
29920W        W36370   0.163   0.727   1.517  0.0538 -0.2994 -0.0466
29921W        W36371   6.000   4.931  14.868  0.0520 -0.1504 -0.1974
29922W        W36372   4.640   7.247  13.864 -0.0543  0.0473  0.2311
29923W        W36373   8.153   7.493   9.891 -0.0930 -0.0965  0.2749
29924W        W36374   6.337   3.894  29.906 -0.2238 -0.4181 -0.1136
29925W        W36375  20.289   5.362  29.085  0.0192 -0.2697 -0.3584
29926W        W36376  21.345   6.213   2.471  0.1238 -0.2888  0.0547
29927W        W36377  10.447   5.729  13.439 -0.1510  0.0703  0.2701
29928W        W36378   5.518   5.128  27.536  0.1332 -0.0702  0.2060
29929W        W36379  15.599   3.916   5.339 -0.1356  0.0369 -0.1991
29930W        W36380   8.740   1.949  25.062 -0.2523  0.2168 -0.0829
29931W        W36381   9.535   3.475   4.260 -0.0268  0.0227 -0.2453
29932W        W36382  13.354   6.982  30.897  0.2458 -0.1527  0.0342
29933W        W36383   5.466   0.375   5.327 -0.0556 -0.1295  0.1777
29934W        W36384   0.303   4.560  29.472 -0.0506  0.0717  0.0263
29935W        W36385  12.950   0.483   9.276 -0.1504 -0.0775 -0.1294
29936W        W36386  14.817   2.168   1.051 -0.1118  0.3409  0.0522
29937W        W36387  22.083   4.073  22.946 -0.2627 -0.2430 -0.0235
29938W        W36388   0.736   5.112  12.900 -0.3731  0.0433  0.1789
29939W        W36389   4.235   2.648  24.811  0.0509  0.0949  0.1830
29940W        W36390  11.916   3.926   0.577 -0.0954  0.0399  0.1883
29941W        W36391  24.488   6.779  23.092 -0.3655 -0.0186 -0.1471
29942W        W36392  17.000   1.687  25.110 -0.1261 -0.0176 -0.1389
29943W        W36393  13.448   0.741  19.906  0.1303  0.4127  0.1013
29944W        W36394   3.714   0.577  27.258  0.0597 -0.1776 -0.1332
29945W        W36395   2.979   2.825   3.009  0.0318 -0.1558 -0.0941
29946W        W36396  14.212   3.644  20.650 -0.1063  0.2025 -0.2297
29947W        W36397  23.410   2.831   6.755  0.2086  0.1902  0.2216
29948W        W36398   4.184   5.414  15.502 -0.2528  0.2154  0.0544
29949W        W36399  22.844   5.371   3.234  0.0351 -0.3517  0.0277
29950W        W36400  21.274   3.524   6.570  0.0589 -0.0134 -0.1604
29951W        W36401   6.491   6.698   2.488  0.0495  0.1367 -0.1515
29952W        W36402  11.512   2.116  30.599  0.0427 -0.0392 -0.1245
29953W        W36403  13.731   5.026  25.899  0.1575  0.0402  0.1429
29954W        W36404  17.356   5.589   6.930  0.1166 -0.0303 -0.1128
29955W        W36405  17.117   1.524  24.207 -0.0975 -0.2304  0.2643
29956W        W36406   8.854   0.057   2.011 -0.1084 -0.1008  0.1994
29957W        W36407  23.855   3.091  25.750 -0.1767 -0.0584  0.0488
29958W        W36408  20.136   5.101  17.416 -0.2149  0.1358  0.0050
29959W        W36409  11.441   5.652   2.045  0.0334  0.3704 -0.0572
29960W        W36410  19.562   4.303   1.330  0.1806 -0.0717 -0.2530
29961W        W36411   0.984   6.943  11.497 -0.1737 -0.1597 -0.2135
29962W        W36412  19.094   5.144   4.451 -0.0756  0.0985  0.0597
29963W        W36413   7.024   1.988   5.366 -0.1703  0.2298  0.0942
29964W        W36414  19.953   1.752  18.106  0.1249  0.0358  0.2987
29965W        W36415   0.311   4.905  25.084  0.2978  0.0220 -0.5196
29966W        W36416   7.786   7.025   9.399  0.1110  0.2316 -0.1802
29967W        W36417   8.364   6.144  23.153 -0.1929 -0.3798  0.0796
29968W        W36418  18.663   2.351   8.243 -0.0614  0.3653 -0.1719
29969W        W36419   9.609   6.432  24.428 -0.0274  0.2855  0.1142
29970W        W36420  18.863   0.171  20.807  0.0447 -0.2618 -0.1876
29971W        W36421  13.896   2.026   1.969 -0.0604 -0.1590 -0.1985
29972W        W36422   9.586   3.569  25.168  0.0002 -0.1082  0.2237
29973W        W36423  14.595   7.472  24.434 -0.1146 -0.0777  0.1127
29974W        W36424  20.765   2.570   5.414  0.0444 -0.0289 -0.1820
29975W        W36425   3.296   2.074   7.620 -0.2283  0.1900 -0.0883
29976W        W36426  15.923   3.347   2.011 -0.4436  0.1247 -0.0560
29977W        W36427  19.609   7.690  21.753  0.0425 -0.2237  0.2186
29978W        W36428  15.700   2.469   5.107 -0.3409 -0.2988 -0.1510
29979W        W36429   4.627   0.070  10.809  0.2814  0.0976 -0.2073
29980W        W36430   9.345   1.533  10.957 -0.0939 -0.0077 -0.0335
29981W        W36431  18.113   4.608  29.242  0.2215 -0.1175 -0.0125
29982W        W36432  21.733   2.898  19.533 -0.0586 -0.0160 -0.1316
29983W        W36433  19.005   7.426  19.764  0.0588  0.1311  0.4105
29984W        W36434  17.704   7.664  18.794 -0.0052  0.1478 -0.1831
29985W        W36435  24.890   3.436  10.520 -0.0899  0.4808 -0.0282
29986W        W36436   0.445   7.523  12.002 -0.1140 -0.2352  0.1662
29987W        W36437   2.651   0.290  13.154  0.1591  0.2762 -0.3035
29988W        W36438  11.094   1.839  19.474  0.1241 -0.1838 -0.1461
29989W        W36439  16.427   1.665  29.291 -0.2238  0.0768  0.1444
29990W        W36440  13.513   2.763   7.896 -0.0540 -0.0797 -0.0869
29991W        W36441  24.442   7.796  12.910  0.0119  0.2231  0.0533
29992W        W36442  19.773   1.167  24.158 -0.0558 -0.1199 -0.1254
29993W        W36443  23.068   5.381  13.052  0.1086  0.0548 -0.0561
29994W        W36444  19.774   5.098  31.197 -0.0705 -0.0207 -0.1242
29995W        W36445  20.550   3.343   7.546 -0.1676 -0.3892  0.0529
29996W        W36446  23.520   3.196  22.955 -0.3679 -0.0931 -0.0530
29997W        W36447   4.008   5.262  28.242  0.0833 -0.0178 -0.3975
29998W        W36448   8.679   4.176  32.322  0.1864 -0.1699  0.1598
29999W        W36449   4.293   3.021   6.887  0.0947 -0.1307  0.0731
30000W        W36450   2.251   7.568   8.952  0.0896  0.1500  0.2613
30001W        W36451   7.268   6.722  32.834  0.2355  0.0501  0.1355
30002W        W36452  23.592   5.248  29.111  0.0396  0.0602 -0.0921
30003W        W36453   9.060   6.641  32.325  0.2754  0.0140 -0.1179
30004W        W36454   5.968   1.248  32.424 -0.2407 -0.2244  0.0998
30005W        W36455   6.792   3.645   4.260  0.1654  0.4627  0.1843
30006W        W36456  24.200   4.746   5.366 -0.1954 -0.0970  0.0353
30007W        W36457   9.117   4.361   7.832  0.1913  0.2006  0.1595
30008W        W36458  21.344   3.502  13.470  0.2964 -0.1468 -0.1494
30009W        W36459  22.456   6.619  31.192  0.1845  0.2940 -0.0873
30010W        W36460   1.608   7.328  23.678  0.2465 -0.0542  0.1124
30011W        W36461  15.903   3.900  27.582 -0.1129  0.2345 -0.4281
30012W        W36462   9.131   1.819   4.978 -0.0037  0.1122  0.1473
30013W        W36463   2.730   4.174  30.948 -0.1766 -0.2960  0.1305
30014W        W36464  22.406   6.837   9.520 -0.1362 -0.1920 -0.1114
30015W        W36465  23.362   0.990  26.794  0.0189 -0.0185  0.2983
30016W        W36466   3.781   2.125  30.458  0.0178 -0.1861  0.0936
30017W        W36467  21.095   4.805  26.544 -0.2869  0.2562  0.2369
30018W        W36468  14.422   3.042  32.622  0.0235 -0.1308  0.2362
30019W        W36469  11.110   3.967  26.846  0.1437  0.0371  0.0646
30020W        W36470  17.924   7.105   6.119 -0.1144 -0.0974 -0.1750
30021W        W36471   9.000   6.116   9.734 -0.0738 -0.1987 -0.2875
30022W        W36472  22.286   0.273   3.714  0.1521 -0.1494  0.0378
30023W        W36473   0.836   5.482  30.533  0.1575  0.1646  0.1374
30024W        W36474  22.577   4.611  28.051 -0.0687 -0.1524 -0.1294
30025W        W36475  20.556   1.279   9.404  0.2245 -0.3242 -0.0801
30026W        W36476  12.630   1.885  22.329 -0.2419 -0.0018 -0.0568
30027W        W36477   7.841   4.484  32.567  0.3136  0.0492 -0.0167
30028W        W36478   6.704   3.585   2.240  0.0847 -0.0563  0.0974
30029W        W36479  21.096   7.679   2.203 -0.3443  0.0396  0.0350
30030W        W36480   9.184   5.435   6.106 -0.0051  0.0412 -0.1244
30031W        W36481  14.388   2.996  21.286 -0.1283  0.0352  0.1219
30032W        W36482  13.715   4.145  31.813 -0.2894  0.0580  0.1148
30033W        W36483  23.352   6.040  23.099 -0.0470 -0.0078 -0.0747
30034W        W36484  16.809   6.399   5.827 -0.1667  0.1492  0.0390
30035W        W36485  19.062   2.845   4.567 -0.2287  0.1944  0.0161
30036W        W36486  20.585   0.263  20.821 -0.0509  0.1604 -0.2177
30037W        W36487  15.927   2.050   2.265 -0.0346  0.2335  0.2241
30038W        W36488  16.482   6.516  31.026  0.0767 -0.2314 -0.0348
30039W        W36489  21.840   6.173   6.918  0.0210 -0.0158 -0.0944
30040W        W36490   9.152   0.136   5.571 -0.0123  0.2847 -0.1653
30041W        W36491  16.005   2.701  28.165 -0.1066  0.4118 -0.1710
30042W        W36492  19.307   6.539  23.788  0.1215  0.0028  0.0243
30043W        W36493  16.422   1.563   4.561 -0.0980  0.2008 -0.2467
30044W        W36494   1.513   5.475  10.014 -0.1534 -0.0809 -0.3370
30045W        W36495  11.613   7.331   2.872 -0.0390 -0.2313  0.1825
30046W        W36496   1.145   0.178  31.493  0.0326  0.1007 -0.2687
30047W        W36497   6.083   0.494   5.261  0.2256  0.5437 -0.0766
30048W        W36498  20.227   4.212  25.057  0.1163 -0.1031  0.2706
30049W        W36499  22.975   5.088  25.449  0.0756  0.0428  0.1339
30050W        W36500   6.880   3.632   3.125 -0.1352 -0.0659 -0.1109
30051W        W36501   7.623   4.636  26.840  0.0774 -0.2776 -0.0052
30052W        W36502  20.082   4.357   8.366 -0.3734  0.0069  0.1114
30053W        W36503  18.127   4.267  16.157 -0.2190 -0.2543 -0.1990
30054W        W36504  12.812   4.085  19.260  0.0420  0.0784  0.3952
30055W        W36505  21.770   1.285  25.807  0.1154  0.1095  0.1675
30056W        W36506  14.732   6.327  15.361 -0.0352  0.2430 -0.0729
30057W        W36507  20.822   6.988  17.557 -0.0071 -0.0506  0.0408
30058W        W36508   3.522   4.251  29.101  0.2615 -0.0457  0.0751
30059W        W36509  19.484   4.405  27.961 -0.2158  0.2220  0.0025
30060W        W36510   6.902   7.304   3.576  0.3547  0.0048  0.2981
30061W        W36511   5.161   5.189  12.176  0.2790  0.0876  0.0908
30062W        W36512  24.890   1.617   2.072  0.3357  0.3897  0.0587
30063W        W36513   0.635   3.870  32.138  0.0340 -0.2909 -0.1368
30064W        W36514   9.691   4.404   3.928 -0.2221  0.0489  0.0180
30065W        W36515   7.487   0.373  10.321 -0.0914  0.2181  0.3033
30066W        W36516  19.657   2.467  23.049 -0.1370  0.0815 -0.1049
30067W        W36517  15.760   2.951  27.038 -0.0653 -0.1793 -0.1025
30068W        W36518  20.180   3.734   1.036 -0.1343  0.0744  0.2665
30069W        W36519  17.357   2.584  16.094  0.2543  0.2061 -0.0528
30070W        W36520  20.237   2.481   7.535  0.0412  0.0073 -0.0262
30071W        W36521   1.914   2.350   5.053  0.0645 -0.0368  0.0275
30072W        W36522   6.781   2.610  28.144 -0.1285  0.0364  0.1262
30073W        W36523   8.121   3.246  14.709  0.2377 -0.2150  0.1481
30074W        W36524  19.047   3.772  15.173  0.1639 -0.0314  0.1688
30075W        W36525  13.065   5.946  11.229  0.2711 -0.2374 -0.0546
30076W        W36526   5.984   6.685  10.799  0.2024 -0.3253 -0.1123
30077W        W36527  15.630   5.668  25.704  0.1416  0.0453 -0.1420
30078W        W36528   7.957   2.146   7.877 -0.2506  0.0748  0.1664
30079W        W36529  22.604   6.259  20.156 -0.0594 -0.0530  0.1595
30080W        W36530   2.661   2.347  30.826  0.1583 -0.0180 -0.1558
30081W        W36531  15.283   7.145  23.548 -0.0124 -0.0426 -0.1260
30082W        W36532  17.356   4.540  23.339  0.1203  0.0385 -0.2008
30083W        W36533  14.530   3.293  23.999  0.1639  0.0495  0.0871
30084W        W36534  22.420   4.778  26.246  0.2330  0.1518 -0.1603
30085W        W36535   0.160   1.855  10.685 -0.0592 -0.3608 -0.0152
30086W        W36536  20.219   1.319   2.291 -0.0279  0.0014  0.0392
30087W        W36537   1.483   1.555  15.931  0.2255 -0.0858  0.0338
30088W        W36538  18.107   5.509   7.479  0.1357  0.0163  0.1500
30089W        W36539  21.608   0.723  27.624  0.0111 -0.1355  0.0644
30090W        W36540   8.061   2.785  26.920 -0.1150 -0.0317 -0.1243
30091W        W36541   4.684   5.381   5.490  0.1119  0.4786 -0.2609
30092W        W36542  10.218   1.464  24.169  0.2688 -0.2872 -0.0982
30093W        W36543   4.610   5.739  26.385  0.0836  0.1571 -0.1124
30094W        W36544  10.951   7.562  29.567  0.1919  0.1523 -0.1557
30095W        W36545   7.530   7.637  31.977 -0.0842  0.0103  0.0530
30096W        W36546  16.007   7.569  28.571  0.0063  0.1224 -0.0568
30097W        W36547   0.961   7.146   6.549 -0.0197  0.2551 -0.2187
30098W        W36548  22.689   3.131  20.894 -0.2528 -0.2562  0.0777
30099W        W36549  22.464   5.533   4.569 -0.0324 -0.1450  0.0216
30100W        W36550   0.592   3.391  24.744 -0.1913 -0.1422 -0.5142
30101W        W36551   1.282   6.356  13.344  0.0061  0.2314  0.0977
30102W        W36552  16.533   3.216  19.519  0.0832  0.1917  0.1007
30103W        W36553  14.357   2.055  24.586 -0.0906 -0.2392  0.1611
30104W        W36554  23.717   0.492  23.836  0.1621 -0.1634  0.3321
30105W        W36555   9.634   2.174   6.339  0.3998  0.0383 -0.3140
30106W        W36556   0.038   4.228  10.866 -0.0305  0.3432 -0.1162
30107W        W36557   0.013   1.330   5.562  0.1212  0.0469  0.2717
30108W        W36558  12.360   4.277   1.354  0.4648 -0.0202 -0.0747
30109W        W36559  20.380   6.435  23.081 -0.0807  0.0790  0.0278
30110W        W36560  21.375   4.011   6.485  0.0465 -0.0594  0.2394
30111W        W36561   1.919   1.705  16.941 -0.0912  0.0062 -0.1489
30112W        W36562  21.202   2.978  26.166 -0.1312  0.0554  0.1792
30113W        W36563   2.633   3.422   0.311  0.1545  0.1995  0.0622
30114W        W36564  20.131   5.077  26.364  0.0283 -0.0442  0.2874
30115W        W36565   9.194   7.088  22.045  0.1677  0.1916  0.1975
30116W        W36566   2.921   4.838  31.858 -0.3127  0.2096  0.1937
30117W        W36567   1.858   4.486   5.706 -0.1049 -0.0693 -0.3289
30118W        W36568  21.357   5.004  23.404 -0.1843  0.0380 -0.0861
30119W        W36569   5.370   7.601  25.643 -0.0572  0.2009  0.0453
30120W        W36570   1.014   2.182  29.635  0.1155 -0.1525  0.2389
30121W        W36571   2.953   3.777   2.799 -0.1699 -0.0463 -0.1165
30122W        W36572   2.413   6.346  11.634  0.0929  0.0029  0.0277
30123W        W36573  24.869   0.070  22.440 -0.1781 -0.0692  0.3577
30124W        W36574  11.304   1.782   0.606 -0.2393  0.3598 -0.0636
30125W        W36575  12.157   0.068  30.856  0.2622  0.1119 -0.1462
30126W        W36576  15.633   0.053  19.664 -0.0014 -0.1091 -0.1913
30127W        W36577   2.590   0.628   8.703  0.3775  0.1758 -0.2301
30128W        W36578  22.023   0.256  26.362  0.1393 -0.2953 -0.2573
30129W        W36579   4.601   5.395   2.277  0.1233  0.3388 -0.0553
30130W        W36580  13.630   4.958  23.467 -0.3598 -0.0010  0.2603
30131W        W36581  24.420   5.102   5.058  0.0932  0.3065 -0.0831
30132W        W36582  17.490   1.787  22.796 -0.1284  0.1142  0.0801
30133W        W36583  18.640   5.477   6.524  0.2089 -0.2573  0.1734
30134W        W36584   6.005   6.884  26.481 -0.2257  0.1496  0.1905
30135W        W36585   4.429   7.194  10.465 -0.1595  0.4110  0.0393
30136W        W36586   6.566   2.956  10.679 -0.1040 -0.2492 -0.1128
30137W        W36587  19.201   1.238   1.520 -0.1509  0.2920  0.0442
30138W        W36588  17.274   7.461  16.635  0.0304  0.2470 -0.0057
30139W        W36589  20.834   5.768  26.275  0.0443 -0.0897  0.2372
30140W        W36590   8.769   4.053   0.636  0.1380 -0.2846  0.0104
30141W        W36591   8.524   5.026   9.569 -0.0298 -0.0690 -0.1361
30142W        W36592   5.140   4.598   6.664  0.2162 -0.1420 -0.2057
30143W        W36593  15.041   4.062   9.432  0.0100 -0.0665  0.0971
30144W        W36594  17.629   6.692   3.963 -0.1503  0.2157  0.1508
30145W        W36595   3.732   0.933  31.377  0.2781  0.0895  0.0540
30146W        W36596  12.018   4.211  24.592 -0.0387 -0.2207 -0.2597
30147W        W36597   2.988   7.219  10.817  0.5071  0.0091  0.0507
30148W        W36598   7.671   7.173   0.579 -0.2718 -0.1152 -0.1549
30149W        W36599  11.147   3.228   3.564  0.3027  0.1324 -0.2864
30150W        W36600  24.083   5.933  24.655 -0.1759 -0.2448 -0.0961
30151W        W36601  13.356   5.594  30.936 -0.2728 -0.2593  0.4229
30152W        W36602   8.472   7.029  26.708 -0.0423 -0.2347 -0.1395
30153W        W36603  16.005   7.304  30.622 -0.0054 -0.3429 -0.0259
30154W        W36604   4.927   3.735  23.356  0.2031  0.1172 -0.2681
30155W        W36605  20.301   5.470  11.149  0.0685  0.0014  0.0168
30156W        W36606   3.142   5.920   6.159  0.1659  0.0770 -0.0918
30157W        W36607   7.729   0.007  23.581 -0.2189  0.2914  0.1962
30158W        W36608   7.521   5.300  27.611  0.0871 -0.0503  0.1561
30159W        W36609  18.466   1.232  17.404  0.0766  0.1785 -0.1925
30160W        W36610  20.672   1.596  29.772 -0.0952  0.0586  0.4139
30161W        W36611  15.151   3.438  28.860 -0.2925  0.0373 -0.1715
30162W        W36612   5.626   0.651  24.315 -0.2317  0.0549 -0.0257
30163W        W36613   8.213   4.086  12.857 -0.1570 -0.1742 -0.1688
30164W        W36614  19.511   0.601  19.918  0.0497  0.2520 -0.1683
30165W        W36615  20.789   0.099  19.790 -0.0265 -0.1555  0.2927
30166W        W36616   9.993   0.719  24.413 -0.0173  0.0290 -0.0446
30167W        W36617   7.437   5.753  23.066  0.2418 -0.0180  0.1443
30168W        W36618  19.428   5.976   3.238  0.0381  0.0687 -0.1043
30169W        W36619  24.606   7.660   8.715  0.0140  0.1667 -0.2403
30170W        W36620  16.730   3.432  26.830 -0.0609  0.0027 -0.1437
30171W        W36621   3.503   6.880  23.640 -0.0095  0.1927 -0.1717
30172W        W36622  14.210   2.959   1.775  0.2152 -0.0326 -0.2520
30173W        W36623   1.451   2.863  27.342  0.2367  0.1104  0.0621
30174W        W36624  11.132   7.156  12.287 -0.2377  0.2795  0.0862
30175W        W36625  12.193   4.693  20.509 -0.0030  0.0537  0.1226
30176W        W36626   6.693   3.734   7.705 -0.1762  0.4632 -0.4485
30177W        W36627  24.914   2.986   6.105  0.1809 -0.1218  0.1414
30178W        W36628  21.001   0.630  28.629  0.1993 -0.0248  0.1880
30179W        W36629  14.536   2.309   3.917 -0.2860 -0.0788 -0.2286
30180W        W36630  20.367   2.235   7.956 -0.3616  0.2021 -0.4272
30181W        W36631  14.699   0.661  31.666 -0.4283 -0.0035  0.2977
30182W        W36632  20.382   7.408  19.038 -0.0883  0.0371 -0.0603
30183W        W36633  23.627   3.847  20.894  0.0054 -0.1760 -0.3552
30184W        W36634  18.316   1.066   5.322  0.1109 -0.2674  0.1809
30185W        W36635   2.787   2.362  24.088 -0.0269 -0.0951 -0.2759
30186W        W36636  15.605   1.096  28.902  0.1945  0.2903  0.1048
30187W        W36637  23.582   0.720  12.601  0.1845 -0.2886  0.0399
30188W        W36638  18.752   4.860  21.444  0.1442  0.0228  0.2026
30189W        W36639  13.613   0.288   3.377  0.0894 -0.1362  0.0485
30190W        W36640   5.560   1.637   5.855 -0.1620 -0.0009 -0.0967
30191W        W36641   7.235   2.914  12.398 -0.0950  0.1373 -0.1738
30192W        W36642   7.784   5.401   3.670 -0.0192 -0.0140 -0.1915
30193W        W36643  19.061   5.794  17.434  0.1273  0.3909  0.2001
30194W        W36644  24.539   0.683  30.583 -0.0636 -0.1560  0.0411
30195W        W36645   6.458   3.090   0.258 -0.0838 -0.0461 -0.1424
30196W        W36646   3.022   1.686  27.651  0.1876 -0.0609  0.3081
30197W        W36647  10.707   7.542   2.126 -0.1826  0.0506 -0.0893
30198W        W36648  14.437   4.988  20.416 -0.2502 -0.1416 -0.2759
30199W        W36649  18.293   2.474   5.673 -0.2225 -0.0193 -0.0776
30200W        W36650   0.833   6.676   3.614  0.1232 -0.1117 -0.0515
30201W        W36651   5.506   0.670   4.853 -0.1983  0.1444 -0.0976
30202W        W36652   0.790   3.628   7.616  0.2085 -0.1524 -0.1874
30203W        W36653   6.010   7.038   5.806  0.0174 -0.1875 -0.0260
30204W        W36654  19.483   6.250  11.823  0.3878  0.0845  0.2780
30205W        W36655   4.710   3.254  32.125  0.0197 -0.1992 -0.0006
30206W        W36656   7.082   3.514  31.454 -0.1525  0.0936  0.1344
30207W        W36657  19.492   4.449  10.593  0.2399 -0.1175  0.0425
30208W        W36658  11.067   4.832  11.964 -0.0236 -0.1396 -0.0444
30209W        W36659  17.774   2.489  15.486  0.1801  0.2545  0.0745
30210W        W36660   8.051   1.003   9.836  0.0787  0.0753 -0.0418
30211W        W36661  19.234   0.214  30.093 -0.1837 -0.1656  0.0502
30212W        W36662   3.993   2.916  24.499 -0.0525 -0.0535  0.1595
30213W        W36663  24.516   6.893  12.675  0.1097  0.2590 -0.0218
30214W        W36664   5.371   4.062  13.607 -0.0892 -0.1987 -0.1583
30215W        W36665   9.805   5.817  22.440  0.2123 -0.0281 -0.0568
30216W        W36666  18.973   3.866  22.212 -0.0043  0.3550  0.1682
30217W        W36667   6.015   4.356  11.232 -0.0357 -0.2633  0.0780
30218W        W36668   7.708   1.643  25.946 -0.2399  0.2623 -0.0597
30219W        W36669  13.198   1.791   7.218 -0.3096 -0.0847 -0.0103
30220W        W36670  20.858   3.969  25.280 -0.1271 -0.0443 -0.1553
30221W        W36671  17.784   7.257  28.808 -0.1568 -0.0732  0.0581
30222W        W36672  16.082   3.629  10.835 -0.0366  0.1105  0.0392
30223W        W36673  19.069   6.566   1.555 -0.0632  0.1021 -0.0689
30224W        W36674  10.356   5.597  27.771 -0.0674 -0.0465  0.2876
30225W        W36675  22.731   1.870  12.943 -0.1746  0.2064 -0.1869
30226W        W36676  24.037   5.705  31.979  0.1277  0.0544  0.0289
30227W        W36677   2.885   2.299   7.821 -0.1866 -0.0793  0.1503
30228W        W36678   6.220   0.258  13.745  0.1599 -0.0030 -0.2673
30229W        W36679  20.622   6.888  27.355  0.0060  0.0570  0.0925
30230W        W36680  24.895   6.420   3.453  0.0381 -0.2751 -0.3671
30231W        W36681  24.341   6.701   2.372 -0.3044 -0.0914 -0.3340
30232W        W36682  23.574   2.047  27.666  0.1265  0.3728 -0.0525
30233W        W36683   3.205   2.418  24.980  0.0419 -0.1931 -0.3237
30234W        W36684  16.642   4.008  19.822  0.0329 -0.1302 -0.0429
30235W        W36685   6.537   6.281  30.039 -0.2453  0.2976 -0.0035
30236W        W36686  15.727   7.535  23.610  0.1484 -0.5047 -0.0107
30237W        W36687  15.287   5.307  10.850  0.1163 -0.0248 -0.1538
30238W        W36688  17.592   0.200   4.326 -0.1194  0.0549  0.1444
30239W        W36689  20.127   4.634  20.709  0.3615 -0.1438 -0.4264
30240W        W36690   9.955   3.760   9.013  0.1758  0.0718 -0.0714
30241W        W36691  23.826   0.769   0.252  0.1684  0.2491 -0.2513
30242W        W36692   5.724   1.112  11.511 -0.0181 -0.0520 -0.0969
30243W        W36693   4.783   6.363  14.706 -0.1028 -0.2432 -0.1370
30244W        W36694  12.783   1.410  24.104  0.4956 -0.1937  0.0933
30245W        W36695   1.169   1.312  31.614 -0.2824 -0.1574 -0.1837
30246W        W36696   6.437   4.211  26.073  0.4052 -0.1052 -0.1999
30247W        W36697   7.657   3.944  24.819  0.2617 -0.0866  0.2878
30248W        W36698  14.839   3.380  28.364 -0.1740 -0.2932 -0.0398
30249W        W36699   3.170   1.805  14.819  0.1231 -0.0809 -0.3703
30250W        W36700  17.380   2.952   0.743 -0.0070  0.0012  0.0109
30251W        W36701   7.755   4.278   8.484 -0.2854  0.1932  0.1574
30252W        W36702  16.563   7.786   4.887 -0.1295  0.0495  0.0081
30253W        W36703  13.451   5.520   8.068 -0.2181  0.1037  0.0792
30254W        W36704   1.934   6.404   0.493 -0.2786 -0.1292 -0.0226
30255W        W36705  17.241   2.719  18.922 -0.0305 -0.1762 -0.1893
30256W        W36706   9.815   6.457   1.548 -0.1739  0.0626  0.2347
30257W        W36707   1.620   1.557  10.855 -0.0626  0.0919  0.2553
30258W        W36708  24.895   7.325  25.611 -0.0023 -0.0264  0.1091
30259W        W36709  10.050   7.314  32.767  0.1275 -0.1501  0.2793
30260W        W36710   0.268   0.136  13.737 -0.1186 -0.1016  0.2211
30261W        W36711  17.541   6.972   4.739 -0.2940 -0.0481 -0.0261
30262W        W36712   9.025   4.642   2.805  0.1805  0.2759 -0.1188
30263W        W36713  14.033   3.807  32.520  0.0675  0.0015  0.0431
30264W        W36714  21.312   5.323  18.763  0.0365 -0.1765 -0.1854
30265W        W36715   0.233   5.083   3.580  0.3071 -0.0347 -0.1290
30266W        W36716  10.910   3.751   3.136  0.1702 -0.1604  0.1199
30267W        W36717   1.752   4.379  26.292  0.0115 -0.1369  0.2839
30268W        W36718  17.288   5.532  24.293  0.0046  0.0011  0.0201
30269W        W36719  13.496   0.415   6.597 -0.1565  0.1502  0.0613
30270W        W36720  20.531   4.696   0.075  0.0717 -0.0397 -0.1734
30271W        W36721  15.878   1.344  22.164 -0.3048 -0.0373  0.0696
30272W        W36722  10.088   6.058  25.532 -0.0232  0.0618 -0.0872
30273W        W36723  18.521   6.137   4.397  0.2217  0.1608  0.1181
30274W        W36724  21.310   1.176  11.171  0.1998 -0.1387  0.1956
30275W        W36725  20.430   1.302  29.359 -0.1351 -0.0063  0.0336
30276W        W36726   1.489   0.293  24.921 -0.3112 -0.1034  0.0082
30277W        W36727  10.428   2.336  11.700 -0.2702 -0.1125  0.1427
30278W        W36728   8.866   1.392   5.078  0.0074  0.1120 -0.3602
30279W        W36729   7.880   2.761   5.101  0.1905 -0.2650 -0.0465
30280W        W36730   2.022   7.381  14.592  0.0988  0.1700 -0.3592
30281W        W36731  20.680   4.188   4.484 -0.2724  0.1929 -0.1753
30282W        W36732  17.965   5.409  27.166 -0.1332 -0.1977  0.0490
30283W        W36733  17.421   3.989  27.267  0.2361 -0.1067  0.2828
30284W        W36734  17.835   0.685  32.209  0.1354  0.3017 -0.2880
30285W        W36735  23.702   7.000  27.638 -0.0384  0.0808  0.1918
30286W        W36736   6.431   6.241   7.726 -0.0015 -0.1291  0.0674
30287W        W36737   8.811   7.212   8.397  0.0414 -0.2324 -0.1955
30288W        W36738  20.528   6.950   8.124 -0.0578 -0.0191  0.2187
30289W        W36739   5.191   0.018   3.966 -0.1746 -0.1018  0.1081
30290W        W36740  18.292   0.999   2.111  0.1770  0.0142  0.3286
30291W        W36741   1.480   2.506  24.719  0.2991  0.0743 -0.0416
30292W        W36742  18.638   2.955   9.247  0.1353 -0.0785 -0.0576
30293W        W36743   3.716   7.208   1.619 -0.2018 -0.1412 -0.1088
30294W        W36744  10.632   0.943   6.754  0.1179  0.2952  0.0024
30295W        W36745  14.591   6.901  15.060 -0.1250  0.1854 -0.0783
30296W        W36746   3.150   5.481  13.231 -0.1305  0.3305 -0.1168
30297W        W36747   6.902   4.476  13.251  0.0188  0.4026  0.2623
30298W        W36748   5.979   3.953  25.990  0.3501  0.3616  0.0314
30299W        W36749  11.028   1.076   5.407  0.2082  0.3884 -0.0455
30300W        W36750   2.170   5.211  15.379 -0.0635 -0.3939 -0.0858
30301W        W36751  15.867   3.103  32.379  0.3648  0.1719 -0.0597
30302W        W36752  22.210   6.693   4.460 -0.0470 -0.0213  0.1620
30303W        W36753   4.981   7.231   7.319  0.1830  0.0559 -0.0258
30304W        W36754   0.712   5.106  28.100  0.1365 -0.0724  0.0991
30305W        W36755  15.114   3.869   6.972 -0.1069  0.0115  0.1529
30306W        W36756  13.508   5.060  21.709 -0.1785  0.0408 -0.1327
30307W        W36757   1.426   3.457  29.887 -0.0769  0.0826 -0.4186
30308W        W36758   8.429   2.319  10.956 -0.0903 -0.0712 -0.3123
30309W        W36759   7.569   0.940  31.573  0.3536  0.0206 -0.2538
30310W        W36760  18.814   5.644   6.083  0.1449 -0.0992  0.1070
30311W        W36761   7.344   7.712  11.239  0.2027 -0.3366  0.0141
30312W        W36762   1.097   2.458   3.434  0.0033  0.5150  0.2703
30313W        W36763   0.996   2.282  13.825  0.0376 -0.1133  0.0364
30314W        W36764  22.851   5.601   9.778  0.1577  0.0250 -0.1798
30315W        W36765  17.040   7.618   6.975 -0.2182 -0.0818 -0.1445
30316W        W36766  23.270   2.991  25.840  0.0927  0.2158  0.0287
30317W        W36767  18.976   5.692  23.978  0.3390 -0.0333  0.1644
30318W        W36768  17.739   2.737   8.278 -0.0346  0.0827 -0.3448
30319W        W36769   6.190   4.959  25.562  0.1877  0.0077 -0.1404
30320W        W36770  16.605   0.888  18.793 -0.1087 -0.2196 -0.3183
30321W        W36771   9.910   0.513  26.358 -0.2992  0.0597  0.1162
30322W        W36772  19.651   3.368   0.007  0.0451 -0.0491  0.4994
30323W        W36773   7.324   2.932   9.855 -0.1553  0.1586  0.0997
30324W        W36774  24.789   0.934   8.053  0.1673  0.0711  0.1410
30325W        W36775  24.487   1.481   5.380 -0.1107 -0.0320  0.3665
30326W        W36776   3.062   4.172   7.363 -0.0379  0.0529  0.1187
30327W        W36777  18.541   2.998  21.156  0.0156 -0.0750  0.0191
30328W        W36778  24.368   0.032   6.211  0.0253 -0.0618 -0.1808
30329W        W36779  10.284   2.861  31.558  0.1611 -0.0376  0.1209
30330W        W36780  14.852   5.321  26.478  0.2984 -0.0125  0.1086
30331W        W36781   4.600   5.341  12.107  0.1849  0.1453 -0.0633
30332W        W36782  14.523   1.446   3.135 -0.2368 -0.0575 -0.4892
30333W        W36783  24.893   3.986  22.166  0.1030 -0.1514  0.0638
30334W        W36784  24.791   7.154  10.219  0.0755  0.0905 -0.0469
30335W        W36785  15.050   6.006  32.149  0.2839 -0.0418 -0.0556
30336W        W36786  17.856   2.083   9.687  0.2128 -0.1210 -0.1933
30337W        W36787  22.543   2.843  13.651 -0.1107  0.0138  0.0757
30338W        W36788  14.012   5.321  18.570 -0.0220  0.1427  0.0689
30339W        W36789  24.089   4.280   7.039  0.3503  0.1167  0.0355
30340W        W36790   0.425   0.559  30.649  0.2399 -0.2743 -0.1609
30341W        W36791   6.159   5.429  25.681  0.0207 -0.4452  0.2667
30342W        W36792  20.422   1.164   1.901 -0.0987 -0.1595  0.1407
30343W        W36793  16.226   7.472  21.599 -0.0168 -0.2461 -0.1213
30344W        W36794  15.902   0.600  16.309  0.0552 -0.3163 -0.0357
30345W        W36795   4.639   7.653  32.297  0.1123 -0.1619 -0.0326
30346W        W36796  20.896   5.118  18.754 -0.3602  0.0769 -0.0423
30347W        W36797   4.942   2.799   3.436  0.0324  0.1990  0.1285
30348W        W36798   1.717   4.334   1.463 -0.1211  0.1272 -0.4292
30349W        W36799  21.105   4.395  32.644  0.0322 -0.3222  0.2185
30350W        W36800   4.475   1.184  17.859 -0.5189 -0.1427 -0.2461
30351W        W36801  20.154   6.749  23.601 -0.1509 -0.0368 -0.0878
30352W        W36802   0.725   6.491  23.166 -0.0025  0.0037  0.1270
30353W        W36803  16.017   1.739  28.429 -0.1027 -0.1267  0.1520
30354W        W36804  22.916   1.729   7.995 -0.2205  0.0717  0.2417
30355W        W36805  16.135   0.863  18.586  0.0589 -0.3360  0.2017
30356W        W36806  12.958   4.590  31.726 -0.1158 -0.3056 -0.0736
30357W        W36807  19.708   2.005  26.620 -0.1074  0.0963  0.2145
30358W        W36808  24.576   0.064   7.717  0.2112  0.1859  0.0228
30359W        W36809  15.186   0.706  27.866 -0.0516  0.1338 -0.0941
30360W        W36810  10.605   4.129   0.462 -0.0495  0.0157  0.1346
30361W        W36811   2.980   4.417  17.706  0.1513  0.4480  0.2818
30362W        W36812   8.622   3.220  23.860 -0.0942  0.1594  0.1301
30363W        W36813  21.486   3.766  12.235  0.1918  0.0267 -0.1477
30364W        W36814  11.277   2.725   5.658  0.0531  0.1051 -0.0063
30365W        W36815   0.630   0.380  26.771 -0.0688 -0.1220  0.0310
30366W        W36816   8.365   2.657  21.508  0.0280  0.1991 -0.3683
30367W        W36817   4.402   7.607   2.688  0.2900 -0.1902 -0.0609
30368W        W36818   8.500   4.347  22.845 -0.0039 -0.0520  0.0605
30369W        W36819  13.668   1.986   9.573  0.0090 -0.1231  0.0838
30370W        W36820   6.289   4.451  29.871  0.0095  0.0260  0.1814
30371W        W36821  21.427   2.903   5.278  0.1083  0.2904 -0.0176
30372W        W36822  13.895   5.070  22.050  0.0943 -0.0931  0.3428
30373W        W36823   4.508   2.302  26.187 -0.0277  0.1945 -0.1911
30374W        W36824   7.512   3.951   8.112  0.2321  0.0153 -0.0997
30375W        W36825   0.527   6.634  15.329  0.0039 -0.2286 -0.0323
30376W        W36826  15.463   7.508  19.942 -0.1021 -0.0559  0.1886
30377W        W36827  11.365   6.357  18.550  0.0909 -0.0055  0.0881
30378W        W36828  11.938   4.387  10.238 -0.1758  0.0412  0.0920
30379W        W36829  22.971   1.360  19.882 -0.0843 -0.3286 -0.0839
30380W        W36830  21.875   1.382  12.059  0.1459 -0.2129  0.0827
30381W        W36831  23.628   5.035   8.918  0.0523  0.1178 -0.0776
30382W        W36832   7.179   2.825   2.182  0.1230  0.0259 -0.0382
30383W        W36833  18.403   4.284   5.624  0.0309 -0.1439  0.1780
30384W        W36834  19.114   5.858  28.826 -0.1481 -0.2163  0.1629
30385W        W36835   2.056   7.470  15.237  0.0731 -0.2519  0.1521
30386W        W36836   6.400   6.501  13.490  0.0463 -0.0911 -0.1064
30387W        W36837  24.339   2.643   2.789 -0.3985  0.0024  0.2402
30388W        W36838  11.470   4.745   0.441  0.1446 -0.0217  0.0365
30389W        W36839   9.086   7.572  24.924  0.0455 -0.2027  0.0551
30390W        W36840  10.169   3.071   4.122  0.3134  0.0712  0.0454
30391W        W36841  12.696   4.210  31.559 -0.0471 -0.0732 -0.1460
30392W        W36842  23.867   4.178  13.105 -0.1430 -0.1474  0.4507
30393W        W36843  17.259   3.628   8.143 -0.1504 -0.1469  0.1126
30394W        W36844   4.821   0.713   9.380 -0.3589  0.2105  0.0584
30395W        W36845   1.976   3.599  23.115  0.2650 -0.2505 -0.3621
30396W        W36846  22.189   0.637   3.292  0.0732  0.1315 -0.4064
30397W        W36847  10.988   0.052   9.156  0.0199  0.1352 -0.1807
30398W        W36848  23.059   6.661  11.380 -0.0898  0.1288 -0.0847
30399W        W36849  21.744   4.843  20.148  0.3843 -0.0578 -0.0475
30400W        W36850   5.165   7.487   7.982 -0.2015 -0.2044 -0.0337
30401W        W36851  19.262   7.435  31.811  0.0114  0.0752 -0.3588
30402W        W36852  17.681   6.229   0.426  0.1180 -0.3417  0.0436
30403W        W36853  18.585   5.669  16.350  0.0369  0.0600 -0.2320
30404W        W36854  22.103   6.610  29.284 -0.3877  0.0391  0.1260
30405W        W36855  24.719   3.905  21.138  0.2969  0.0996  0.1558
30406W        W36856   1.086   5.185  32.594 -0.0558 -0.0750 -0.0073
30407W        W36857  10.830   1.614  30.017 -0.1161  0.1553 -0.1878
30408W        W36858  15.773   1.889   2.706  0.0548  0.4228 -0.3709
30409W        W36859   2.797   2.975  14.077  0.1132 -0.2277 -0.0741
30410W        W36860  20.038   6.547  10.025 -0.0513 -0.1566  0.2930
30411W        W36861  20.494   0.746  25.734  0.0698 -0.1520 -0.0307
30412W        W36862  22.893   7.717  10.291  0.1655  0.1826 -0.1038
30413W        W36863  10.896   5.588  27.332 -0.1892 -0.0816 -0.0657
30414W        W36864  12.205   5.527   4.433 -0.1240  0.0172 -0.0284
30415W        W36865  16.109   4.287   4.163  0.3268 -0.1747  0.0486
30416W        W36866  13.885   5.345  16.901 -0.0605 -0.0813  0.3352
30417W        W36867  21.821   7.578   5.642 -0.1792 -0.0487 -0.1798
30418W        W36868   4.780   6.544   9.780  0.0175  0.0592  0.2675
30419W        W36869  12.039   4.568   2.259 -0.1819  0.2772 -0.2679
30420W        W36870  18.584   1.092  16.816 -0.0282 -0.0949 -0.0007
30421W        W36871   9.893   2.914  11.295 -0.2571 -0.0414 -0.0350
30422W        W36872  15.699   3.579  20.093  0.2118  0.2850 -0.2122
30423W        W36873   8.616   3.560   6.039  0.1900 -0.1057 -0.0452
30424W        W36874  16.610   4.961  15.810 -0.0957 -0.0156  0.3570
30425W        W36875  13.728   0.250  15.553 -0.1949  0.0826 -0.3879
30426W        W36876   5.869   2.542   7.644  0.0101  0.0928 -0.1277
30427W        W36877  18.383   2.879  18.444 -0.3680 -0.0654 -0.2774
30428W        W36878   2.930   0.703  26.801  0.0887 -0.0098 -0.2430
30429W        W36879   0.412   3.308   8.627  0.0573  0.1244  0.1573
30430W        W36880  15.050   2.203   6.294 -0.0694  0.0827 -0.0353
30431W        W36881  21.174   0.289  25.912 -0.3081 -0.0929  0.1488
30432W        W36882   2.819   1.301  26.417  0.1274  0.2215 -0.0329
30433W        W36883  14.604   6.354   6.621 -0.1665  0.1468  0.2148
30434W        W36884  14.974   4.535  21.237 -0.1550 -0.0452 -0.2797
30435W        W36885   5.802   6.333  23.066  0.2260 -0.1766  0.0006
30436W        W36886  22.569   1.937  32.443  0.2988 -0.1449 -0.1409
30437W        W36887   2.027   4.670   6.953  0.2528 -0.1296 -0.0566
30438W        W36888  13.625   3.900   9.711  0.0638  0.3251  0.0569
30439W        W36889  17.408   2.023   9.456 -0.0169  0.1248 -0.1391
30440W        W36890   3.104   6.967   4.497 -0.4490 -0.0891  0.0250
30441W        W36891  12.518   2.850   9.684 -0.2848 -0.3246 -0.1598
30442W        W36892   1.632   4.195  22.596 -0.1534 -0.4265 -0.0384
30443W        W36893   7.335   3.127   1.762  0.2505  0.0219  0.0971
30444W        W36894  13.705   5.145   7.810 -0.0766 -0.0354  0.1757
30445W        W36895   3.256   1.023  14.669 -0.0850 -0.1256  0.2097
30446W        W36896   6.033   4.172   0.262  0.2140 -0.1188 -0.1147
30447W        W36897   1.805   3.062  15.724  0.0728 -0.0216  0.3412
30448W        W36898  24.296   0.236   4.312  0.1925  0.2220  0.3257
30449W        W36899   5.943   0.411  30.097  0.0097 -0.2239  0.0874
30450W        W36900  11.002   6.661   9.889 -0.1936  0.1234  0.0889
30451W        W36901  16.114   5.179   5.967 -0.0118 -0.0663 -0.2830
30452W        W36902  12.726   6.638  24.259  0.0966  0.0181  0.1269
30453W        W36903   8.344   2.965  15.113  0.1228  0.0058  0.1297
30454W        W36904   7.579   1.457  15.736  0.2370  0.0327 -0.0525
30455W        W36905   8.657   3.554  22.244  0.0158  0.1926  0.1974
30456W        W36906  15.025   7.483  26.005 -0.0518 -0.4822  0.1702
30457W        W36907  13.110   7.633  29.325  0.2779  0.1428  0.2024
30458W        W36908  18.795   6.560  20.424  0.2702 -0.0754 -0.2556
30459W        W36909   2.292   3.576  28.696 -0.0950  0.0582  0.0749
30460W        W36910  22.101   6.616   5.943 -0.2006  0.1383  0.0433
30461W        W36911  18.582   4.958  23.323  0.3843 -0.2237  0.2431
30462W        W36912   9.492   0.155  26.694 -0.1858  0.2769 -0.2546
30463W        W36913  16.612   1.424   9.509  0.0048 -0.0164  0.0133
30464W        W36914   0.507   1.697  27.308 -0.0013 -0.0143  0.1500
30465W        W36915   5.750   2.746  17.379  0.1020 -0.5513 -0.1240
30466W        W36916   4.452   7.041  26.375  0.1446 -0.1780 -0.0948
30467W        W36917  19.216   1.825  27.079  0.2786  0.3775  0.2413
30468W        W36918   4.327   5.984   4.787  0.1218  0.0769  0.2506
30469W        W36919   2.260   5.128   6.481  0.1431 -0.4274  0.2235
30470W        W36920   2.618   5.486   1.110  0.3883  0.2669 -0.0875
30471W        W36921  13.763   1.715   8.735 -0.0360 -0.0501  0.0257
30472W        W36922  19.534   1.737  21.333  0.0109 -0.0818 -0.0038
30473W        W36923  12.325   1.800   8.064  0.0238  0.2526  0.2837
30474W        W36924  16.796   2.235  24.416 -0.1956  0.1516 -0.0763
30475W        W36925  11.898   0.917  17.316 -0.0920  0.1921  0.0386
30476W        W36926  21.911   2.035  28.427  0.0098  0.0473 -0.0815
30477W        W36927   1.434   3.779   2.558  0.1897 -0.0949  0.2080
30478W        W36928  22.496   3.184   3.528  0.1510 -0.2748 -0.0199
30479W        W36929   7.606   2.514   8.053  0.0678 -0.1008  0.0168
30480W        W36930  22.565   6.440  12.015  0.0421 -0.0037 -0.2086
30481W        W36931   9.499   7.525  23.769  0.0615 -0.2790  0.1108
30482W        W36932   2.128   3.906  23.999  0.0136  0.0196 -0.2055
30483W        W36933  17.047   6.807  30.778 -0.1432 -0.3233 -0.1754
30484W        W36934   5.233   1.792  30.226 -0.4506  0.3576  0.0964
30485W        W36935  10.899   1.798  26.421 -0.0610 -0.1163  0.0049
30486W        W36936  15.576   0.765  20.088  0.0269 -0.0478  0.1651
30487W        W36937   2.359   5.729  31.707  0.1078 -0.0756 -0.1295
30488W        W36938   3.527   7.096  24.389  0.0302  0.3893  0.1271
30489W        W36939   3.726   5.680   9.727  0.1622  0.2335 -0.0599
30490W        W36940  14.162   3.657  25.226  0.2202 -0.4502  0.0101
30491W        W36941  16.143   2.500   4.835  0.0361  0.2153  0.0909
30492W        W36942   6.220   7.502  16.000 -0.2448 -0.2034  0.2095
30493W        W36943  19.853   1.158   6.270 -0.0642  0.0616  0.3532
30494W        W36944  18.978   1.096   6.027  0.3402  0.1042 -0.0278
30495W        W36945   3.857   5.472  25.135  0.1347 -0.1096 -0.2047
30496W        W36946   1.371   3.526   5.071 -0.2449  0.1855 -0.2609
30497W        W36947   2.007   1.970  29.674  0.1444 -0.2257 -0.1661
30498W        W36948  12.629   4.345  32.070 -0.0359 -0.2781 -0.1943
30499W        W36949  22.461   0.756   6.662 -0.0412 -0.1806 -0.0591
30500W        W36950  13.472   0.621   7.959 -0.1557  0.0505 -0.1322
30501W        W36951   1.249   4.926   0.249  0.1589 -0.1637  0.0155
30502W        W36952   5.169   5.873  13.822  0.1057 -0.0377 -0.0318
30503W        W36953  18.435   6.188   0.929 -0.1319  0.0102 -0.3903
30504W        W36954  24.048   0.855   4.148 -0.3191 -0.0662 -0.0400
30505W        W36955   5.934   0.661   0.095  0.0982  0.0984  0.0207
30506W        W36956  10.457   4.746  30.594  0.0524 -0.2887 -0.1400
30507W        W36957  16.553   2.101  16.120  0.0505 -0.1520 -0.1924
30508W        W36958   5.906   2.855   3.548  0.0595 -0.2936  0.5199
30509W        W36959  24.407   0.677  32.953 -0.2980  0.1606  0.1367
30510W        W36960  23.792   5.864   6.782  0.0468 -0.1541  0.1377
30511W        W36961   9.622   6.762   8.408  0.0762  0.1238 -0.0751
30512W        W36962  11.790   4.648  18.247  0.0780 -0.0217  0.1825
30513W        W36963  12.441   7.515  24.441 -0.2223 -0.1331  0.0323
30514W        W36964  10.418   6.239  28.082  0.0008 -0.2957 -0.0497
30515W        W36965   5.136   3.057  25.836  0.1883 -0.0199 -0.0793
30516W        W36966  22.936   4.714  19.786  0.0340  0.0072  0.0044
30517W        W36967   4.413   7.707   6.160 -0.1246 -0.1884  0.0358
30518W        W36968   8.297   6.663  11.802 -0.0317 -0.0362 -0.1134
30519W        W36969   9.826   7.204  22.148  0.2448  0.3179  0.0466
30520W        W36970   0.598   1.673  25.393 -0.2857 -0.0547  0.0897
30521W        W36971  13.678   1.183   1.361 -0.0385 -0.1311  0.1803
30522W        W36972   5.933   5.085  32.088 -0.3153  0.0495  0.2215
30523W        W36973  17.011   6.223   8.174  0.0902  0.2598 -0.2485
30524W        W36974  10.714   5.485   7.508  0.2142  0.3167 -0.2165
30525W        W36975   8.569   5.614  25.847 -0.0468  0.2125 -0.0705
30526W        W36976   4.214   0.436   0.814 -0.1594 -0.4100  0.1906
30527W        W36977  12.502   2.281  24.392  0.2933  0.0138  0.3115
30528W        W36978   0.765   7.543   7.932 -0.0069  0.0312  0.1142
30529W        W36979  21.496   3.161  23.404  0.0988 -0.2777 -0.0534
30530W        W36980  17.778   7.711  25.554 -0.2298 -0.2643 -0.0296
30531W        W36981  13.583   1.827   6.181 -0.3010  0.0130 -0.0733
30532W        W36982  14.051   1.933  28.350  0.1172 -0.0862  0.1820
30533W        W36983   5.620   3.403   5.135 -0.2333 -0.3046 -0.3491
30534W        W36984   6.621   4.855  23.998 -0.1302  0.0101  0.0604
30535W        W36985   9.659   6.425   3.169 -0.0513 -0.0250  0.1557
30536W        W36986  20.879   6.835  28.558  0.3343  0.1715 -0.3995
30537W        W36987   5.662   5.513  16.891  0.1025  0.2396 -0.0575
30538W        W36988   8.069   0.935  32.777 -0.0576 -0.2095  0.0617
30539W        W36989  16.723   1.160   4.654  0.2718 -0.1628 -0.2098
30540W        W36990   7.801   3.203  31.493  0.3739 -0.4381 -0.1918
30541W        W36991   3.453   3.110   5.660 -0.3302 -0.0832  0.0050
30542W        W36992   5.663   2.265   1.865 -0.0825 -0.1709 -0.1809
30543W        W36993   9.705   3.150  12.735 -0.1377 -0.1681  0.1851
30544W        W36994   1.238   6.551  11.452  0.2633  0.0934  0.1182
30545W        W36995  13.459   6.772  27.291 -0.0150  0.0099 -0.1205
30546W        W36996   6.824   2.082  11.721 -0.0048 -0.0930  0.2809
30547W        W36997  15.041   4.970  17.918  0.0544 -0.0999  0.0427
30548W        W36998   1.146   0.872  12.458 -0.4095  0.0188  0.2887
30549W        W36999  18.056   5.392   9.786 -0.2588 -0.0179 -0.1021
30550W        W37000  11.240   4.477   5.484  0.1898  0.2082  0.0626
30551W        W37001  22.957   0.258   9.759  0.0520  0.0792 -0.0720
30552W        W37002   0.326   0.484  31.204 -0.0202  0.4244  0.1339
30553W        W37003  21.477   5.829  12.003 -0.2370  0.1661  0.0827
30554W        W37004   1.556   3.298   4.130 -0.0708 -0.3161  0.0819
30555W        W37005  12.080   4.542   4.487  0.0614  0.2200  0.0717
30556W        W37006  14.254   1.494   8.866 -0.1352  0.1099 -0.1982
30557W        W37007  19.163   6.440  19.403 -0.0068 -0.0239 -0.2087
30558W        W37008   1.757   2.251  16.367  0.2450  0.2315  0.3906
30559W        W37009  11.320   3.325  28.651 -0.3723  0.2427  0.1197
30560W        W37010   9.662   3.425   6.891 -0.1063 -0.0514  0.0107
30561W        W37011  19.631   6.676   7.497  0.2738  0.0372 -0.0345
30562W        W37012  22.482   7.252   1.790 -0.2058 -0.0005 -0.2228
30563W        W37013  16.654   3.233  24.362 -0.0043 -0.1696  0.0998
30564W        W37014  13.424   3.756   5.470 -0.0674 -0.0157 -0.0802
30565W        W37015   7.905   0.818   9.398 -0.0390 -0.0249 -0.1765
30566W        W37016   3.912   1.103  15.508 -0.2287 -0.1248  0.3743
30567W        W37017  21.380   3.431   5.360  0.1297  0.0602  0.0364
30568W        W37018  18.540   7.410  19.361 -0.3790  0.0594 -0.0780
30569W        W37019   6.783   1.953   2.764  0.1835 -0.4222 -0.0268
30570W        W37020  23.753   1.517  24.745  0.2179 -0.1350  0.1773
30571W        W37021  17.220   1.187  25.018 -0.0137 -0.0926  0.0083
30572W        W37022  19.918   5.378  17.744  0.2245  0.2998 -0.0339
30573W        W37023   7.020   6.952  30.156  0.0701 -0.0821 -0.0760
30574W        W37024  16.785   3.551  31.248 -0.2283 -0.0336  0.0838
30575W        W37025  10.641   2.570  10.612 -0.2049 -0.1932  0.3129
30576W        W37026   4.531   5.355   6.789  0.1473  0.5812 -0.0799
30577W        W37027  15.658   0.303  18.342 -0.1500  0.0550  0.1844
30578W        W37028  12.287   6.942   7.870  0.0936  0.5220 -0.3216
30579W        W37029  16.887   4.590  28.501 -0.0876 -0.1062  0.3288
30580W        W37030  17.472   0.553   0.561  0.2403  0.1067 -0.0280
30581W        W37031   3.741   7.345   9.408 -0.1508  0.0214  0.0879
30582W        W37032   9.893   6.765  13.869 -0.1070  0.0931  0.0382
30583W        W37033   6.754   7.245  29.733  0.3611  0.1868  0.1077
30584W        W37034  14.814   4.676  23.731  0.1135  0.0048  0.0708
30585W        W37035  18.287   4.368  20.364  0.0876 -0.1936  0.1433
30586W        W37036  11.657   5.776  28.089  0.0631 -0.0010 -0.0860
30587W        W37037   9.481   5.549  22.196  0.0864 -0.1794  0.3584
30588W        W37038  22.934   1.209   3.149 -0.0990  0.2148  0.2439
30589W        W37039  15.405   6.933  24.480 -0.3990  0.4070 -0.1783
30590W        W37040   2.365   7.139  29.922 -0.1809 -0.2949 -0.0250
30591W        W37041   1.885   1.389  17.447  0.0508  0.0202  0.1584
30592W        W37042  15.821   4.079  10.522 -0.0577 -0.1371 -0.0738
30593W        W37043   4.437   7.235  14.848 -0.1015  0.0825 -0.0726
30594W        W37044  21.078   0.340  27.285  0.0289  0.2231  0.2059
30595W        W37045  14.725   6.621  26.671  0.0488 -0.0441  0.0275
30596W        W37046  23.745   5.613   4.720 -0.0534 -0.0936 -0.0271
30597W        W37047  24.166   5.953  29.073  0.0880  0.0129 -0.1953
30598W        W37048  12.951   5.247  10.742 -0.0869 -0.0014  0.0329
30599W        W37049  22.274   3.317   6.145  0.0578 -0.3025 -0.1947
30600W        W37050  20.212   3.727  30.342  0.1847  0.0872 -0.0178
30601W        W37051  14.616   6.469  14.802  0.3584  0.0731 -0.0868
30602W        W37052   7.112   2.607  27.697 -0.1515 -0.0754  0.0791
30603W        W37053  10.510   3.059   5.944 -0.0421  0.0298 -0.0664
30604W        W37054  19.007   6.179   3.927 -0.3546 -0.0879 -0.3561
30605W        W37055   1.759   6.638  26.900  0.1451 -0.1496 -0.1734
30606W        W37056   5.757   5.919   4.118 -0.2664 -0.1064  0.1084
30607W        W37057  19.720   4.875  21.570  0.3226  0.0165 -0.0247
30608W        W37058  10.611   2.729   2.915  0.3086  0.0835 -0.0725
30609W        W37059   4.524   5.881   8.419 -0.0486 -0.3297  0.1226
30610W        W37060  23.716   0.929  24.901 -0.1895 -0.2840  0.1049
30611W        W37061  24.680   5.126   8.651  0.1774 -0.0581 -0.0271
30612W        W37062   5.775   3.722  31.387  0.0803  0.0547 -0.0182
30613W        W37063  22.676   6.171   4.983  0.0089 -0.0510 -0.2721
30614W        W37064  20.358   4.120   5.100 -0.1272  0.0219  0.0706
30615W        W37065  18.847   3.965  27.487  0.1853  0.0632 -0.0423
30616W        W37066  21.126   5.718  11.593 -0.2814 -0.1099 -0.3379
30617W        W37067  15.657   2.810  25.262  0.1157  0.1437 -0.1888
30618W        W37068   2.954   0.817  23.611 -0.1415 -0.2979  0.0148
30619W        W37069   9.838   0.291  23.193  0.4438  0.1902 -0.0190
30620W        W37070   3.180   3.763  10.617  0.0924  0.1731 -0.2748
30621W        W37071  13.329   1.163  20.209 -0.1328 -0.0550 -0.0912
30622W        W37072  10.256   7.638  11.949 -0.0334 -0.0572 -0.1703
30623W        W37073   3.752   2.881  26.603  0.0113  0.1175 -0.1323
30624W        W37074  10.385   3.045  32.495 -0.0473  0.0378 -0.1922
30625W        W37075   2.552   5.667  30.031 -0.1833  0.1488  0.1484
30626W        W37076  12.430   4.907   2.139 -0.2606  0.1609 -0.2246
30627W        W37077  12.575   2.629   2.884  0.1021 -0.3631  0.0158
30628W        W37078  23.626   6.562  11.406  0.2090 -0.3057 -0.1132
30629W        W37079  13.569   2.085  24.140  0.4433  0.1977 -0.0118
30630W        W37080  14.558   7.393  30.695 -0.0996  0.0866 -0.0274
30631W        W37081  12.075   4.743  24.408 -0.1714 -0.0504  0.1330
30632W        W37082   1.441   3.479  10.594 -0.3153 -0.0554  0.4917
30633W        W37083  18.374   2.963  25.549  0.0288  0.1004  0.0649
30634W        W37084   7.343   2.923  10.973  0.0389 -0.0825  0.1227
30635W        W37085  21.601   7.491   8.540 -0.0757  0.1030  0.4415
30636W        W37086   7.340   7.536  16.203 -0.1274  0.0537  0.4095
30637W        W37087  11.445   7.267   0.840  0.2886 -0.0062 -0.0011
30638W        W37088   0.612   0.665  32.108 -0.2117  0.3311 -0.0441
30639W        W37089  18.669   4.347  16.279 -0.2042 -0.2698 -0.2133
30640W        W37090  24.570   7.644   8.187  0.1847  0.1593  0.1160
30641W        W37091  21.626   5.955   3.597  0.1077 -0.2775 -0.1962
30642W        W37092   7.779   2.115  32.131  0.0900 -0.2435  0.0241
30643W        W37093   7.238   5.132  11.742 -0.0600 -0.0013  0.0406
30644W        W37094   3.782   3.359  28.959  0.0456 -0.1079 -0.0531
30645W        W37095   6.917   5.042  12.182  0.0429 -0.2110 -0.2657
30646W        W37096  15.193   1.323   2.410 -0.0243  0.1616 -0.3680
30647W        W37097   3.848   5.498  26.061  0.3620  0.2763  0.3077
30648W        W37098   2.566   5.723   2.369  0.0411 -0.0260  0.0150
30649W        W37099  15.265   1.586  27.393  0.1174 -0.3520  0.0396
30650W        W37100  15.028   6.676  24.721  0.0922 -0.0261  0.3677
30651W        W37101   8.810   6.424  29.327  0.0201  0.2620 -0.0504
30652W        W37102  23.049   7.509  27.093 -0.3639 -0.2778  0.0205
30653W        W37103  13.916   0.759  22.419 -0.3855 -0.0409 -0.0089
30654W        W37104  11.136   6.079  22.236 -0.0625 -0.0980  0.0146
30655W        W37105   1.607   5.286  26.276  0.0005 -0.1313  0.2627
30656W        W37106  14.796   7.262  23.648  0.0210  0.0782 -0.2423
30657W        W37107   0.708   2.680  27.735 -0.0690  0.0507  0.0503
30658W        W37108   1.502   1.727   3.034 -0.2209  0.0513  0.2697
30659W        W37109   3.111   2.041   8.187  0.0060  0.1909  0.0588
30660W        W37110   0.325   3.097  30.287  0.0874  0.0043  0.3096
30661W        W37111  15.076   7.727   7.366  0.3850  0.3527 -0.0060
30662W        W37112   6.063   2.332   8.047  0.0929  0.1141 -0.0623
30663W        W37113  19.816   2.248   7.492 -0.3341 -0.1051 -0.0355
30664W        W37114   3.142   2.384   2.166 -0.0663  0.0605 -0.0267
30665W        W37115  17.596   0.674  19.778  0.1808  0.1248  0.2298
30666W        W37116   8.793   1.888  21.732  0.2662 -0.0942  0.1890
30667W        W37117  24.874   7.344   4.547 -0.1792  0.0071 -0.2426
30668W        W37118   9.880   2.293  25.576 -0.0663 -0.0542 -0.1547
30669W        W37119  14.099   3.952  21.101  0.3536 -0.2221  0.0215
30670W        W37120   5.122   6.324  26.687  0.1479 -0.0196  0.0290
30671W        W37121   2.962   6.899  10.364  0.0508 -0.0448 -0.1373
30672W        W37122   2.434   2.961   1.320  0.2787 -0.4897 -0.4118
30673W        W37123   2.483   7.175  10.498  0.3775 -0.1290 -0.4757
30674W        W37124  16.045   0.220  29.771 -0.0994  0.0855 -0.0879
30675W        W37125   5.258   6.079  27.210 -0.0289  0.1082 -0.0898
30676W        W37126   2.710   2.511  13.668 -0.0690  0.0129 -0.1219
30677W        W37127   4.615   1.783  27.500  0.1083 -0.0180 -0.2025
30678W        W37128  16.860   4.089  32.505 -0.1421  0.0288 -0.0012
30679W        W37129  11.884   4.930  28.571  0.0354  0.0897  0.2458
30680W        W37130   0.693   3.529  12.558  0.1636 -0.0561  0.1130
30681W        W37131   7.037   5.041   2.055 -0.1612 -0.2959 -0.2722
30682W        W37132  20.557   0.034  29.841  0.1169  0.0338 -0.1531
30683W        W37133   5.576   0.511  31.512  0.1407  0.3211 -0.0853
30684W        W37134   8.921   7.286   5.455  0.2023  0.3060  0.0925
30685W        W37135  23.158   3.316   9.956 -0.0354  0.3167 -0.2079
30686W        W37136   5.843   3.049  24.204  0.0875  0.1282 -0.3109
30687W        W37137   1.620   0.784  14.694 -0.0513  0.0085 -0.0182
30688W        W37138   2.756   3.683   7.443  0.1597 -0.0143  0.1546
30689W        W37139  23.799   1.652  27.390  0.2195 -0.1801  0.0894
30690W        W37140  16.936   4.300  18.967  0.1466 -0.1205 -0.1034
30691W        W37141  19.829   5.909  21.217 -0.1165  0.4674 -0.1231
30692W        W37142   6.372   5.526   7.093  0.3448 -0.3179 -0.1850
30693W        W37143  16.067   2.496  16.186  0.1506  0.0190 -0.1992
30694W        W37144   3.340   3.677  10.094 -0.0783 -0.0000 -0.0654
30695W        W37145  15.131   3.245  25.723  0.0199  0.1303  0.1433
30696W        W37146   7.552   1.728  14.947  0.0657  0.4882  0.1943
30697W        W37147  11.526   1.289   0.590  0.2749 -0.0859  0.0902
30698W        W37148  12.312   5.596  30.900  0.1911  0.0900  0.0989
30699W        W37149  12.315   3.284  10.968 -0.0543  0.0567 -0.0906
30700W        W37150  16.486   4.235  29.627 -0.0140  0.1270 -0.2765
30701W        W37151   1.437   4.799  13.905 -0.0031 -0.3481  0.2369
30702W        W37152  16.088   0.297   7.058 -0.1405 -0.1581 -0.2516
30703W        W37153   4.022   5.741  14.391  0.1863  0.0878  0.0167
30704W        W37154  17.270   5.037   0.876  0.1742 -0.1201  0.2222
30705W        W37155   4.234   0.984  15.010 -0.0592 -0.0195 -0.3816
30706W        W37156   2.883   2.041  24.973 -0.1676  0.2138 -0.1406
30707W        W37157  11.642   2.657  29.863  0.0473  0.2281  0.1917
30708W        W37158  17.105   1.741   0.521 -0.0333 -0.1336 -0.0271
30709W        W37159  17.596   2.524  19.800  0.1334  0.1362  0.0928
30710W        W37160   6.019   5.051   9.588  0.1060 -0.1371  0.1569
30711W        W37161   6.724   6.083   3.070 -0.1550 -0.3576 -0.0486
30712W        W37162  17.961   5.943   7.358  0.1048 -0.0326  0.1366
30713W        W37163  19.517   2.109  20.905 -0.0703 -0.2061  0.0124
30714W        W37164  21.172   4.204   7.775  0.1672 -0.1059  0.0651
30715W        W37165   8.299   4.600   5.824  0.1121 -0.0739  0.0272
30716W        W37166  15.534   6.594   1.488 -0.1167 -0.0997 -0.0441
30717W        W37167  14.891   1.335   6.030 -0.3670  0.0446 -0.1077
30718W        W37168  22.291   2.037   3.833 -0.0237  0.1369 -0.2244
30719W        W37169   3.734   3.461  10.319 -0.0595 -0.0385 -0.1062
30720W        W37170  16.929   0.472  10.175  0.1199 -0.1056  0.0448
30721W        W37171  10.694   4.889  32.482 -0.0445 -0.2026  0.0486
30722W        W37172   3.320   0.407   0.940 -0.0754 -0.1923 -0.1497
30723W        W37173   7.206   7.354   0.791 -0.2953 -0.1158  0.1689
30724W        W37174   8.677   6.909   1.522  0.0129 -0.0851  0.1444
30725W        W37175   6.938   0.639   9.402 -0.2563 -0.1374  0.1424
30726W        W37176  20.461   0.351   0.390 -0.4079 -0.0677 -0.0700
30727W        W37177   2.029   4.471   0.004  0.0438 -0.3310 -0.1341
30728W        W37178  20.901   4.851   9.198  0.0964  0.0162 -0.2490
30729W        W37179   6.845   6.319  13.301  0.0485  0.0746  0.0251
30730W        W37180  24.388   7.004  25.011 -0.0593 -0.1876 -0.0691
30731W        W37181  19.222   3.985  19.628 -0.2312 -0.0423  0.0461
30732W        W37182  16.596   6.404  18.203  0.0562 -0.3139  0.1137
30733W        W37183  17.306   1.950   4.546  0.1392 -0.0117  0.2979
30734W        W37184  17.020   4.743  21.421  0.1660 -0.1717 -0.1389
30735W        W37185  10.662   7.164  23.827  0.0409  0.0863 -0.4062
30736W        W37186  18.079   0.645  18.326  0.3901 -0.0867 -0.2524
30737W        W37187  15.435   0.746  16.961 -0.1607 -0.1780 -0.2076
30738W        W37188  21.765   3.879  10.725  0.0859 -0.0368 -0.2898
30739W        W37189  17.951   3.358  19.954  0.3668  0.1219 -0.0021
30740W        W37190   5.764   7.005  10.445  0.2926 -0.0360  0.2087
30741W        W37191  13.977   5.374  26.816  0.1701 -0.2436 -0.1912
30742W        W37192   0.717   3.283  31.620 -0.0967  0.0138  0.1932
30743W        W37193   4.363   2.192  32.039 -0.0508 -0.0794 -0.2904
30744W        W37194  18.220   5.369   5.061  0.0765  0.1766  0.1885
30745W        W37195  14.972   4.783  26.615  0.0454  0.1949  0.0551
30746W        W37196   0.849   2.708  12.147  0.1799  0.2229  0.2246
30747W        W37197   3.734   1.063  14.922 -0.1161  0.2250 -0.2775
30748W        W37198  22.317   7.059  20.129  0.2356  0.1804 -0.2047
30749W        W37199  12.351   5.297   9.008 -0.0520  0.3198  0.1320
30750W        W37200   5.015   4.270  16.237  0.1523  0.0863  0.2327
30751W        W37201   4.925   3.096   1.189 -0.2555  0.1190  0.0365
30752W        W37202  22.197   1.494   8.434  0.1484  0.0597  0.1720
30753W        W37203   4.255   6.680  10.605  0.0265  0.0376 -0.0695
30754W        W37204   8.385   2.329  13.075 -0.0621 -0.2483 -0.3180
30755W        W37205  17.166   0.136  27.149 -0.1023 -0.2485  0.3101
30756W        W37206  18.114   2.904  23.373  0.0432  0.0906 -0.3056
30757W        W37207   3.193   1.747  23.556 -0.2384 -0.1221  0.1742
30758W        W37208  14.335   1.281  31.732  0.4357 -0.1063 -0.1497
30759W        W37209  20.544   4.613   7.246  0.0729 -0.2310 -0.2864
30760W        W37210   9.732   7.177  27.082  0.5165  0.0526 -0.0705
30761W        W37211   3.844   2.787  23.612 -0.3270  0.1233 -0.1783
30762W        W37212  17.078   5.624  27.532  0.1502  0.0966 -0.1237
30763W        W37213  24.753   5.229   4.249 -0.0299 -0.2524 -0.3147
30764W        W37214   6.765   7.410  32.074 -0.0957 -0.0188 -0.1342
30765W        W37215  22.653   2.334  25.711 -0.1256  0.0286 -0.0302
30766W        W37216   3.641   4.174   5.406 -0.0392 -0.2012  0.1125
30767W        W37217  16.800   5.993  28.866 -0.2194  0.0666 -0.1326
30768W        W37218   3.154   7.276   7.676 -0.1790  0.0551  0.1788
30769W        W37219  10.676   2.757  27.170  0.0151  0.1597 -0.0785
30770W        W37220  12.778   2.254   4.130 -0.0656  0.2749 -0.2983
30771W        W37221  12.295   3.441  21.939 -0.0942  0.1320  0.1267
30772W        W37222  17.475   3.196   7.656 -0.0842  0.1652 -0.2480
30773W        W37223   6.233   7.003  30.547  0.0559 -0.2783 -0.1305
30774W        W37224  10.922   1.857  20.339  0.0519 -0.1227 -0.0794
30775W        W37225  19.453   1.329  17.051 -0.0249 -0.0232 -0.2976
30776W        W37226  15.232   1.622  30.908 -0.1345 -0.0597 -0.1093
30777W        W37227  11.508   3.802  21.904 -0.1712 -0.1524 -0.0533
30778W        W37228  20.803   5.132  29.230 -0.2302 -0.0063 -0.1615
30779W        W37229  16.925   3.589   6.060 -0.0945 -0.0116  0.1785
30780W        W37230   9.769   7.622  21.756  0.0614 -0.1720  0.1703
30781W        W37231  23.165   5.553   0.596  0.2468  0.0659 -0.0836
30782W        W37232  10.688   7.634  24.114  0.1367 -0.0755  0.0624
30783W        W37233   6.166   0.397   3.044  0.0161  0.0704 -0.1731
30784W        W37234  13.324   2.306   3.299 -0.1672  0.0349  0.2522
30785W        W37235  12.082   4.837  26.301 -0.1657  0.1769 -0.0590
30786W        W37236   2.528   4.847   0.340  0.3766 -0.0303  0.2420
30787W        W37237  21.657   0.998  30.103  0.2858 -0.1773  0.2688
30788W        W37238   4.239   7.590  30.625 -0.2935  0.1363 -0.2118
30789W        W37239  17.212   0.356  26.721 -0.0660 -0.0851  0.0137
30790W        W37240   3.213   2.936   7.648  0.0836  0.0856 -0.1198
30791W        W37241  20.765   2.968  31.119  0.1364 -0.1042  0.3300
30792W        W37242  20.121   7.551   2.259 -0.0217  0.0678 -0.0191
30793W        W37243  15.479   6.962   0.147  0.1123  0.0749 -0.0894
30794W        W37244  19.505   1.553   1.757 -0.1091 -0.0370 -0.0490
30795W        W37245  14.625   2.679  15.776  0.0354 -0.2733  0.0272
30796W        W37246  24.228   5.701  23.628 -0.2316  0.0060  0.0653
30797W        W37247  23.554   6.675   6.537  0.0517 -0.3610  0.2502
30798W        W37248  19.824   3.506   3.969 -0.2801 -0.0958  0.2079
30799W        W37249   9.968   4.627  20.940  0.1617 -0.0210 -0.0953
30800W        W37250  16.209   7.166   3.088  0.0236  0.2244  0.1620
30801W        W37251  13.670   0.133  27.765 -0.0033  0.1474 -0.1054
30802W        W37252   6.547   6.024  21.868  0.0267  0.0867 -0.2945
30803W        W37253   2.120   4.798   8.782  0.1178  0.0298 -0.1159
30804W        W37254  24.874   5.416   1.929 -0.2284  0.0719  0.0494
30805W        W37255  10.350   2.434   0.626  0.2034  0.0083 -0.0268
30806W        W37256  22.340   5.079  24.873  0.3956  0.2112 -0.1499
30807W        W37257   9.193   2.664  13.522 -0.1005  0.0619 -0.1107
30808W        W37258  17.626   3.251  18.260  0.2569  0.2265  0.0896
30809W        W37259  21.421   3.585  10.414  0.1913 -0.2735  0.0244
30810W        W37260   0.302   1.788  24.786  0.0768 -0.1107 -0.1811
30811W        W37261  10.902   1.362  11.647 -0.1020 -0.0336 -0.0003
30812W        W37262  16.748   5.724  26.412  0.0318  0.2180 -0.2465
30813W        W37263  13.897   0.557   9.880 -0.1810  0.0909  0.1629
30814W        W37264  18.691   6.578  28.268  0.0786  0.0893 -0.0033
30815W        W37265  23.515   4.209  29.853 -0.1727 -0.0967 -0.0503
30816W        W37266   1.572   7.693  30.717 -0.1053 -0.2683  0.2837
30817W        W37267   4.193   2.775  29.669  0.0433  0.0227 -0.3592
30818W        W37268  13.786   0.485  16.460  0.1795  0.0229 -0.1029
30819W        W37269   2.006   2.999   8.384  0.0827 -0.0059  0.0439
30820W        W37270   7.623   6.117   7.211  0.2437 -0.0409  0.2952
30821W        W37271   8.342   4.580  32.341  0.1689 -0.3242 -0.0269
30822W        W37272  15.578   3.502  29.788  0.0859 -0.0004  0.3313
30823W        W37273  21.480   1.466  26.187 -0.1343 -0.1569  0.2108
30824W        W37274  22.262   4.521   0.808 -0.0047  0.0646  0.0655
30825W        W37275   2.603   4.116   7.565  0.0368 -0.0515 -0.0503
30826W        W37276  19.344   1.105  31.258 -0.2659  0.0583 -0.0484
30827W        W37277  21.762   7.131  24.843  0.0976  0.0661  0.1703
30828W        W37278   9.993   1.723  29.470 -0.0531 -0.1583  0.1722
30829W        W37279   4.683   1.087  24.082 -0.1137  0.3273 -0.1967
30830W        W37280  13.007   5.072  30.596  0.0240  0.1484 -0.2289
30831W        W37281  23.953   1.544  10.974  0.3021 -0.0024 -0.1802
30832W        W37282   0.009   2.459  23.483 -0.2389 -0.3219 -0.1382
30833W        W37283   0.796   5.024  33.008 -0.0360  0.3469  0.0853
30834W        W37284   7.852   5.571   4.647  0.0211 -0.1255  0.0086
30835W        W37285  15.220   0.438  19.802  0.0173 -0.0464 -0.2528
30836W        W37286   4.517   1.861   3.255 -0.2602 -0.0433 -0.1249
30837W        W37287  10.944   3.832  19.523 -0.3806 -0.3526  0.2062
30838W        W37288   2.191   6.980  25.431 -0.4481  0.1451 -0.2324
30839W        W37289  23.978   7.737   3.145 -0.0858 -0.1091  0.3057
30840W        W37290   8.164   6.390  12.755  0.0981 -0.1087  0.0001
30841W        W37291  19.696   6.740  23.323  0.3455  0.0659 -0.1304
30842W        W37292   0.865   1.185   9.053 -0.1571 -0.2905 -0.2706
30843W        W37293  14.312   0.870   6.729 -0.1639  0.3757  0.0234
30844W        W37294  19.439   1.344  25.593 -0.1109  0.0261  0.1991
30845W        W37295  13.394   6.213  32.515  0.0132 -0.3228 -0.4194
30846W        W37296  20.046   4.657  18.380  0.2497 -0.0920  0.2252
30847W        W37297   1.307   0.301   1.339  0.4698  0.0824  0.1454
30848W        W37298   2.975   3.171   5.933  0.0236 -0.3557 -0.1680
30849W        W37299   7.123   4.472  15.011  0.0466 -0.4612  0.3623
30850W        W37300   9.332   5.097  21.348 -0.0540  0.1904 -0.0935
30851W        W37301   8.868   0.451  30.970  0.1355 -0.1069  0.0301
30852W        W37302  14.709   2.448  29.905 -0.0872  0.1862  0.1014
30853W        W37303   8.014   7.549   0.438  0.2338  0.3261  0.1693
30854W        W37304   4.439   1.199  25.315 -0.2260 -0.2013  0.1832
30855W        W37305  14.777   4.201  32.255 -0.0176 -0.2430  0.0681
30856W        W37306  21.859   4.335   4.552  0.0521 -0.0491  0.0511
30857W        W37307  21.038   5.885  20.452  0.0574  0.1489 -0.0421
30858W        W37308   4.483   5.091  17.501  0.1776 -0.0129  0.2615
30859W        W37309   9.490   0.040  12.912  0.0957  0.0492 -0.2416
30860W        W37310  19.067   7.729   8.151  0.1480 -0.3458 -0.2121
30861W        W37311  20.533   6.018  10.457 -0.0344  0.2349  0.2381
30862W        W37312   5.319   3.224  11.659 -0.2558  0.2265 -0.1224
30863W        W37313  10.699   2.097  10.424  0.1018  0.0617 -0.1593
30864W        W37314   0.812   0.348  14.079  0.1017  0.2995 -0.0002
30865W        W37315  20.946   5.074  24.266 -0.0637  0.4520 -0.1397
30866W        W37316   8.573   3.962  32.747 -0.2099  0.2518 -0.1680
30867W        W37317   0.611   4.736  22.750  0.1500 -0.2521 -0.0695
30868W        W37318  13.214   4.969  28.926  0.0105  0.0362 -0.2293
30869W        W37319   3.657   5.606   6.794  0.4580 -0.0027  0.1335
30870W        W37320   4.797   7.087  16.782 -0.4057  0.0070  0.4098
30871W        W37321   2.276   1.157   6.336 -0.0230 -0.0169 -0.1474
30872W        W37322   9.245   3.968   2.511  0.0852 -0.1930  0.0305
30873W        W37323   5.263   3.169   3.384 -0.1257 -0.0700 -0.0351
30874W        W37324   4.319   4.161  31.664  0.0366 -0.3598 -0.1283
30875W        W37325   2.655   3.026   2.485  0.1603  0.3486 -0.2256
30876W        W37326   1.120   7.787   9.155 -0.0545  0.3193  0.2964
30877W        W37327   7.828   3.400  11.659  0.1619  0.1416 -0.2770
30878W        W37328  11.223   1.657  32.779  0.0202 -0.1323 -0.3482
30879W        W37329   4.646   5.865   4.104  0.2485  0.0165  0.0072
30880W        W37330  23.269   7.287   3.890 -0.3578  0.2379 -0.0194
30881W        W37331   9.444   0.656   6.181  0.2295  0.2162 -0.3663
30882W        W37332   4.883   0.998   4.781 -0.0757  0.1456 -0.3427
30883W        W37333  22.904   7.380  25.494 -0.2348 -0.1340  0.2171
30884W        W37334  19.944   4.148  19.138  0.1242 -0.0612  0.0075
30885W        W37335  17.095   1.959  27.494  0.1467  0.1764 -0.0130
30886W        W37336  14.696   6.636  21.132  0.0970 -0.2253  0.0642
30887W        W37337   7.727   1.513   2.762 -0.0881 -0.0543 -0.0763
30888W        W37338   2.767   0.820   7.768 -0.2121 -0.3156 -0.0258
30889W        W37339  23.059   6.383   2.164 -0.0068  0.0528 -0.1565
30890W        W37340  16.449   3.705  19.464 -0.4085  0.3485 -0.3023
30891W        W37341  17.492   0.550   1.851 -0.1112  0.0540 -0.1126
30892W        W37342  13.316   0.592   9.802 -0.0333 -0.2100 -0.2385
30893W        W37343   8.795   6.382  29.872 -0.0764  0.2431 -0.4314
30894W        W37344   6.117   3.348  14.008 -0.1857  0.3929  0.1586
30895W        W37345  17.716   1.955  16.683 -0.0563 -0.1050  0.0958
30896W        W37346  18.780   0.316   3.671  0.2244  0.2757 -0.0729
30897W        W37347  19.865   6.383  27.099 -0.0430 -0.0763  0.0055
30898W        W37348  20.993   3.055  23.308 -0.2904  0.0059 -0.0099
30899W        W37349   4.140   6.836  32.693 -0.2309  0.0932 -0.1780
30900W        W37350   1.823   2.004   2.051  0.1980  0.1103  0.3269
30901W        W37351  12.449   7.221  21.984  0.1929  0.2517  0.1211
30902W        W37352   5.758   6.458  16.661 -0.0160  0.0838 -0.2059
30903W        W37353   2.127   2.275   5.856  0.2232 -0.2482  0.0364
30904W        W37354   1.261   2.549  13.056 -0.1197  0.0511  0.0784
30905W        W37355  19.560   6.743  16.226 -0.0766 -0.0547 -0.2759
30906W        W37356  18.792   1.206  24.101 -0.1151  0.1911  0.4168
30907W        W37357  14.140   2.089   9.414 -0.3036  0.1449 -0.3058
30908W        W37358  19.251   1.989   6.114 -0.0305  0.1631  0.0123
30909W        W37359  20.413   3.582  24.408 -0.1190  0.1054  0.2411
30910W        W37360  12.928   3.143  29.284  0.1519  0.3230  0.1426
30911W        W37361   4.584   4.240   8.620  0.0764 -0.0217  0.1378
30912W        W37362   0.446   4.184  12.567  0.3007  0.1082 -0.0524
30913W        W37363   4.631   7.135   1.614  0.1437 -0.0515 -0.4057
30914W        W37364   3.929   6.771  25.341  0.0802  0.1324 -0.0084
30915W        W37365  18.908   2.896   9.711  0.0617 -0.1483  0.0362
30916W        W37366  13.855   3.662   5.216  0.0979 -0.0984 -0.1086
30917W        W37367   1.348   1.758   1.638  0.1218  0.1926  0.0633
30918W        W37368  15.804   1.864   4.171 -0.0450 -0.4445 -0.0478
30919W        W37369  14.554   0.903  17.022  0.0408  0.0760  0.0147
30920W        W37370   8.501   3.179  23.304  0.1048  0.1628 -0.2850
30921W        W37371  13.693   6.471  17.546  0.1235  0.0523  0.1467
30922W        W37372  20.766   1.946  17.956  0.1583 -0.1655 -0.0141
30923W        W37373  21.672   6.241  20.175 -0.0136  0.1683 -0.2367
30924W        W37374   2.514   0.954  22.928  0.0826 -0.1006 -0.0645
30925W        W37375  18.392   1.156  32.717  0.5695 -0.1541 -0.2655
30926W        W37376   5.182   3.859  30.017 -0.3208 -0.1722 -0.1159
30927W        W37377  13.979   0.202  23.582 -0.2307  0.3548  0.4527
30928W        W37378  15.354   6.764  27.587 -0.0294 -0.0450 -0.1672
30929W        W37379  10.464   0.285   0.296  0.2781 -0.0277 -0.1927
30930W        W37380  16.780   6.472  15.286 -0.1486  0.1284  0.0288
30931W        W37381  15.286   4.072  18.161 -0.1637  0.1742 -0.3610
30932W        W37382  24.078   6.622  22.838 -0.1225  0.1153 -0.6760
30933W        W37383  11.301   1.630  23.358  0.0109 -0.1134  0.1925
30934W        W37384   3.691   0.364  30.906 -0.3774 -0.2782  0.1395
30935W        W37385  18.189   6.519  27.044 -0.0638 -0.0276 -0.1434
30936W        W37386  19.225   0.922  32.416  0.0613 -0.0205 -0.1276
30937W        W37387   5.857   7.470  10.164 -0.1075  0.0983 -0.2351
30938W        W37388   6.484   2.391  12.042  0.1453 -0.2542 -0.0666
30939W        W37389   9.311   0.501  32.203  0.0081  0.1240 -0.0971
30940W        W37390  19.052   7.467  10.358  0.1108 -0.1456  0.0854
30941W        W37391  18.709   6.419  27.239 -0.0315  0.2866  0.2134
30942W        W37392   8.712   3.646   9.348 -0.0597 -0.2054 -0.1010
30943W        W37393   9.067   2.051   4.166  0.2488  0.0643 -0.1158
30944W        W37394   6.579   6.129  32.773  0.0424  0.1380 -0.2117
30945W        W37395  17.266   5.550   5.192 -0.1590  0.0495  0.0732
30946W        W37396  13.564   4.164  25.487  0.1890  0.0687  0.0102
30947W        W37397   0.121   3.280   1.021  0.1074  0.0113  0.1921
30948W        W37398   1.725   7.660  32.311  0.1494 -0.1561  0.1059
30949W        W37399   5.023   0.514   8.650  0.1048  0.3051  0.0892
30950W        W37400   6.775   2.491  13.576  0.3153  0.1797  0.0992
30951W        W37401  14.112   3.756  26.199 -0.1420  0.0814  0.0415
30952W        W37402   1.011   0.237   8.196  0.2614  0.0518 -0.1994
30953W        W37403  17.855   0.972  31.220  0.1208  0.0284 -0.0805
30954W        W37404  24.325   3.662  24.728 -0.0431  0.0990 -0.3176
30955W        W37405  16.281   5.727   1.114  0.1055 -0.2677 -0.0371
30956W        W37406  20.629   3.371  30.372 -0.0576  0.1563 -0.1186
30957W        W37407  19.861   4.634   9.327 -0.1369  0.1227 -0.1028
30958W        W37408  23.818   3.897  24.755 -0.1101  0.0249  0.0359
30959W        W37409  21.428   0.842   1.162  0.2285  0.0796  0.0024
30960W        W37410  22.725   7.271   1.362 -0.3587  0.2662 -0.0643
30961W        W37411  21.166   4.475  20.812 -0.3426  0.4095  0.0022
30962W        W37412  14.253   7.193  27.020 -0.0195 -0.1159 -0.1423
30963W        W37413  10.874   0.674   7.139 -0.0138 -0.2336  0.0484
30964W        W37414  13.507   5.416  23.034 -0.1501 -0.4866 -0.2051
30965W        W37415  18.772   0.467  23.622  0.2496  0.2831 -0.1222
30966W        W37416  21.756   6.829  28.051  0.1939 -0.1319 -0.1347
30967W        W37417  23.906   7.756  32.839 -0.0961 -0.0150 -0.0001
30968W        W37418   3.216   0.198  14.788  0.0892 -0.0365  0.2335
30969W        W37419   5.111   4.091   0.333  0.0798 -0.2059 -0.1741
30970W        W37420  22.502   5.095   0.410  0.1376 -0.0228 -0.0165
30971W        W37421  11.929   0.270  32.902 -0.0668  0.0008 -0.0061
30972W        W37422  13.555   2.738   3.173 -0.2634  0.2112 -0.1297
30973W        W37423  10.430   1.920  23.931 -0.0842 -0.1016  0.1607
30974W        W37424   2.248   5.262  22.298  0.2190  0.1116  0.0870
30975W        W37425  17.115   4.303  18.494  0.3505  0.1795 -0.1471
30976W        W37426  15.616   0.791  29.320  0.0703 -0.2329 -0.0916
30977W        W37427  14.180   3.226   7.912  0.1763 -0.1225 -0.0534
30978W        W37428   6.938   0.221  24.842  0.3094 -0.1020  0.3224
30979W        W37429   9.443   4.821  26.771  0.0020 -0.0792 -0.1991
30980W        W37430  19.894   3.068  20.963 -0.1238 -0.0279  0.0703
30981W        W37431  13.941   5.996   2.051 -0.1491 -0.3363 -0.1238
30982W        W37432  17.090   3.960   7.550 -0.0836 -0.3928  0.1300
30983W        W37433  14.574   1.624  18.214  0.0464  0.3109 -0.2547
30984W        W37434  11.011   1.418   0.818 -0.1047 -0.0228 -0.1827
30985W        W37435   1.939   4.862  10.921 -0.2162  0.0886 -0.0281
30986W        W37436  18.213   4.037  29.724  0.2431 -0.3589 -0.1173
30987W        W37437   1.721   4.010  15.719 -0.1047 -0.1718  0.0024
30988W        W37438  24.047   5.890   0.304  0.2915 -0.3462 -0.1285
30989W        W37439  14.962   4.643  29.248  0.0150  0.1293 -0.2972
30990W        W37440  18.532   4.378  16.806  0.0212  0.1165  0.1468
30991W        W37441   3.298   6.630  12.649  0.0310  0.0485  0.0323
30992W        W37442   8.088   3.264   4.032 -0.0968 -0.4526 -0.0803
30993W        W37443   5.784   7.674  14.469 -0.0376 -0.0318 -0.0593
30994W        W37444  15.670   4.473  19.615  0.3114  0.1908 -0.0970
30995W        W37445   0.643   2.210  28.536 -0.2913 -0.0057 -0.1496
30996W        W37446  23.739   0.639   1.917 -0.0436  0.2523  0.1318
30997W        W37447  17.819   1.098  28.825 -0.0798  0.0695 -0.1073
30998W        W37448  14.542   6.093   4.755 -0.1262  0.0089 -0.0741
30999W        W37449   0.671   5.466   8.534  0.2961  0.3563  0.0209
31000W        W37450   5.060   0.432  29.612  0.2387 -0.1255 -0.0354
31001W        W37451  13.607   4.573  19.698 -0.0794 -0.1857 -0.1080
31002W        W37452   6.879   0.243   1.478 -0.0553  0.2524 -0.0093
31003W        W37453  19.329   6.089  25.318 -0.2049 -0.2087  0.0765
31004W        W37454   4.398   5.218  16.122 -0.0743 -0.0629 -0.0342
31005W        W37455   2.042   0.361  15.811 -0.0973  0.1153  0.1549
31006W        W37456   0.021   3.431  32.791 -0.3415 -0.0038  0.2083
31007W        W37457  11.016   6.208  11.823  0.1405 -0.1754 -0.0261
31008W        W37458   0.772   5.551  15.217 -0.1456 -0.1090  0.1715
31009W        W37459   3.553   6.385  18.291 -0.0083 -0.2620 -0.1605
31010W        W37460   8.107   2.619  25.075  0.1818 -0.1203  0.0678
31011W        W37461   7.209   4.668  32.161  0.0431 -0.1237 -0.1707
31012W        W37462   6.799   3.143   8.180  0.0442 -0.1135  0.2373
31013W        W37463   1.931   4.772  13.927 -0.3663  0.0174  0.0021
31014W        W37464   3.403   5.734  16.939  0.0641 -0.0952 -0.2201
31015W        W37465   9.844   0.934  29.843 -0.1078 -0.0340 -0.3357
31016W        W37466   4.513   2.554   0.411  0.1222 -0.1655  0.0268
31017W        W37467   1.536   4.114  14.683  0.2778 -0.0359 -0.2229
31018W        W37468  10.082   7.161  12.987 -0.1388 -0.0073  0.0516
31019W        W37469  18.361   0.138  23.095  0.2095  0.2124  0.0359
31020W        W37470   5.295   3.306  10.674  0.0472 -0.0716  0.0507
31021W        W37471  20.581   2.367   3.225  0.0042 -0.1021 -0.2796
31022W        W37472   1.719   2.222  28.181 -0.0275 -0.2368  0.0406
31023W        W37473   2.612   2.085  23.703  0.2365 -0.0806  0.1334
31024W        W37474  17.954   0.969   9.201 -0.4124  0.1835  0.3869
31025W        W37475  22.925   1.800  31.368  0.3097  0.0217 -0.3035
31026W        W37476   6.485   2.311   8.948  0.0493  0.1196 -0.1033
31027W        W37477  15.311   5.606   0.425  0.2002  0.1272  0.0856
31028W        W37478  20.382   3.138  32.142 -0.0042 -0.1305 -0.3111
31029W        W37479   4.751   6.365   1.758 -0.0243  0.0451  0.1208
31030W        W37480  16.928   2.418  10.167  0.1550  0.0437  0.0940
31031W        W37481  17.046   0.063  17.991  0.2170  0.0172 -0.1468
31032W        W37482  14.233   4.544   1.778  0.0497  0.2872 -0.0348
31033W        W37483  23.285   4.975   5.799 -0.2529 -0.1707  0.1294
31034W        W37484  23.339   0.233  13.629 -0.0895  0.1126  0.1359
31035W        W37485  12.116   4.939   7.250  0.2560  0.0596  0.3611
31036W        W37486  12.928   2.465   0.963  0.0182  0.1679  0.1225
31037W        W37487  24.729   7.656  10.262  0.0951 -0.0496  0.0595
31038W        W37488   3.591   5.865  28.810 -0.1779 -0.2695 -0.1278
31039W        W37489   4.757   2.576  26.850  0.3230  0.1697  0.1230
31040W        W37490  15.138   4.836  27.174 -0.0148 -0.0653  0.0113
31041W        W37491   9.011   3.041  22.643 -0.0676 -0.0981  0.0512
31042W        W37492  20.740   0.904   8.195 -0.0944 -0.0549  0.1337
31043W        W37493  14.414   4.542  29.252  0.6151  0.2161 -0.1139
31044W        W37494  23.601   3.506   2.107  0.1559  0.1030 -0.0263
31045W        W37495  21.063   2.214  20.160  0.1589  0.1067 -0.0258
31046W        W37496  21.623   4.509  22.746  0.1031 -0.0262  0.2240
31047W        W37497   6.393   2.221  11.501  0.0452  0.0647  0.0250
31048W        W37498  12.893   2.291  16.143 -0.3873 -0.0435 -0.4020
31049W        W37499  14.271   1.728   7.496  0.1106 -0.1031 -0.0377
31050W        W37500  17.384   3.933  15.505 -0.0941 -0.1489 -0.0733
31051W        W37501  12.793   0.061   0.883  0.0167  0.1208 -0.0320
31052W        W37502  21.581   6.134  26.147 -0.1400  0.2117  0.0810
31053W        W37503  18.220   4.854   0.891 -0.0136 -0.1424  0.2071
31054W        W37504   4.776   0.229  14.110 -0.1934  0.3340 -0.1513
31055W        W37505   7.510   4.125  30.365  0.0324 -0.0242 -0.1993
31056W        W37506   0.121   2.572  27.348  0.0371  0.1003 -0.0340
31057W        W37507   8.517   0.175   8.654 -0.1826 -0.0977  0.0268
31058W        W37508  18.114   1.761  16.924 -0.0805  0.0738 -0.0480
31059W        W37509   1.724   1.071  28.612  0.0942 -0.0133  0.0748
31060W        W37510  17.214   3.726  19.835  0.2691 -0.0755 -0.0447
31061W        W37511  13.559   6.656  30.488 -0.0653  0.0133  0.0103
31062W        W37512   2.995   1.430  28.110 -0.0667  0.1074  0.1352
31063W        W37513  15.063   4.934  33.037 -0.3192  0.1726 -0.2372
31064W        W37514  12.865   3.727   3.849 -0.1841  0.0170  0.1363
31065W        W37515  14.982   3.532   1.405 -0.0042 -0.2421 -0.0036
31066W        W37516  20.309   4.124  23.944  0.1360  0.1420  0.1625
31067W        W37517  16.404   5.543  30.297  0.0001 -0.1902 -0.3930
31068W        W37518  13.725   7.127   3.842 -0.3978 -0.2047  0.2704
31069W        W37519  14.469   0.272  16.002 -0.1038  0.2236 -0.2751
31070W        W37520  15.778   2.089  28.720  0.1786 -0.2841 -0.0987
31071W        W37521  12.982   5.663   5.272  0.1234  0.0606 -0.1881
31072W        W37522   0.356   3.749  25.477  0.1019  0.2063  0.2672
31073W        W37523   5.782   1.454  29.305  0.0198 -0.2783 -0.3530
31074W        W37524  21.788   2.452  32.064 -0.2212  0.2353  0.0286
31075W        W37525   1.134   6.361   9.326 -0.0058 -0.1530  0.0778
31076W        W37526   7.373   3.448  28.034  0.2163 -0.0105 -0.0655
31077W        W37527  12.662   6.859  30.537  0.1224 -0.0479 -0.2624
31078W        W37528  17.328   2.391   9.092  0.0305 -0.3818 -0.1860
31079W        W37529  14.785   0.582  29.009 -0.2297  0.2283  0.3371
31080W        W37530  19.887   7.335   3.614  0.0695 -0.1962  0.0292
31081W        W37531  22.461   3.094  29.450 -0.0441 -0.2764 -0.1263
31082W        W37532  10.235   6.784   5.088 -0.1794  0.2439 -0.1385
31083W        W37533  10.787   7.310   5.568  0.2345  0.4331 -0.2132
31084W        W37534   2.198   4.808  28.176  0.1135 -0.2120 -0.0628
31085W        W37535   6.354   3.649  25.963 -0.1399 -0.0885  0.1055
31086W        W37536  20.314   1.995   7.448  0.1901  0.2162 -0.2176
31087W        W37537   4.239   2.719   4.237 -0.1490  0.0788 -0.0628
31088W        W37538  14.671   3.971   7.343  0.3656 -0.2401  0.0386
31089W        W37539   9.524   6.937  32.427  0.0616  0.2885 -0.1737
31090W        W37540   2.706   5.494   8.046 -0.1028  0.0378  0.0365
31091W        W37541  11.838   2.818  25.041  0.2337  0.2550  0.0761
31092W        W37542  17.213   4.481   2.526  0.0873  0.3374 -0.1729
31093W        W37543  10.031   6.332  31.200 -0.4921  0.1278  0.2122
31094W        W37544  19.547   5.701   3.608 -0.1667 -0.0515 -0.4204
31095W        W37545  20.173   6.565  20.299 -0.0591 -0.0312  0.1078
31096W        W37546  20.777   2.598   0.657  0.0938  0.1348  0.0319
31097W        W37547   2.439   2.118   8.918  0.2014  0.0522  0.1778
31098W        W37548  19.240   2.334  22.680  0.1537 -0.0464  0.1096
31099W        W37549   8.560   4.581  29.796 -0.1851  0.1124  0.2109
31100W        W37550  13.987   2.443   1.578 -0.3000 -0.0009 -0.0827
31101W        W37551   3.371   1.766  27.978 -0.0339  0.3089  0.1367
31102W        W37552   8.334   0.206   7.691  0.1156  0.2297 -0.3806
31103W        W37553  13.743   7.151   4.341 -0.2729  0.0089  0.1844
31104W        W37554  19.386   5.895  32.584  0.3500  0.0165 -0.0012
31105W        W37555  15.571   4.718   0.022  0.1797  0.1372 -0.3693
31106W        W37556   3.204   6.087  24.908  0.1790  0.1099  0.1211
31107W        W37557  17.018   6.566   0.032  0.0407 -0.2598  0.1171
31108W        W37558   5.798   7.198  16.686  0.2263  0.1460 -0.0390
31109W        W37559   1.298   0.016   6.066  0.1961  0.0972  0.0438
31110W        W37560   7.869   7.299  29.001  0.0012 -0.0245  0.1511
31111W        W37561  10.767   7.687   7.201 -0.1606 -0.1131  0.2350
31112W        W37562   0.940   7.085  12.698 -0.0010 -0.0786 -0.0864
31113W        W37563   3.759   1.237  15.947 -0.1136 -0.2172  0.0511
31114W        W37564   8.867   0.476   8.382 -0.2152  0.1899  0.1281
31115W        W37565   1.802   0.941  30.484 -0.1609  0.0120  0.3624
31116W        W37566  21.936   7.736   1.952 -0.1336  0.1123  0.1968
31117W        W37567  10.735   7.704  32.322 -0.1672  0.1710  0.0362
31118W        W37568  18.070   4.815   1.432 -0.2695  0.0552  0.1077
31119W        W37569  15.175   0.579   2.164  0.0415 -0.1227 -0.0973
31120W        W37570  22.922   4.169  21.926 -0.1360 -0.3140 -0.2661
31121W        W37571   2.573   5.396  12.631  0.3913  0.2321 -0.3840
31122W        W37572  18.358   0.577  28.077  0.0222  0.2976 -0.0209
31123W        W37573   4.414   7.336  14.329  0.0487 -0.1645 -0.1308
31124W        W37574   4.212   1.610   1.986 -0.1632  0.2172  0.0623
31125W        W37575  23.571   5.293   2.786 -0.0583  0.1477 -0.0140
31126W        W37576  20.492   3.206  22.112  0.0561  0.0689 -0.1361
31127W        W37577  14.396   1.383  30.406  0.0321  0.2265 -0.2534
31128W        W37578   6.271   2.533  30.993  0.0520  0.2163 -0.0316
31129W        W37579  21.932   7.790  12.081 -0.3750 -0.0349 -0.0587
31130W        W37580   2.458   6.578   8.681 -0.1477  0.2086  0.0409
31131W        W37581   4.189   5.855  32.659 -0.2594  0.0815 -0.0315
31132W        W37582  19.563   4.905   1.902 -0.0945  0.0398 -0.1156
31133W        W37583  18.878   0.862   3.659  0.2682 -0.1250  0.4936
31134W        W37584   3.750   4.643   9.833 -0.0378  0.3869 -0.0467
31135W        W37585   4.204   7.019  24.324 -0.0532 -0.0979 -0.1284
31136W        W37586  20.773   6.443  30.598 -0.1746  0.1724 -0.1303
31137W        W37587   7.058   2.504   2.585  0.0229  0.0356 -0.1083
31138W        W37588  11.325   6.431   0.294  0.1247  0.3180  0.0796
31139W        W37589  12.235   0.642  29.333 -0.0246  0.2586  0.1724
31140W        W37590  20.644   4.908  17.537 -0.0243  0.0021  0.0423
31141W        W37591   3.582   1.155   7.113  0.0494  0.0634 -0.1335
31142W        W37592   1.179   1.963  30.578  0.0850 -0.1682  0.1266
31143W        W37593  17.976   5.291   0.690 -0.0371 -0.1856 -0.3015
31144W        W37594  11.355   6.867   6.077  0.2877  0.2529  0.0088
31145W        W37595  21.627   5.017  11.304 -0.1922 -0.2096 -0.2915
31146W        W37596  17.756   1.142  29.508 -0.1437 -0.0803 -0.1082
31147W        W37597  18.341   0.411  24.983 -0.0459  0.0020 -0.2197
31148W        W37598  22.808   0.540   5.444  0.0459  0.0178 -0.1941
31149W        W37599   0.686   4.384  29.202 -0.1766  0.0005  0.0986
31150W        W37600   8.422   7.253  27.707 -0.2863 -0.0777  0.1640
31151W        W37601   4.673   2.803  17.857 -0.0611  0.0869  0.1280
31152W        W37602  24.377   3.547  21.207 -0.0004 -0.0082  0.1092
31153W        W37603  18.444   1.319  23.772  0.0323  0.0525 -0.0957
31154W        W37604  21.968   2.108  10.351  0.1286 -0.2216 -0.3167
31155W        W37605   4.776   0.430  24.662  0.1398 -0.0628 -0.0163
31156W        W37606   1.869   2.620   0.802  0.2308  0.2212 -0.0147
31157W        W37607  15.672   2.313   6.931  0.1485 -0.0337  0.0893
31158W        W37608   5.078   2.527   1.277  0.0731 -0.1759  0.1703
31159W        W37609  13.662   4.313  27.402  0.1833  0.0348 -0.0865
31160W        W37610  11.784   3.332  22.197 -0.1586 -0.0559 -0.1141
31161W        W37611  13.867   2.389  16.887 -0.1591  0.0466 -0.1349
31162W        W37612  22.798   0.627   1.982  0.1947  0.2458 -0.0973
31163W        W37613  11.313   2.056  26.411 -0.3384  0.0017 -0.2976
31164W        W37614  19.493   4.766   1.464  0.1300 -0.2621  0.1279
31165W        W37615   3.578   0.789  27.849 -0.0064  0.1888  0.4456
31166W        W37616  24.295   7.266  29.942 -0.3719  0.0743 -0.2829
31167W        W37617  19.994   1.345  19.474  0.2538 -0.2478 -0.0306
31168W        W37618  17.879   5.862   9.606  0.0629  0.0447 -0.1345
31169W        W37619  18.015   1.655   4.673 -0.1178  0.1891  0.1692
31170W        W37620  10.671   2.076  20.897 -0.3111 -0.2571  0.0706
31171W        W37621  10.547   5.933   7.824 -0.0773  0.1627 -0.0531
31172W        W37622   9.217   0.823   7.564  0.0533 -0.0289  0.1693
31173W        W37623   4.303   4.234  28.149  0.1263 -0.1440  0.1291
31174W        W37624   8.668   4.275  22.301 -0.2081  0.1508  0.1496
31175W        W37625  20.794   2.274  25.041  0.2696 -0.0326 -0.3414
31176W        W37626  16.976   3.962  29.405 -0.2111  0.1311 -0.0519
31177W        W37627   2.255   5.745   5.683 -0.0691  0.1131 -0.1662
31178W        W37628  19.531   7.359  19.052  0.1454  0.0745 -0.0792
31179W        W37629   2.265   1.327   9.200 -0.1469  0.1069 -0.4763
31180W        W37630   5.412   6.071   2.362 -0.0831 -0.0558 -0.0964
31181W        W37631  12.584   1.989  24.937  0.1192  0.2704 -0.2614
31182W        W37632   1.094   7.728  11.150 -0.0417 -0.2693 -0.0841
31183W        W37633  12.978   6.558   7.251 -0.1715 -0.0863  0.0265
31184W        W37634   9.498   0.353  31.463 -0.1197 -0.3953 -0.4140
31185W        W37635   5.260   3.593  29.508 -0.0121 -0.1083 -0.2130
31186W        W37636   2.454   0.828   9.134 -0.1041 -0.2540  0.2130
31187W        W37637  22.445   6.972   5.677 -0.0064  0.0499  0.1447
31188W        W37638  24.344   3.760  14.240 -0.5243 -0.0421 -0.1012
31189W        W37639  14.600   3.352   4.033  0.0060 -0.2874  0.1207
31190W        W37640   1.699   5.833   8.761  0.3107 -0.0658  0.0206
31191W        W37641  17.121   1.322  26.488 -0.0066 -0.1589  0.2059
31192W        W37642  16.410   4.551  23.471  0.0258  0.2631  0.1719
31193W        W37643  13.066   7.407  26.473 -0.4670  0.0044 -0.1171
31194W        W37644  13.161   2.706  32.954  0.1521  0.0720 -0.1693
31195W        W37645   4.469   2.972  28.557 -0.0095 -0.2071 -0.1663
31196W        W37646   2.480   2.896  16.001 -0.3145 -0.1773 -0.0671
31197W        W37647  16.527   6.883  29.556  0.2934 -0.1596  0.1764
31198W        W37648  18.326   0.537  10.574 -0.2461 -0.0422 -0.2443
31199W        W37649   5.610   5.333   3.173  0.0850  0.3824  0.3270
31200W        W37650   9.745   3.147   0.685 -0.2677  0.1306  0.0630
31201W        W37651  10.744   5.035   4.399  0.0131  0.1205 -0.3694
31202W        W37652  10.813   2.972  24.975  0.0019  0.0239 -0.0279
31203W        W37653  10.682   6.530  30.811 -0.0215 -0.1640 -0.0995
31204W        W37654  13.433   3.712  26.337 -0.2120  0.0212 -0.0031
31205W        W37655  14.294   4.985  31.730  0.1053 -0.2803 -0.2313
31206W        W37656   9.775   6.924   9.881 -0.1516  0.0243 -0.2028
31207W        W37657  22.784   3.917   7.914 -0.1387  0.0474  0.3684
31208W        W37658  11.918   6.309  11.561 -0.2674  0.1318 -0.1899
31209W        W37659   5.990   1.210  27.461  0.0832 -0.0452 -0.0837
31210W        W37660  18.482   7.022  10.665 -0.3708 -0.0978  0.0053
31211W        W37661  19.906   6.295  28.066 -0.0634 -0.0642 -0.1875
31212W        W37662   5.740   0.895   3.057  0.1351 -0.1400 -0.0099
31213W        W37663   6.384   2.066  31.812 -0.0637 -0.1051 -0.1900
31214W        W37664   3.253   1.568  25.258 -0.2238  0.1998  0.1206
31215W        W37665   9.985   2.393   3.849  0.1646 -0.0486 -0.2555
31216W        W37666   7.203   1.269  28.912  0.1284 -0.1249  0.0345
31217W        W37667   9.793   3.991   1.012 -0.2019  0.1378  0.1684
31218W        W37668   2.660   0.440  23.463  0.0561 -0.3188  0.3054
31219W        W37669  10.899   2.673   4.173  0.1172  0.0678  0.0269
31220W        W37670   6.154   5.151  17.995 -0.2791 -0.1854  0.1597
31221W        W37671  16.098   1.168  10.306  0.0898  0.0500  0.0433
31222W        W37672  11.785   1.172   8.663 -0.1047  0.0345  0.0128
31223W        W37673  11.014   3.217   0.758  0.0512 -0.0247 -0.1903
31224W        W37674  18.272   3.055  28.213  0.0124 -0.3646 -0.0315
31225W        W37675   5.234   1.890   9.531 -0.0929 -0.0804  0.0263
31226W        W37676   6.301   1.947  25.894  0.1227 -0.2193 -0.2158
31227W        W37677  16.821   3.045  30.475 -0.2683  0.1581 -0.2375
31228W        W37678   5.205   1.595  12.747 -0.2276 -0.0391  0.1956
31229W        W37679  19.139   0.628  32.874 -0.0863  0.0069 -0.1588
31230W        W37680  20.315   7.620  30.224  0.2273  0.1484  0.1807
31231W        W37681  10.993   1.893  11.695 -0.1874  0.1780  0.0398
31232W        W37682   6.430   7.063  31.576 -0.2004 -0.3290 -0.3367
31233W        W37683  10.472   3.964  30.309 -0.2442 -0.1724  0.0185
31234W        W37684   4.711   4.282   1.917  0.1029 -0.1542 -0.1027
31235W        W37685  15.799   2.364  23.347 -0.1652 -0.1217 -0.0780
31236W        W37686   6.120   2.060   9.766 -0.1643 -0.0756 -0.1267
31237W        W37687   7.586   6.206  27.785 -0.2672 -0.2854 -0.2395
31238W        W37688  19.766   5.052  18.637 -0.0132 -0.2298 -0.3033
31239W        W37689  19.009   6.607  31.313  0.2617  0.1836  0.3002
31240W        W37690   1.013   5.791   3.148 -0.2534  0.2346 -0.1937
31241W        W37691   3.324   0.906  26.993 -0.1182 -0.0011 -0.2247
31242W        W37692   7.695   4.450   3.590  0.2414  0.1970 -0.2784
31243W        W37693  18.784   0.702  24.134  0.0238 -0.0711 -0.1671
31244W        W37694   9.516   4.827   2.651  0.3865 -0.1241 -0.1071
31245W        W37695  13.592   4.733   8.106  0.1103 -0.1313  0.0909
31246W        W37696  18.156   5.026   3.529 -0.0636  0.2112  0.2495
31247W        W37697  15.865   7.599  27.598  0.3249 -0.0884 -0.0377
31248W        W37698  23.338   5.905   9.987  0.0378  0.1330  0.0922
31249W        W37699  13.905   6.879   9.279 -0.3317 -0.1040  0.5091
31250W        W37700  11.354   6.862  24.893  0.1454  0.1514  0.4049
31251W        W37701  22.865   6.231   6.062 -0.1393  0.0461  0.0556
31252W        W37702  13.370   6.805  17.220  0.1197 -0.0616 -0.0620
31253W        W37703  16.638   3.972   5.724 -0.0181  0.0055  0.0678
31254W        W37704   9.339   6.081  10.569 -0.0727  0.1785  0.2008
31255W        W37705  12.695   3.959  30.173 -0.2513 -0.1340  0.2084
31256W        W37706  11.652   5.666  26.730 -0.1734 -0.0515  0.1506
31257W        W37707  10.439   0.790  11.757  0.1820  0.0482 -0.0713
31258W        W37708  15.797   3.928  28.995 -0.1614 -0.2916  0.0672
31259W        W37709   7.176   4.123  24.473  0.1233 -0.0157 -0.0767
31260W        W37710  14.298   7.049   5.080  0.0848  0.0558 -0.0884
31261W        W37711   4.683   7.515   3.261 -0.0134  0.2401  0.0418
31262W        W37712   9.362   0.540  30.967 -0.0111  0.0032  0.0867
31263W        W37713  17.274   1.241  16.675 -0.0292  0.1417  0.0986
31264W        W37714  11.736   7.302  20.989 -0.1262 -0.0249 -0.2990
31265W        W37715  15.553   7.009  31.997 -0.0783 -0.1973  0.0868
31266W        W37716  23.833   0.528  10.856  0.0874  0.1284  0.0813
31267W        W37717  20.560   3.583   2.443 -0.2689 -0.0951  0.1279
31268W        W37718  19.958   5.279  23.278  0.3291 -0.0731 -0.0961
31269W        W37719  22.400   2.610   9.843  0.0832  0.0038 -0.2444
31270W        W37720  14.049   7.753  22.328  0.1985  0.1182 -0.0010
31271W        W37721   9.512   3.318   5.274 -0.0646 -0.1928  0.1500
31272W        W37722   3.062   7.122   8.932 -0.0286  0.0118 -0.0898
31273W        W37723  15.459   4.629   5.565 -0.1427  0.0421 -0.0391
31274W        W37724   6.654   1.628  13.888  0.3463 -0.0248  0.0083
31275W        W37725   0.465   0.596   6.900 -0.3457  0.0046 -0.0615
31276W        W37726   3.097   5.571   8.869 -0.1909 -0.1255 -0.1077
31277W        W37727  15.235   4.372  28.869  0.0971 -0.0710  0.0242
31278W        W37728   8.280   2.224   4.777 -0.1858  0.0210  0.0299
31279W        W37729   8.110   6.012   7.394 -0.2122 -0.1247  0.0739
31280W        W37730   7.948   7.424  23.139  0.1619  0.2026  0.0788
31281W        W37731  18.123   7.771   1.797  0.0042  0.3395  0.0467
31282W        W37732  18.620   5.518   0.214 -0.2934 -0.0557  0.1480
31283W        W37733   9.660   3.259  31.505  0.0759 -0.0434  0.0126
31284W        W37734   5.269   0.503  17.133 -0.0165 -0.0569 -0.1140
31285W        W37735  14.775   2.454  28.425  0.0194  0.0484 -0.0290
31286W        W37736  17.530   5.836   5.532 -0.3475  0.0863  0.1397
31287W        W37737  16.883   4.952   8.138  0.0458 -0.0395 -0.1128
31288W        W37738   3.368   5.514  32.071 -0.1936 -0.2936  0.2315
31289W        W37739   6.859   7.660   5.682  0.2495  0.0928 -0.0697
31290W        W37740  24.185   2.769  13.450 -0.1485  0.1902 -0.0614
31291W        W37741  17.617   5.177  24.410 -0.1059  0.4039 -0.3309
31292W        W37742   8.158   2.519  30.430 -0.0967 -0.2587 -0.1877
31293W        W37743  19.389   0.688  21.328  0.4922 -0.1455 -0.4274
31294W        W37744  20.184   3.896  29.890  0.3305  0.1593 -0.0740
31295W        W37745   7.488   5.600   9.861 -0.1270  0.1341 -0.2320
31296W        W37746   0.973   5.859   9.444  0.0214  0.0667  0.3111
31297W        W37747  11.217   5.065  21.351  0.1654 -0.0985 -0.0959
31298W        W37748  10.761   7.178  21.722  0.0914 -0.0947 -0.0998
31299W        W37749   1.118   4.031  10.169  0.3210 -0.0992 -0.0252
31300W        W37750  10.323   3.253  24.184 -0.1433  0.1558  0.0226
31301W        W37751   9.325   3.896   7.627  0.0379 -0.4063 -0.0562
31302W        W37752  14.738   3.526   0.661 -0.0508  0.3470  0.1220
31303W        W37753   6.820   6.638   4.278  0.0351 -0.1510 -0.0425
31304W        W37754   6.981   7.078  33.038  0.4085 -0.1590  0.0007
31305W        W37755  17.185   7.038  15.212 -0.2337  0.0015  0.2223
31306W        W37756  20.400   5.880  18.615 -0.2587 -0.0031 -0.0256
31307W        W37757  13.025   7.473   8.410  0.0390  0.0003  0.0243
31308W        W37758  14.180   2.517  18.606  0.2755 -0.0495 -0.0411
31309W        W37759  23.635   7.785  28.804 -0.1712 -0.0047  0.7365
31310W        W37760  18.686   7.381   9.063  0.2227 -0.1464  0.0855
31311W        W37761   2.181   6.295  12.953  0.2793 -0.1140  0.1873
31312W        W37762  11.465   2.312   2.561 -0.2966  0.0509  0.0479
31313W        W37763  13.144   6.739   1.555  0.0230  0.0477  0.2403
31314W        W37764  11.364   3.582   0.586 -0.1087  0.1568  0.3120
31315W        W37765   5.057   6.186  14.370  0.1282  0.0385  0.1604
31316W        W37766   6.296   7.280  24.665  0.0099  0.1714 -0.3358
31317W        W37767   0.989   1.216  22.350  0.2492  0.1481  0.3613
31318W        W37768  14.733   5.930  31.317 -0.2950  0.1451 -0.0071
31319W        W37769   4.051   7.100  10.854  0.0673 -0.0296 -0.1593
31320W        W37770  20.374   6.472  27.385 -0.1995 -0.0442  0.1437
31321W        W37771  21.991   4.444   9.758 -0.1665 -0.1662 -0.2007
31322W        W37772  22.859   5.889  28.247  0.3210 -0.2705 -0.3230
31323W        W37773  17.145   3.183  17.186 -0.0421 -0.3504  0.3855
31324W        W37774   6.718   3.688  32.439 -0.3543  0.0334  0.3195
31325W        W37775  23.739   2.660   2.763 -0.0837 -0.0811  0.0238
31326W        W37776  13.241   0.358  10.712 -0.0790 -0.0496  0.0568
31327W        W37777  22.342   3.583  26.326 -0.1179  0.1872  0.1721
31328W        W37778   9.837   1.462  26.936  0.1356  0.1980  0.0324
31329W        W37779  10.089   4.445   9.752 -0.1470  0.1345 -0.2134
31330W        W37780  11.564   1.028  28.902 -0.3655  0.1765  0.2664
31331W        W37781  18.986   1.125  18.344 -0.1792 -0.0253 -0.0380
31332W        W37782  18.223   2.936   1.749 -0.2447 -0.0317 -0.2677
31333W        W37783   8.059   6.356  27.419 -0.0001  0.0151 -0.1041
31334W        W37784   1.518   6.368  32.271 -0.0394 -0.1244  0.0026
31335W        W37785  18.209   3.590  26.800  0.0567 -0.2844  0.0551
31336W        W37786  20.797   0.880  17.676  0.1481 -0.2880 -0.0578
31337W        W37787  14.044   5.582  21.736 -0.0424 -0.2177  0.2663
31338W        W37788  12.597   4.907  24.312  0.0533  0.1437 -0.0881
31339W        W37789   5.665   3.847   8.621 -0.1292  0.0202  0.2350
31340W        W37790  17.890   7.573   0.288 -0.0722  0.2488 -0.1680
31341W        W37791  21.475   4.728  25.932  0.2662 -0.4336 -0.1302
31342W        W37792   2.805   2.596  15.745  0.2800 -0.0593 -0.2232
31343W        W37793   1.130   5.642  10.490 -0.2271  0.0228  0.1895
31344W        W37794   3.470   4.971   2.997 -0.1560 -0.0881  0.0958
31345W        W37795  18.560   6.670  22.180  0.1559  0.0198 -0.0651
31346W        W37796   1.879   4.151  11.504  0.1487  0.0899  0.2415
31347W        W37797   2.866   3.065  31.892 -0.2919  0.0655 -0.0620
31348W        W37798   2.136   6.203  17.861 -0.1579 -0.3402  0.0345
31349W        W37799  16.872   4.004   1.822  0.3301 -0.0454 -0.0210
31350W        W37800  18.739   7.665  27.599  0.1257 -0.2321  0.0691
31351W        W37801   7.622   2.729   9.458 -0.0304  0.0238 -0.1786
31352W        W37802  12.171   3.125   7.690 -0.1135  0.0594  0.0584
31353W        W37803  14.614   1.933   1.770  0.0277  0.5052 -0.2360
31354W        W37804   3.269   2.761   0.742  0.2133  0.0561  0.2075
31355W        W37805   8.109   3.715   0.793 -0.2342  0.0622  0.1303
31356W        W37806   6.240   1.594  17.316 -0.2682 -0.3559 -0.0989
31357W        W37807  12.209   1.847   2.356 -0.1274 -0.0854 -0.3644
31358W        W37808   6.105   0.656  14.196 -0.1856  0.1154 -0.2260
31359W        W37809  11.331   4.569   1.403  0.1900  0.0180 -0.1369
31360W        W37810   8.152   1.866  12.604 -0.2820  0.3612 -0.0863
31361W        W37811  14.055   5.421   0.295  0.1850  0.2045 -0.0103
31362W        W37812   3.252   7.298  22.522 -0.2297 -0.2165  0.0803
31363W        W37813  18.928   1.482   4.613 -0.1015  0.2015 -0.2975
31364W        W37814  12.576   0.794  25.209 -0.1655 -0.3409 -0.1030
31365W        W37815   1.013   1.784   4.691 -0.0318  0.0154 -0.0010
31366W        W37816  22.113   5.379   0.238 -0.2783  0.2929  0.1239
31367W        W37817  15.076   6.135  21.638  0.1143 -0.0342 -0.1335
31368W        W37818   2.415   1.678  25.518  0.1473  0.1653 -0.2179
31369W        W37819   0.780   1.755  13.074 -0.2565 -0.0734  0.0588
31370W        W37820   1.910   0.197  15.313 -0.4751  0.0834 -0.1809
31371W        W37821  23.070   2.121  25.481  0.0737 -0.1161  0.0962
31372W        W37822  23.051   5.885  13.149 -0.1078  0.0058 -0.1038
31373W        W37823  19.070   3.371  31.811 -0.2159 -0.1407  0.1466
31374W        W37824   3.815   4.448   1.715  0.2090 -0.1231  0.0128
31375W        W37825  24.023   6.702  12.599  0.4926  0.2360  0.2750
31376W        W37826  18.693   1.471   9.457 -0.1738  0.1698 -0.0635
31377W        W37827   7.646   0.291   3.627  0.2028 -0.0164 -0.1434
31378W        W37828  21.150   0.097  26.839 -0.2797 -0.0422 -0.2848
31379W        W37829   1.566   4.608   6.683  0.1703 -0.2634  0.0452
31380W        W37830   3.405   3.296   9.042 -0.1800 -0.2556  0.2215
31381W        W37831  17.811   6.103  16.310  0.0976  0.0812 -0.0136
31382W        W37832   6.123   0.490  29.172  0.1841  0.2392  0.0329
31383W        W37833  13.728   2.329   8.595  0.2600 -0.1301  0.1503
31384W        W37834  17.276   0.114   9.811  0.0413 -0.0021  0.2073
31385W        W37835   1.921   0.450  26.123 -0.1491 -0.1569  0.1273
31386W        W37836   0.603   0.333   3.188 -0.1616  0.1887  0.1688
31387W        W37837  16.524   7.790   0.075 -0.3664  0.0348 -0.1984
31388W        W37838   2.240   6.803  32.555  0.1537  0.0435  0.2584
31389W        W37839  11.239   2.518  21.250  0.0707 -0.1737 -0.1961
31390W        W37840   6.252   2.682  26.937  0.2342 -0.2108  0.0777
31391W        W37841   8.751   5.047  31.065  0.2472 -0.0531 -0.0305
31392W        W37842  19.176   2.649  32.655  0.3146  0.2835 -0.1575
31393W        W37843  19.463   6.255  10.276  0.2104 -0.0782  0.0304
31394W        W37844   1.545   3.673  10.080  0.1756 -0.1098 -0.0608
31395W        W37845  22.944   0.984  23.620  0.0232 -0.0443 -0.0502
31396W        W37846   8.277   2.779   5.509 -0.3638 -0.1455 -0.0525
31397W        W37847   2.778   1.500  25.871  0.1498 -0.2875  0.0823
31398W        W37848  11.647   2.934  11.039  0.1141  0.2654  0.1295
31399W        W37849   5.535   1.855   3.201 -0.0777 -0.0862  0.2077
31400W        W37850  21.303   1.434  30.086 -0.3325 -0.1342  0.0789
31401W        W37851  17.122   3.318   0.107  0.0410  0.0999  0.0533
31402W        W37852  24.530   3.811   7.043 -0.0734 -0.0259 -0.0742
31403W        W37853   0.175   3.286   5.341  0.1277  0.0089  0.0400
31404W        W37854   0.510   6.327  26.457 -0.1402  0.1749  0.0970
31405W        W37855   8.736   2.505  13.700 -0.1104 -0.1378  0.1464
31406W        W37856  15.133   1.773  18.090 -0.0648 -0.2657  0.4506
31407W        W37857  22.629   5.553  20.747  0.1130  0.0558  0.0947
31408W        W37858  22.278   4.012   9.346  0.1757 -0.0204  0.0599
31409W        W37859  10.565   0.580  12.192  0.2880 -0.0305  0.0342
31410W        W37860   8.966   2.535  22.636  0.0784  0.3756  0.3181
31411W        W37861   2.848   3.841  25.685  0.1131 -0.0427  0.0282
31412W        W37862  11.516   0.534  25.438 -0.0640  0.1413  0.2357
31413W        W37863  18.738   4.856   5.939 -0.3309  0.0999  0.2227
31414W        W37864  13.544   1.250   0.866 -0.1873  0.0132  0.0435
31415W        W37865  16.796   4.616  26.290 -0.3060  0.1469 -0.0131
31416W        W37866  11.563   3.101  30.049 -0.1384 -0.0345  0.2395
31417W        W37867  14.582   4.444  15.133 -0.0374  0.0420  0.0530
31418W        W37868  12.070   7.571   5.876 -0.1095 -0.2143 -0.1128
31419W        W37869  14.467   6.233  26.275  0.2835  0.2465 -0.0454
31420W        W37870   4.674   0.207   3.098  0.1815  0.0405  0.1353
31421W        W37871  18.224   1.508   5.605  0.1060  0.0102  0.1906
31422W        W37872   4.450   7.508  18.007 -0.0252 -0.3371 -0.1287
31423W        W37873  17.632   7.283   6.468  0.3074  0.0764 -0.0368
31424W        W37874  13.364   1.442  23.476 -0.0744  0.0160 -0.0827
31425W        W37875  15.329   3.249  26.944 -0.2051  0.3828 -0.0659
31426W        W37876  15.741   7.218  25.887 -0.0277 -0.0887  0.0989
31427W        W37877  18.751   5.501   1.215 -0.2286 -0.3239  0.1833
31428W        W37878  11.767   7.538   1.571  0.1707 -0.0342  0.1270
31429W        W37879  23.022   4.302  31.679  0.3500  0.1568 -0.2645
31430W        W37880   1.466   2.374  27.779 -0.0932 -0.2079  0.0426
31431W        W37881   4.702   2.050  30.847  0.1283 -0.0969 -0.2321
31432W        W37882  23.005   5.520  31.422 -0.0006 -0.0246  0.0352
31433W        W37883  22.320   2.033  10.857 -0.2720 -0.1317 -0.2622
31434W        W37884  13.230   1.888  17.720  0.0526  0.0542 -0.1666
31435W        W37885   7.977   3.206   7.483 -0.1299  0.0143  0.0908
31436W        W37886   5.216   6.664  13.490  0.0426  0.2783  0.2282
31437W        W37887   7.064   7.049  22.690  0.0759  0.0847 -0.1488
31438W        W37888  23.169   3.263  27.518  0.1324  0.1603 -0.0401
31439W        W37889  13.968   0.105   6.194  0.1383 -0.0139  0.0262
31440W        W37890  21.890   1.735  26.880 -0.1945  0.1291 -0.1005
31441W        W37891  13.400   5.887   2.922  0.0716  0.1694  0.0098
31442W        W37892   0.545   1.540   4.188 -0.1926  0.4539  0.0554
31443W        W37893   5.645   0.698   1.123 -0.0193 -0.0087 -0.4096
31444W        W37894  23.690   6.795  20.328 -0.1961  0.0055 -0.1280
31445W        W37895  23.159   5.715  29.691  0.0181  0.0376  0.2070
31446W        W37896   8.230   0.270   1.318 -0.2469 -0.1490 -0.1708
31447W        W37897   1.889   2.729  32.790 -0.0408 -0.1073  0.0871
31448W        W37898  13.253   2.881  27.450 -0.1334  0.0917  0.0059
31449W        W37899  19.846   5.313  30.750  0.3482 -0.0023 -0.0031
31450W        W37900  11.610   5.944  24.700 -0.1490  0.0759  0.3137
31451W        W37901   8.211   1.215  23.949  0.0393  0.1213  0.0647
31452W        W37902   9.952   2.337   9.126 -0.2687  0.0598 -0.0560
31453W        W37903   1.102   0.623  28.094 -0.0334  0.1170 -0.3060
31454W        W37904  24.181   2.535  28.217  0.1370  0.0066  0.1412
31455W        W37905  14.128   0.117  18.148  0.1285 -0.1540 -0.1640
31456W        W37906  20.938   4.764  25.948 -0.1126 -0.0011  0.0867
31457W        W37907  23.893   2.800  22.672  0.0981  0.0763 -0.0084
31458W        W37908  13.035   4.893  20.336  0.1528  0.0075 -0.1656
31459W        W37909  14.836   3.615  25.897  0.3620  0.3795  0.1932
31460W        W37910  11.063   7.477  30.795  0.1559 -0.1062 -0.0872
31461W        W37911  15.185   1.481  20.333 -0.1194  0.2987  0.1901
31462W        W37912  17.444   0.372  32.552 -0.2226  0.0907  0.1964
31463W        W37913  11.630   2.959  28.882 -0.1401  0.1567  0.2609
31464W        W37914   5.702   7.666  15.913  0.0013 -0.1091  0.1484
31465W        W37915   3.298   2.314   5.076 -0.0513 -0.0090  0.1470
31466W        W37916   0.885   4.070   4.557  0.0556  0.1114 -0.2936
31467W        W37917   9.674   2.345  23.883  0.2625 -0.1087  0.2265
31468W        W37918   6.058   1.962   1.787  0.0672 -0.3177  0.0904
31469W        W37919  15.431   6.118   4.208  0.1338 -0.0437  0.0570
31470W        W37920  10.955   4.868  28.049 -0.0339  0.1542  0.1700
31471W        W37921  10.029   3.975   4.530  0.1188 -0.0779 -0.0175
31472W        W37922  17.593   0.142  17.453 -0.0922 -0.1189 -0.1571
31473W        W37923   2.741   2.533  25.084 -0.0780  0.2016 -0.0319
31474W        W37924   5.738   2.476  30.851  0.1262 -0.2052 -0.6301
31475W        W37925  24.484   3.457  28.947 -0.2132 -0.1556 -0.3057
31476W        W37926   3.416   4.988   9.419 -0.0096 -0.2428  0.1046
31477W        W37927  18.611   4.087   9.399  0.2841 -0.0635 -0.1881
31478W        W37928   8.804   4.708   0.225 -0.3600 -0.2108 -0.1106
31479W        W37929  12.757   0.471  17.526  0.0968  0.2932  0.3441
31480W        W37930   5.218   2.406  13.384  0.1080 -0.0062 -0.3304
31481W        W37931  11.810   5.459   0.874  0.0218  0.0109 -0.2152
31482W        W37932   7.877   1.590  12.980 -0.2773 -0.0981  0.2469
31483W        W37933  17.060   7.693  28.487  0.0929  0.0628  0.2171
31484W        W37934  18.708   2.510  21.202  0.1671 -0.1843  0.2046
31485W        W37935  23.789   7.543  12.313  0.0603  0.2596 -0.0908
31486W        W37936   1.578   4.934  27.688 -0.1280  0.1363 -0.0517
31487W        W37937  11.005   2.110  25.981  0.1746 -0.0538  0.0867
31488W        W37938   7.800   2.614  22.904 -0.0907  0.1115 -0.0173
31489W        W37939  17.671   1.997  15.506  0.0529  0.1707 -0.1443
31490W        W37940   8.678   1.282   6.854 -0.2313 -0.0213 -0.3467
31491W        W37941   0.825   3.671  15.552  0.1458 -0.0679  0.2829
31492W        W37942  12.594   2.947  21.889  0.1607 -0.0446 -0.1716
31493W        W37943  17.644   3.867  26.784  0.0715 -0.1707  0.3185
31494W        W37944  22.188   5.467  21.144  0.2963 -0.0975 -0.0899
31495W        W37945  19.610   3.245  28.951  0.0523  0.1531 -0.0843
31496W        W37946   2.921   5.271  32.176  0.1546  0.4807 -0.0768
31497W        W37947  19.854   1.756  23.234 -0.1623  0.1497  0.1127
31498W        W37948  23.951   1.678  32.342  0.0357 -0.0966 -0.0107
31499W        W37949  14.533   3.944  27.496  0.1358 -0.0091 -0.1348
31500W        W37950   6.163   7.461  32.784  0.1807 -0.0967  0.0703
31501W        W37951  16.693   6.573  21.689 -0.3558  0.0096 -0.0431
31502W        W37952  17.221   2.727  31.070 -0.0427 -0.2163 -0.0717
31503W        W37953  21.641   2.046   0.586  0.0067  0.2587 -0.0197
31504W        W37954   4.136   0.352  11.815 -0.0953  0.1319  0.1343
31505W        W37955  24.443   2.806  26.756 -0.0554  0.1372  0.1361
31506W        W37956   3.332   4.268  12.527  0.0329  0.1657  0.2125
31507W        W37957  18.190   0.282  24.014 -0.3014  0.3736  0.1508
31508W        W37958  14.669   1.112   7.001 -0.0427 -0.0306  0.0202
31509W        W37959  16.922   4.601  23.676 -0.1556 -0.1352 -0.1654
31510W        W37960  21.632   7.290   1.227  0.0703  0.0948  0.0320
31511W        W37961  22.369   2.854   3.915  0.1701 -0.1348  0.1737
31512W        W37962   4.991   3.770   2.285  0.1558  0.2408 -0.0479
31513W        W37963  14.829   5.890   0.852 -0.2019  0.1974 -0.1325
31514W        W37964   7.010   6.010  16.659 -0.2815 -0.3063  0.1578
31515W        W37965   5.122   1.701  11.379 -0.1601  0.1067 -0.0305
31516W        W37966  18.320   7.191  17.764  0.3908 -0.1297  0.1343
31517W        W37967  21.616   4.093  28.085  0.0044  0.0458 -0.1022
31518W        W37968  18.770   7.374  27.210 -0.0008 -0.2336 -0.0386
31519W        W37969   0.977   1.152   4.156  0.2754 -0.2066 -0.1803
31520W        W37970   3.388   0.309  28.946  0.1464 -0.1007 -0.5320
31521W        W37971  21.088   3.797  29.032 -0.0139  0.1028  0.0631
31522W        W37972   5.254   7.707  27.582 -0.2947  0.2001  0.0774
31523W        W37973   0.840   6.164  10.171 -0.0243 -0.0289 -0.3509
31524W        W37974  13.172   1.596   8.880  0.0621  0.1088 -0.2605
31525W        W37975   8.296   3.286  30.162  0.2324  0.1238 -0.1856
31526W        W37976  23.358   5.191   6.400  0.0937  0.2009  0.1668
31527W        W37977  12.707   3.718  24.293  0.2843  0.1945  0.1526
31528W        W37978  14.119   4.754   2.852  0.0484 -0.3038  0.0496
31529W        W37979   9.865   5.587   4.931 -0.1203  0.0399 -0.0209
31530W        W37980  19.992   6.211   4.873  0.2556  0.3083  0.1906
31531W        W37981   0.663   2.834  24.554 -0.1118 -0.0502  0.1506
31532W        W37982  18.099   4.698   3.090  0.0803  0.4391 -0.0513
31533W        W37983  14.074   7.139   6.491  0.2271 -0.0244  0.3960
31534W        W37984   2.875   4.062  16.307  0.1406 -0.3456 -0.1225
31535W        W37985  19.488   3.504   4.319  0.2916 -0.0018  0.1216
31536W        W37986  23.485   2.230   2.276  0.0155  0.1832 -0.4593
31537W        W37987  12.808   5.104  23.893  0.2681 -0.2194 -0.0351
31538W        W37988  10.580   7.257  31.507 -0.0076 -0.2477  0.2723
31539W        W37989   3.149   2.951  15.586  0.1651  0.2682 -0.1605
31540W        W37990   8.709   2.202  10.456 -0.0913 -0.0050  0.0276
31541W        W37991   5.992   6.886  23.415 -0.1072  0.1056 -0.1785
31542W        W37992  12.275   5.416   9.708  0.2127  0.1760  0.1040
31543W        W37993  11.812   1.637  31.601 -0.1335  0.0339 -0.1223
31544W        W37994   0.485   6.284  27.898  0.1759 -0.0313 -0.2019
31545W        W37995   2.396   2.168  25.398  0.0040  0.2174  0.0884
31546W        W37996  16.578   4.838  14.173  0.0811  0.1313  0.0158
31547W        W37997  12.555   7.682  17.768  0.1942  0.0763 -0.0583
31548W        W37998   7.545   6.438   1.682  0.4196  0.0521  0.2297
31549W        W37999  12.894   4.388  25.151  0.0379  0.0199  0.0808
31550W        W38000  19.654   0.036   3.873  0.0638  0.0514 -0.4267
31551W        W38001  12.509   0.755   8.118  0.1418  0.0500 -0.2144
31552W        W38002  24.283   1.852   6.606 -0.1562 -0.0306  0.2438
31553W        W38003   5.224   7.386  27.988 -0.0050 -0.0873  0.2073
31554W        W38004  19.411   2.502   5.465 -0.1501 -0.0526 -0.0988
31555W        W38005  10.005   3.642   6.009 -0.0051 -0.2422  0.0835
31556W        W38006  17.811   5.312  26.516  0.1343 -0.1031  0.1063
31557W        W38007   2.342   5.578   0.410  0.2213 -0.1772  0.0833
31558W        W38008  15.328   7.130   5.176  0.1545 -0.1206 -0.1446
31559W        W38009  20.049   0.897   3.428 -0.0193  0.0655  0.0125
31560W        W38010   1.376   6.144  12.546 -0.1151 -0.0622 -0.0763
31561W        W38011  24.059   6.537   5.088  0.2156  0.2111  0.3628
31562W        W38012   9.684   0.043  28.931  0.1340  0.3627  0.1962
31563W        W38013   3.719   0.090  10.830 -0.0567 -0.1528  0.1324
31564W        W38014  24.597   3.695   6.512  0.0684  0.0048  0.3705
31565W        W38015  21.922   3.635  10.267  0.0770  0.3308  0.1076
31566W        W38016  24.292   1.189  26.962 -0.2047  0.2583  0.0237
31567W        W38017   3.958   4.880   6.166 -0.0783 -0.3036  0.0748
31568W        W38018   9.492   2.619   9.959  0.1025 -0.0316 -0.0237
31569W        W38019   9.270   5.815  27.303 -0.0029 -0.1003 -0.2508
31570W        W38020  21.120   1.442  32.948  0.0926  0.2019 -0.0827
31571W        W38021  21.816   6.791  28.719 -0.0599  0.1320  0.1146
31572W        W38022  14.429   5.366   4.089  0.1891 -0.0630  0.2249
31573W        W38023  22.038   7.764  30.960 -0.0334 -0.2308 -0.2650
31574W        W38024  15.550   6.200  25.374 -0.1927  0.0999 -0.0744
31575W        W38025  17.162   2.469   3.229 -0.3583  0.1730 -0.1072
31576W        W38026  15.781   3.080  26.549 -0.0705  0.0002 -0.3205
31577W        W38027   5.151   4.555   5.206 -0.0430 -0.3739 -0.1028
31578W        W38028   4.660   3.355   0.348 -0.0624  0.0525 -0.0342
31579W        W38029   6.808   1.558   3.579 -0.1417  0.1418 -0.0375
31580W        W38030  15.644   5.605  27.572 -0.2777  0.0038 -0.0016
31581W        W38031  17.679   7.068   1.517  0.0276 -0.1328  0.0964
31582W        W38032   0.541   7.487  27.939 -0.0833  0.1056  0.0147
31583W        W38033  13.389   0.163  11.161 -0.0827  0.0023  0.0190
31584W        W38034   5.046   5.242   0.515  0.0859 -0.1906 -0.1278
31585W        W38035   6.180   4.199  16.705 -0.2743  0.0524  0.0585
31586W        W38036  15.137   6.957  30.541 -0.0335  0.3451 -0.0857
31587W        W38037   8.453   6.440   3.299  0.1798  0.0186 -0.2484
31588W        W38038  18.364   7.319   9.527  0.0007 -0.3572  0.2491
31589W        W38039  18.846   1.924   8.394 -0.0087  0.2807  0.0163
31590W        W38040  14.677   1.945  16.716 -0.0475  0.1604 -0.0070
31591W        W38041  18.616   6.101  22.300 -0.1046  0.0868 -0.0970
31592W        W38042  21.603   7.348   9.161 -0.0732 -0.0355  0.1254
31593W        W38043  18.774   1.998  18.005 -0.0933  0.0094  0.0082
31594W        W38044  23.753   6.889  29.192  0.1064 -0.2520  0.0093
31595W        W38045  20.629   5.184   1.567 -0.2175 -0.0660 -0.2193
31596W        W38046   3.514   7.764   6.519  0.1611  0.1609  0.0959
31597W        W38047   0.382   5.229   1.141  0.0882  0.1691  0.0909
31598W        W38048  10.606   1.931  21.488  0.0028 -0.2733  0.1483
31599W        W38049  12.584   7.454   5.079  0.0784 -0.0944 -0.2321
31600W        W38050   7.504   5.875   0.310 -0.0511 -0.0220 -0.1084
31601W        W38051   7.421   6.208  29.171 -0.0551 -0.1653  0.1307
31602W        W38052  19.116   0.039   3.945  0.2774 -0.0068  0.0450
31603W        W38053   6.567   6.267  12.125  0.0225 -0.0434 -0.0986
31604W        W38054   0.006   5.988  25.872  0.0199  0.1483 -0.0952
31605W        W38055  11.241   0.975   0.287  0.1503  0.0150  0.0085
31606W        W38056   2.482   4.959  12.896 -0.2222 -0.1218 -0.3625
31607W        W38057  11.072   5.926  26.581  0.0278 -0.1124  0.0586
31608W        W38058   5.199   7.696  30.878 -0.0212 -0.0591 -0.1354
31609W        W38059   7.941   5.818  28.753  0.2433  0.1008  0.1030
31610W        W38060   1.703   6.603  15.717  0.0166  0.0813  0.2035
31611W        W38061  12.481   3.550  19.858 -0.0412 -0.2539  0.2149
31612W        W38062   1.276   7.571  13.465  0.2247  0.1417 -0.1466
31613W        W38063  17.323   1.756  21.852  0.3493 -0.2248  0.0033
31614W        W38064  16.271   4.353  18.028  0.1460  0.0735  0.1781
31615W        W38065  21.362   1.771   2.863  0.1291 -0.6490  0.0439
31616W        W38066  21.861   3.007  25.620  0.3322 -0.0861 -0.3330
31617W        W38067   4.858   5.095   1.618 -0.2479  0.1256  0.0165
31618W        W38068  10.782   5.520  10.341  0.0805 -0.2687 -0.0107
31619W        W38069  12.932   6.800   9.409 -0.1123  0.1394  0.0207
31620W        W38070   1.753   5.096   0.186  0.3453  0.1192  0.2020
31621W        W38071  13.885   6.144   7.483  0.0696 -0.1607  0.2915
31622W        W38072  16.337   3.063  16.004  0.3146 -0.1050  0.0077
31623W        W38073  16.526   5.574  28.680  0.2447 -0.4215  0.1511
31624W        W38074  13.684   3.736   2.872 -0.0739  0.1132 -0.0453
31625W        W38075  15.340   5.031   2.027 -0.0599  0.2811 -0.1772
31626W        W38076   1.969   6.940  31.675  0.1033 -0.2054 -0.2919
31627W        W38077   0.027   5.505   9.779  0.2452  0.0138  0.0940
31628W        W38078  18.015   5.686  31.861 -0.1012  0.1623  0.1085
31629W        W38079   3.858   5.873   9.240  0.1903 -0.3649 -0.0182
31630W        W38080   9.769   3.677  12.792 -0.1914 -0.1015 -0.0706
31631W        W38081  23.130   3.897  24.855 -0.0578  0.2167  0.0383
31632W        W38082   4.796   4.015  24.560  0.1465  0.3839  0.0207
31633W        W38083  17.114   7.631  29.112  0.0869  0.2006  0.1622
31634W        W38084  17.018   6.612  32.271 -0.2647 -0.3012 -0.0941
31635W        W38085  21.828   1.564  29.381 -0.2057 -0.0825 -0.0796
31636W        W38086   9.209   7.544   2.275  0.0448  0.1099  0.1438
31637W        W38087   6.740   4.178  30.630  0.6047 -0.0296  0.1761
31638W        W38088   9.382   7.161   5.648  0.0467  0.0152  0.0593
31639W        W38089   9.544   4.229  24.703 -0.1691 -0.1268 -0.3076
31640W        W38090   9.018   1.391  12.548 -0.0411  0.0733 -0.0414
31641W        W38091  12.301   3.355  18.971 -0.0088  0.1153  0.0832
31642W        W38092   6.258   2.526  28.273 -0.2237  0.2106 -0.1567
31643W        W38093  16.268   5.022  31.491  0.1496  0.0272 -0.0185
31644W        W38094  12.039   7.694  30.006 -0.2035  0.0437  0.2245
31645W        W38095   5.305   1.063  30.311  0.0735 -0.3190 -0.0766
31646W        W38096  21.018   2.161  11.287  0.0453  0.1084  0.0227
31647W        W38097  13.049   5.201  29.566 -0.1223  0.0128 -0.2691
31648W        W38098  16.658   3.880   7.368  0.0621 -0.2497 -0.1001
31649W        W38099   3.170   1.287  25.687 -0.0567 -0.1208 -0.2201
31650W        W38100   8.311   7.470  27.090 -0.1641 -0.1200  0.0104
31651W        W38101  16.123   7.226   2.532  0.0877 -0.0845 -0.0916
31652W        W38102  22.234   5.919  24.428 -0.0400 -0.1966  0.0800
31653W        W38103  13.047   3.799   8.134  0.1917  0.1856 -0.4803
31654W        W38104  13.646   5.400  25.215  0.4944 -0.1489  0.0749
31655W        W38105  19.826   1.386  18.418  0.0907 -0.3965 -0.0998
31656W        W38106   0.935   3.130   0.614  0.0714  0.3156 -0.2977
31657W        W38107  13.308   7.413  31.084 -0.1290  0.0929 -0.1192
31658W        W38108  18.131   3.844   5.701 -0.0796  0.1507 -0.0412
31659W        W38109   7.837   5.609   8.583  0.0878 -0.0586  0.0070
31660W        W38110   1.792   3.403  27.905  0.2133 -0.0739 -0.2731
31661W        W38111   8.713   1.910   0.635  0.0097 -0.4112 -0.1092
31662W        W38112  20.373   6.247  22.315 -0.4220 -0.0913  0.3049
31663W        W38113  23.473   6.100   2.339 -0.0209 -0.1139  0.0818
31664W        W38114  14.464   1.702  28.429  0.2170  0.0699  0.1809
31665W        W38115   5.822   2.274  30.087  0.0453 -0.2525  0.1696
31666W        W38116  18.031   6.253  29.502  0.3153  0.0651 -0.0349
31667W        W38117   4.306   3.516  18.543 -0.3294  0.0648 -0.1106
31668W        W38118  17.731   6.184  22.421  0.4268 -0.0417 -0.0042
31669W        W38119  21.077   6.325  32.283  0.1757 -0.1328 -0.0563
31670W        W38120  22.527   2.247  19.799 -0.1293  0.2599  0.0510
31671W        W38121  22.579   1.538  22.389  0.2801 -0.1947  0.1673
31672W        W38122   3.813   4.570  29.612 -0.3501  0.1972  0.0855
31673W        W38123   0.192   0.144  12.058 -0.0859  0.0365  0.0424
31674W        W38124   7.953   7.657  22.318 -0.0935  0.0881 -0.1226
31675W        W38125  23.317   4.640  31.037 -0.0403  0.0603  0.0084
31676W        W38126  10.200   5.050   5.603 -0.1678 -0.1686 -0.3666
31677W        W38127   0.053   3.076  32.416 -0.0773  0.0466 -0.0175
31678W        W38128  12.080   3.024   6.246 -0.2316  0.0181  0.0421
31679W        W38129  13.249   1.492  22.524  0.0197  0.1634  0.1020
31680W        W38130   1.046   2.784   6.172  0.0334 -0.3587 -0.1761
31681W        W38131   2.215   6.410  29.520  0.0037  0.0043 -0.1824
31682W        W38132   6.314   3.533  28.119  0.1759  0.0691  0.3731
31683W        W38133  15.619   5.320  18.668 -0.0902 -0.0932  0.4449
31684W        W38134   0.180   5.681  31.785  0.2700  0.1547 -0.4114
31685W        W38135  13.856   6.307  20.341  0.1349  0.1771 -0.2043
31686W        W38136  19.956   0.328   0.725 -0.0356  0.1499 -0.2832
31687W        W38137   9.446   4.980  13.118  0.1428 -0.0213 -0.0680
31688W        W38138  16.233   5.977  22.980 -0.1879  0.0626  0.2465
31689W        W38139  23.884   1.673   6.291  0.0088  0.0492 -0.0373
31690W        W38140  22.169   7.151   9.809 -0.1001  0.1440  0.0579
31691W        W38141  14.126   4.953   8.977  0.0808 -0.0000  0.2077
31692W        W38142  18.288   0.708  25.937  0.2347 -0.0157 -0.3733
31693W        W38143  11.075   6.918  29.599  0.2292 -0.2226 -0.1867
31694W        W38144  20.349   3.120  27.959 -0.0761 -0.2919 -0.0706
31695W        W38145  19.395   0.852   7.352  0.2011 -0.0466  0.3046
31696W        W38146   1.486   0.671  13.796  0.1921  0.1311  0.1342
31697W        W38147   6.516   5.032  26.353  0.2340 -0.3083 -0.0019
31698W        W38148  19.011   2.656  28.964  0.2077 -0.4884  0.0774
31699W        W38149  11.112   2.098  28.716 -0.1266 -0.1210 -0.2058
31700W        W38150   6.112   7.390   3.084  0.0641 -0.2474 -0.0700
31701W        W38151  14.901   2.640  19.708 -0.0111  0.1835  0.2413
31702W        W38152  14.871   0.282  20.569 -0.0220 -0.1810 -0.2919
31703W        W38153  22.959   4.663  10.507 -0.2769 -0.3312  0.0747
31704W        W38154  21.681   4.592   1.458 -0.2238  0.1936 -0.1484
31705W        W38155  11.967   6.459  24.806  0.3210  0.1709 -0.1990
31706W        W38156  15.764   5.912   2.215  0.1154  0.2333 -0.0881
31707W        W38157  14.191   4.361   3.738  0.0674 -0.0170  0.1889
31708W        W38158  16.803   4.924   3.173  0.0312 -0.2141  0.2973
31709W        W38159   2.071   4.326  22.302 -0.2944  0.2657  0.0594
31710W        W38160  10.914   2.328  32.820 -0.0184 -0.0006  0.2213
31711W        W38161  10.161   1.586   3.236 -0.2100 -0.1545  0.1962
31712W        W38162   5.654   1.437  30.050  0.0728  0.2518  0.0301
31713W        W38163   6.526   4.625  28.275  0.1789  0.1379 -0.0382
31714W        W38164   1.869   4.307  26.907 -0.0163  0.0796 -0.2454
31715W        W38165   2.806   3.676  18.189 -0.3276  0.0145 -0.0687
31716W        W38166  17.643   6.031   4.366 -0.1093  0.0254  0.0841
31717W        W38167  17.540   1.477   4.935 -0.1866  0.0998 -0.1127
31718W        W38168  17.021   1.681  26.854  0.2869  0.0444 -0.1324
31719W        W38169  13.990   0.773  32.138  0.0616 -0.0286  0.0732
31720W        W38170   4.132   5.155  27.740 -0.0829  0.0097 -0.0633
31721W        W38171  19.686   4.038  17.236 -0.3291 -0.2202  0.0380
31722W        W38172  14.507   5.720  22.611 -0.1109  0.1656 -0.0265
31723W        W38173   7.662   0.261  26.216 -0.0136 -0.3396 -0.1652
31724W        W38174   7.642   0.505   3.178 -0.2203  0.2960  0.0047
31725W        W38175  11.991   3.842   0.006  0.1218  0.1525  0.1350
31726W        W38176  17.678   4.075   9.565 -0.0809 -0.0924 -0.1214
31727W        W38177  20.445   7.031   9.395  0.1641 -0.2351 -0.2685
31728W        W38178  14.446   1.398  17.223  0.1518 -0.1146 -0.1921
31729W        W38179  11.411   6.684  19.824 -0.1410  0.1147  0.2247
31730W        W38180  22.102   1.858  29.697 -0.4010  0.1672  0.4068
31731W        W38181  10.636   5.485  30.114  0.1910  0.0286 -0.4640
31732W        W38182  11.888   0.427   7.508 -0.0554  0.0004 -0.3158
31733W        W38183  13.277   4.717   0.607  0.0503  0.0810 -0.1668
31734W        W38184   1.039   7.706   6.452 -0.1253 -0.0678  0.1203
31735W        W38185  24.629   2.272  28.054 -0.4949 -0.1260 -0.0311
31736W        W38186   8.429   4.543  23.732  0.0411 -0.2492  0.0990
31737W        W38187  18.590   3.278   1.062  0.1714  0.1601 -0.0184
31738W        W38188   9.367   0.386   6.976 -0.3439  0.2459  0.3932
31739W        W38189  22.087   3.354   8.956 -0.0471 -0.1903 -0.0296
31740W        W38190  11.888   6.734  11.927  0.0601 -0.0432 -0.1507
31741W        W38191  17.525   0.275  28.353 -0.0912 -0.0638 -0.0930
31742W        W38192   2.505   3.778  23.127 -0.0179 -0.0238  0.1653
31743W        W38193  15.875   2.164  29.248  0.3466 -0.0217 -0.1085
31744W        W38194   4.654   5.680   0.525  0.1934  0.0269 -0.1631
31745W        W38195   6.312   6.616   9.109 -0.0096  0.2249  0.3301
31746W        W38196  15.470   6.305  22.544  0.2881 -0.3392  0.2070
31747W        W38197   2.534   1.923  18.480 -0.2354 -0.1455  0.1590
31748W        W38198   2.059   1.069  10.946 -0.1246  0.0498  0.0408
31749W        W38199   4.082   0.143   1.800 -0.1589 -0.2242 -0.1297
31750W        W38200  24.158   6.218  22.442 -0.1747  0.1778 -0.0907
31751W        W38201   6.670   0.696  32.505  0.1669 -0.1960 -0.4279
31752W        W38202  24.659   4.903  13.727 -0.1036  0.1684 -0.0962
31753W        W38203  21.931   5.809  31.381 -0.0850 -0.0428 -0.1071
31754W        W38204   7.670   5.426  10.265  0.0321  0.2520 -0.1353
31755W        W38205   0.122   4.944  22.882  0.0785  0.1443 -0.1883
31756W        W38206  17.711   5.302  32.417 -0.1232 -0.1152 -0.3055
31757W        W38207  14.440   5.816  18.723 -0.1096  0.3885  0.1358
31758W        W38208   5.935   1.085   4.306 -0.3196  0.1581  0.3483
31759W        W38209  12.705   2.693  22.997 -0.0881 -0.1421  0.1381
31760W        W38210  20.228   2.711  25.795 -0.2217 -0.0318 -0.0771
31761W        W38211  20.883   5.442  32.456 -0.3469  0.1432  0.0822
31762W        W38212  18.358   3.949  17.100  0.1759 -0.0390  0.0183
31763W        W38213  21.402   5.391  31.373  0.0529  0.0791  0.2146
31764W        W38214   1.048   7.645  13.942  0.0723  0.1974  0.1835
31765W        W38215  15.761   6.097  20.263 -0.2151  0.3698  0.1183
31766W        W38216  10.097   1.228   6.139  0.1635  0.0459 -0.0810
31767W        W38217  24.420   4.724  29.654  0.0023  0.0542  0.0515
31768W        W38218   0.519   4.189   9.241 -0.1312  0.0485  0.2442
31769W        W38219  11.411   7.494  25.488 -0.1136  0.0397  0.0044
31770W        W38220   7.647   6.482  25.643  0.0851  0.0081  0.3347
31771W        W38221   7.133   3.515   7.455  0.0143 -0.0660 -0.0907
31772W        W38222  11.588   2.288   7.615  0.0220 -0.1134 -0.1951
31773W        W38223   2.810   7.758  23.590  0.5742  0.3013 -0.3033
31774W        W38224  16.659   7.667  20.897 -0.0024  0.1194 -0.1501
31775W        W38225  17.686   2.939  17.052 -0.0542 -0.1811  0.2810
31776W        W38226  15.256   6.681  26.562  0.1054 -0.2583 -0.0045
31777W        W38227  12.386   2.965  24.117  0.1295 -0.0971 -0.0213
31778W        W38228   4.157   1.432  26.748  0.0680  0.0518 -0.0811
31779W        W38229  21.833   6.246  12.411 -0.1798  0.4812  0.2088
31780W        W38230   1.436   6.770  24.956  0.0478  0.3359 -0.0947
31781W        W38231  22.406   3.202  11.983  0.1905 -0.0591 -0.1242
31782W        W38232   9.835   5.938   7.253  0.1591  0.0821  0.1930
31783W        W38233   3.405   5.604  25.134  0.1477 -0.1033  0.0254
31784W        W38234   3.048   0.108   9.391  0.0720 -0.1636 -0.0865
31785W        W38235  12.183   1.080  29.601  0.0898  0.2358 -0.0389
31786W        W38236  24.711   5.705  21.220  0.0412  0.0075 -0.2219
31787W        W38237   0.231   2.761  31.042  0.0195 -0.1155 -0.2423
31788W        W38238   5.264   6.776  10.479 -0.0488  0.1040  0.1118
31789W        W38239  15.021   1.730  22.218 -0.0335  0.0114  0.2139
31790W        W38240  24.471   2.957  14.774  0.0364 -0.1356 -0.2081
31791W        W38241  21.885   0.666   7.364 -0.0751 -0.1007  0.0713
31792W        W38242  21.382   5.296  29.156  0.2771  0.0829  0.0874
31793W        W38243   1.656   6.828   9.276  0.1074 -0.2596 -0.2724
31794W        W38244   0.837   5.314  31.798  0.5351  0.1806 -0.0275
31795W        W38245   7.251   7.494  15.635 -0.3903  0.1740  0.1627
31796W        W38246   8.920   2.043  13.051  0.5298 -0.0379 -0.2518
31797W        W38247  18.876   2.809   6.613 -0.1595 -0.3167 -0.1135
31798W        W38248  12.677   5.705   0.050  0.1738  0.1382  0.3287
31799W        W38249  21.029   6.769   3.187 -0.1346  0.0832 -0.0471
31800W        W38250  16.311   3.744  32.780 -0.0267  0.1086  0.1611
31801W        W38251   6.163   2.466  28.797 -0.0459  0.2065 -0.2123
31802W        W38252  12.030   1.456   4.459 -0.1152  0.0892 -0.1715
31803W        W38253  16.732   5.557   4.164  0.0562 -0.2198  0.0906
31804W        W38254  15.119   6.056   7.769 -0.1249 -0.0927 -0.0788
31805W        W38255  24.467   4.398  24.651  0.2789  0.1864  0.0783
31806W        W38256   2.990   1.328  23.796 -0.3548  0.0647 -0.0283
31807W        W38257   1.369   7.157   4.910  0.1980  0.2377  0.0149
31808W        W38258  12.170   6.419  26.325 -0.1377 -0.2505  0.1030
31809W        W38259  23.506   0.508  25.067 -0.1063  0.0604 -0.1193
31810W        W38260  19.325   7.463   6.432 -0.2833  0.0505  0.1745
31811W        W38261   6.085   0.089  31.038  0.2356  0.1938  0.1948
31812W        W38262  22.981   6.911  10.930  0.0667 -0.2755  0.0181
31813W        W38263  18.306   7.488  27.911 -0.3087  0.2505 -0.0471
31814W        W38264   5.105   6.041  29.152 -0.1528  0.1485  0.1196
31815W        W38265   0.525   0.478  12.718  0.1457  0.1439  0.0751
31816W        W38266  10.872   3.225  30.256  0.0354  0.1326  0.0518
31817W        W38267   0.262   5.080  28.460  0.0937  0.1192 -0.0694
31818W        W38268   0.739   1.481   3.693 -0.3508  0.1362  0.0796
31819W        W38269   4.777   1.408   8.175  0.1453 -0.0180 -0.0219
31820W        W38270  24.543   3.104  29.294  0.2496 -0.1453 -0.3915
31821W        W38271   0.547   2.128  22.287  0.0473 -0.1934  0.2048
31822W        W38272   9.234   4.410  12.390  0.1547  0.0185  0.0020
31823W        W38273  21.833   6.614   3.920 -0.0328  0.0235  0.2026
31824W        W38274   1.544   3.950  32.343 -0.0911 -0.2356  0.0123
31825W        W38275  24.904   5.510   5.877  0.1786  0.1111  0.3433
31826W        W38276  11.428   1.604  28.277  0.1691 -0.0763 -0.0206
31827W        W38277   8.953   0.995  24.437  0.2574  0.2141 -0.1098
31828W        W38278   3.777   7.100   4.950  0.1441 -0.0415  0.1517
31829W        W38279  23.999   1.985  29.396  0.1144 -0.0388  0.0581
31830W        W38280   4.471   1.036   8.219  0.0121  0.1325 -0.1310
31831W        W38281  10.474   4.378   6.173  0.0458 -0.0497  0.0505
31832W        W38282   8.400   3.725  29.997  0.4305  0.0372 -0.0678
31833W        W38283   9.236   0.782   3.147 -0.1969  0.2175  0.0275
31834W        W38284   7.515   7.563   8.326  0.0608  0.0918  0.0097
31835W        W38285  13.558   5.984  27.899 -0.0326  0.1853  0.1412
31836W        W38286  11.064   0.874  28.105 -0.2502 -0.3656 -0.1222
31837W        W38287   8.021   6.149   1.709 -0.0241  0.2556  0.1584
31838W        W38288  10.189   4.861  31.432  0.1422  0.1818  0.2525
31839W        W38289  19.815   1.308  31.245 -0.1923  0.2660 -0.0699
31840W        W38290  15.270   7.074  23.003 -0.2112  0.2352  0.1824
31841W        W38291  21.229   7.300  24.508 -0.0918 -0.0917  0.0371
31842W        W38292  21.235   1.394   6.555  0.0496 -0.2557 -0.0126
31843W        W38293  15.134   3.583  22.914  0.2721 -0.1086  0.0465
31844W        W38294   0.661   2.191  24.630 -0.0586 -0.0731  0.0213
31845W        W38295  10.942   4.413  32.553  0.2475  0.1401  0.1746
31846W        W38296   8.617   0.727  14.216 -0.1083 -0.1541  0.0048
31847W        W38297  18.964   0.162   2.800  0.1302  0.1018  0.0577
31848W        W38298  13.869   7.516   2.290 -0.1385  0.2289  0.0008
31849W        W38299  17.736   5.907   8.328 -0.1771 -0.2278 -0.0433
31850W        W38300   1.871   4.375  10.505 -0.0360  0.2031  0.1079
31851W        W38301  16.700   4.850   7.681  0.2809 -0.1263  0.2226
31852W        W38302   1.586   5.187   9.540  0.2294 -0.1821 -0.1736
31853W        W38303   4.333   5.762   5.714  0.2050  0.2759 -0.4210
31854W        W38304  11.627   1.257   5.981 -0.0113 -0.0950 -0.2790
31855W        W38305   9.566   5.883   5.272 -0.0782  0.1709  0.0012
31856W        W38306  11.926   1.166  11.162  0.2062 -0.2030  0.1238
31857W        W38307  21.138   3.255   0.251  0.2141  0.0607 -0.3712
31858W        W38308   7.870   3.506  27.981 -0.0907 -0.2805  0.0732
31859W        W38309   8.105   5.549  32.215 -0.1659  0.0683 -0.3848
31860W        W38310  13.666   5.532   4.046  0.0612 -0.1746 -0.0357
31861W        W38311  23.136   5.298  26.236 -0.0626  0.0044 -0.0107
31862W        W38312   2.186   0.266  12.776  0.2628 -0.0039 -0.3096
31863W        W38313  18.678   0.712  24.746 -0.1963 -0.2463 -0.0136
31864W        W38314   1.101   0.014  14.471  0.1085 -0.0598 -0.0297
31865W        W38315   4.745   5.569   8.037  0.0219 -0.2734 -0.1356
31866W        W38316  16.444   4.387  10.267  0.1189 -0.0333  0.0267
31867W        W38317  15.722   3.973  29.621  0.2818 -0.0771  0.0036
31868W        W38318  11.149   1.669  25.982  0.0624 -0.1096 -0.0383
31869W        W38319   4.865   2.626   4.309  0.2582  0.3330 -0.1122
31870W        W38320  19.632   4.662  19.904 -0.1176 -0.0399 -0.1310
31871W        W38321  10.730   4.888  21.518  0.1378  0.0132  0.3096
31872W        W38322  14.232   3.130  30.454 -0.0818  0.2223 -0.1678
31873W        W38323  24.508   4.654  26.454  0.0938 -0.0260  0.0583
31874W        W38324  24.285   4.027  25.615 -0.2210  0.0532 -0.1486
31875W        W38325   6.198   1.372   0.771 -0.0595  0.0869 -0.0625
31876W        W38326  20.275   1.882  26.701  0.3466  0.0140  0.1541
31877W        W38327  13.238   0.324   1.672  0.1813  0.0246 -0.4702
31878W        W38328  21.099   7.003  11.283 -0.1003  0.2569  0.2087
31879W        W38329  19.300   3.765   6.020  0.1874  0.0534 -0.2803
31880W        W38330   0.481   4.654  21.871  0.0571 -0.1448 -0.0888
31881W        W38331  18.979   4.721  26.416 -0.2666 -0.2259  0.1796
31882W        W38332   0.189   3.380  26.381 -0.1790  0.1988  0.0367
31883W        W38333  19.348   6.521  18.062 -0.0301 -0.0385  0.0087
31884W        W38334   4.138   5.023   2.250  0.0841 -0.1345 -0.3511
31885W        W38335  19.928   2.699   0.194 -0.1235 -0.2908 -0.1008
31886W        W38336   0.062   3.496   8.988 -0.0795  0.0412  0.1924
31887W        W38337  19.528   3.527  29.349 -0.0351 -0.0292  0.1138
31888W        W38338   9.853   1.639   6.156 -0.0859 -0.3697 -0.1422
31889W        W38339   5.796   2.326  18.619 -0.1277  0.0121  0.2900
31890W        W38340   9.512   3.499  31.127  0.0360 -0.1250  0.3194
31891W        W38341  16.557   2.666  15.027  0.1495  0.0623 -0.0273
31892W        W38342   7.213   3.213  15.327 -0.1106  0.0696  0.1347
31893W        W38343  20.886   5.404  25.864 -0.5529 -0.0410 -0.0971
31894W        W38344   0.133   1.468  22.177  0.0484  0.0072  0.1086
31895W        W38345  17.676   4.372   5.193 -0.1763 -0.3060  0.1426
31896W        W38346   1.017   3.249   8.553 -0.0214  0.0792 -0.1560
31897W        W38347  22.357   5.946   0.307 -0.1378  0.4007 -0.0333
31898W        W38348  23.107   0.253  31.576  0.1943 -0.3674 -0.4887
31899W        W38349  23.312   7.053  21.896  0.0312  0.2958 -0.3591
31900W        W38350   5.960   2.725  30.354 -0.1107 -0.0697  0.0320
31901W        W38351  13.510   3.539   7.937 -0.3441  0.0434  0.0345
31902W        W38352  14.225   6.740  19.293  0.2510 -0.2175 -0.1352
31903W        W38353  11.964   1.054   6.347 -0.0252  0.0126 -0.0954
31904W        W38354  19.791   6.851  19.920  0.0020  0.1378 -0.2712
31905W        W38355  10.091   0.832   0.301  0.0218  0.0342 -0.1399
31906W        W38356  10.879   0.493   2.824 -0.1850 -0.1621  0.0077
31907W        W38357   0.205   7.473   2.181  0.2234  0.0970 -0.2086
31908W        W38358  11.669   3.455   4.722 -0.1787  0.1994  0.2048
31909W        W38359  15.300   4.633   6.128 -0.0832 -0.0377  0.1422
31910W        W38360  20.064   2.702  24.429  0.0447 -0.0026  0.4867
31911W        W38361  12.552   0.009  31.149 -0.0437  0.2011  0.0336
31912W        W38362   2.240   2.201   4.612  0.4416  0.2108  0.0826
31913W        W38363  14.318   2.425   2.539  0.0748  0.1394  0.0809
31914W        W38364  14.590   6.679   1.999  0.0465 -0.0901  0.1687
31915W        W38365   3.330   4.655  30.455  0.0287 -0.1297 -0.0354
31916W        W38366   0.166   6.775  14.131  0.2332  0.0216 -0.2214
31917W        W38367   7.462   2.705  11.923 -0.2514  0.0649  0.2417
31918W        W38368   8.133   3.095  13.430  0.0751  0.0507 -0.1754
31919W        W38369   4.475   5.386  14.589 -0.1788 -0.2106 -0.2852
31920W        W38370   7.795   6.698   5.468 -0.1778  0.1389  0.1642
31921W        W38371   7.386   0.953  14.954 -0.0529 -0.0008  0.1621
31922W        W38372  20.552   0.936   2.517  0.0550 -0.0759 -0.2333
31923W        W38373   7.362   2.888   5.333 -0.0786  0.0394  0.0010
31924W        W38374  22.624   7.788   7.505  0.1731 -0.0177 -0.1633
31925W        W38375  18.745   4.369   1.502 -0.0044  0.0025 -0.4257
31926W        W38376  12.027   1.979   5.824  0.2707  0.1457  0.1959
31927W        W38377   5.690   4.106   0.718  0.0803 -0.0557 -0.0725
31928W        W38378  20.382   5.091  25.181 -0.1237 -0.0099 -0.1430
31929W        W38379   1.509   1.370  12.577  0.3027 -0.0954  0.0704
31930W        W38380  24.745   1.409  23.774 -0.2126 -0.3773 -0.2200
31931W        W38381  19.893   6.916  30.650 -0.1747 -0.0401  0.0473
31932W        W38382  24.229   4.540   3.613 -0.0429 -0.1254  0.2053
31933W        W38383   5.171   7.366   5.927  0.0675  0.0596  0.3612
31934W        W38384  19.510   2.913   9.193  0.2876 -0.0285  0.2562
31935W        W38385   0.911   3.527  17.275  0.1116 -0.2094 -0.0893
31936W        W38386   9.016   3.862  26.110 -0.0538  0.1250  0.0373
31937W        W38387   1.016   6.645   6.828 -0.2301  0.1161 -0.3141
31938W        W38388  17.776   2.318   5.443  0.1487 -0.2161 -0.2870
31939W        W38389   0.625   0.696  26.294  0.2049 -0.0044  0.0570
31940W        W38390  17.000   1.960  10.295 -0.0394 -0.0235 -0.1071
31941W        W38391   8.643   5.827   4.087 -0.0767  0.3107  0.2852
31942W        W38392  21.019   2.230  30.631 -0.2237  0.1714  0.0539
31943W        W38393   1.903   4.008  27.739  0.2421  0.0854  0.0557
31944W        W38394  12.607   1.545  25.812  0.2389 -0.0026  0.3369
31945W        W38395   3.787   1.967  24.409  0.1147 -0.1719  0.0004
31946W        W38396   6.280   6.486  23.274 -0.3174  0.1407  0.3203
31947W        W38397   2.491   5.985  13.826 -0.0680  0.1115  0.0516
31948W        W38398  15.875   1.000   8.289  0.1243 -0.0929  0.1195
31949W        W38399   1.302   4.879   3.436 -0.0925 -0.3336 -0.2816
31950W        W38400  10.090   4.917  25.382 -0.1336 -0.1333 -0.2359
31951W        W38401  12.733   6.265  25.249  0.0124 -0.0012  0.0295
31952W        W38402   9.666   4.749  21.434  0.3206  0.1698  0.0622
31953W        W38403   7.857   3.121  11.224 -0.1325 -0.0450 -0.3155
31954W        W38404  13.457   0.976   8.517 -0.0111 -0.2168  0.0437
31955W        W38405  15.185   2.730  14.982 -0.2533  0.0391 -0.1105
31956W        W38406  24.058   6.574   3.657  0.1591 -0.3212 -0.0660
31957W        W38407  14.748   7.477  32.208  0.3117  0.1642 -0.1239
31958W        W38408   6.801   1.711  16.239  0.1142  0.0302  0.1381
31959W        W38409  22.565   1.361  20.316  0.1120  0.2893  0.3752
31960W        W38410  16.447   4.450  24.447  0.2771 -0.0029  0.0168
31961W        W38411   0.791   4.989  31.415  0.2936 -0.2846 -0.0497
31962W        W38412   4.693   4.635  10.310 -0.1179 -0.1175 -0.2562
31963W        W38413  22.259   2.916  20.005 -0.1790  0.2138 -0.2364
31964W        W38414  10.879   3.874  23.717  0.0818 -0.2830 -0.0087
31965W        W38415  20.566   3.359   3.339  0.0823  0.0496 -0.0589
31966W        W38416  14.022   1.922   4.574  0.1180 -0.0918 -0.0950
31967W        W38417  21.037   4.588  23.595  0.0637 -0.0579  0.0649
31968W        W38418  22.217   3.851  29.604 -0.3823 -0.0485  0.0241
31969W        W38419  24.828   2.773  23.912  0.3202 -0.0689  0.2744
31970W        W38420  19.496   4.017  24.004 -0.0820 -0.0585 -0.3907
31971W        W38421   6.842   1.793  10.207 -0.0636 -0.4270  0.5013
31972W        W38422   1.412   7.135   3.822  0.0621  0.2477  0.0227
31973W        W38423  21.716   0.335   5.045 -0.1468 -0.0563  0.1372
31974W        W38424  23.102   0.636   3.644  0.0363  0.1366 -0.1035
31975W        W38425   7.824   3.803  13.130 -0.2814 -0.2553 -0.3277
31976W        W38426  19.117   3.939   0.207 -0.1459 -0.1262  0.0423
31977W        W38427   0.233   3.691  10.118 -0.1131  0.2821  0.0203
31978W        W38428   9.428   4.060  13.636  0.2465 -0.0134 -0.1836
31979W        W38429   1.697   0.868  26.991 -0.3712  0.0751  0.1850
31980W        W38430  18.509   2.356  17.636  0.2064  0.1294 -0.1688
31981W        W38431  19.132   2.361   9.539  0.1723 -0.1854  0.0445
31982W        W38432   1.594   0.327  14.961 -0.0649  0.1450  0.3151
31983W        W38433  22.995   4.420  23.645  0.0764 -0.0520  0.0925
31984W        W38434  19.847   4.607  19.423  0.2560  0.1596  0.2812
31985W        W38435  12.912   2.470   3.661  0.1630  0.2319  0.0954
31986W        W38436  20.333   2.715  21.956  0.0199 -0.1624 -0.2054
31987W        W38437  21.441   5.276   0.197 -0.1519  0.0121 -0.0886
31988W        W38438  22.920   2.427  22.364  0.2385  0.0908  0.1615
31989W        W38439  10.932   1.612  11.244 -0.3145  0.3147  0.1970
31990W        W38440  19.328   5.730  20.508  0.0191 -0.0329 -0.1574
31991W        W38441  18.868   0.890  27.851  0.3173 -0.1412  0.0266
31992W        W38442   0.667   3.406   0.996 -0.3490 -0.3982 -0.0980
31993W        W38443  20.079   5.191  10.287 -0.1164  0.0664  0.3109
31994W        W38444   0.490   7.702  28.395  0.0951  0.1052  0.0185
31995W        W38445  24.735   6.202   1.097 -0.1031  0.0309  0.2328
31996W        W38446  19.666   4.937   8.908  0.1174  0.1668  0.3486
31997W        W38447  10.342   4.990  20.791 -0.1294  0.1828 -0.2941
31998W        W38448   6.446   2.716   5.107  0.2741 -0.1779  0.1799
31999W        W38449  13.505   1.676   7.904  0.0852  0.0843 -0.0544
32000W        W38450  16.138   3.533  32.329 -0.2481  0.1765 -0.0494
32001W        W38451   5.605   6.747  15.663  0.0483 -0.2382  0.2256
32002W        W38452  16.738   5.120   3.670 -0.3047 -0.1487 -0.0444
32003W        W38453  13.538   5.626   4.522 -0.0580 -0.0239  0.2889
32004W        W38454   2.389   1.289  15.297  0.1546  0.0460 -0.0280
32005W        W38455   7.106   3.508  27.609 -0.0320  0.0032  0.0066
32006W        W38456  15.479   6.796  15.494 -0.1089 -0.0880 -0.0906
32007W        W38457  18.841   2.922  30.389 -0.2527 -0.2290 -0.0213
32008W        W38458  24.247   4.704   5.857 -0.0458  0.0083 -0.2642
32009W        W38459   3.721   2.224  16.367 -0.2019 -0.0850  0.1587
32010W        W38460   5.349   6.739  16.066 -0.0532 -0.0050  0.2191
32011W        W38461   9.370   4.539  32.603  0.1600  0.2732  0.2176
32012W        W38462   8.060   7.755   8.353  0.3010  0.2205  0.2704
32013W        W38463   2.889   2.203  15.197  0.3292  0.1415 -0.0523
32014W        W38464  14.001   3.763   1.249  0.3142 -0.1846 -0.2110
32015W        W38465   5.857   1.003  13.928  0.2389 -0.2082  0.1649
32016W        W38466   4.186   3.282  13.597 -0.4123  0.1951 -0.3301
32017W        W38467  22.469   1.116   3.282  0.0505  0.1177 -0.1574
32018W        W38468   5.589   4.796   1.451 -0.0315  0.0463 -0.2080
32019W        W38469  21.801   3.974   0.257  0.0239 -0.1310  0.0015
32020W        W38470  10.592   7.629   0.284 -0.0498  0.0752  0.0410
32021W        W38471  15.606   4.609  30.901 -0.0467  0.0526  0.0670
32022W        W38472  23.150   6.098  11.281  0.2217 -0.0019 -0.1094
32023W        W38473   5.303   3.357  11.180  0.3741 -0.1794 -0.1953
32024W        W38474   9.664   5.384   9.612 -0.0516  0.3458  0.3414
32025W        W38475  10.550   7.174   7.674 -0.2747 -0.0258 -0.2103
32026W        W38476   7.303   0.639  31.294 -0.0498 -0.0421 -0.0078
32027W        W38477   8.984   4.259   6.793  0.0413 -0.1121 -0.1530
32028W        W38478   5.613   2.773   3.939 -0.0662  0.0289  0.1024
32029W        W38479   3.373   0.510  28.205  0.2251 -0.0266 -0.3000
32030W        W38480  20.212   0.937  19.696  0.0688  0.0426 -0.2097
32031W        W38481   8.909   6.233  22.300  0.0940 -0.1302 -0.0896
32032W        W38482  24.847   3.607   2.408  0.1245  0.0485 -0.0996
32033W        W38483  23.611   6.109   9.397  0.1824 -0.4897 -0.0127
32034W        W38484   5.758   5.207  10.427 -0.0861  0.2746  0.0341
32035W        W38485   5.644   4.696   6.998  0.1885  0.2478 -0.1075
32036W        W38486   0.734   4.058   5.434  0.1431 -0.0544 -0.1164
32037W        W38487  13.924   6.549  25.807  0.1563 -0.0475  0.0398
32038W        W38488   2.993   2.944   6.814  0.1807 -0.0049 -0.2724
32039W        W38489   2.860   2.327   3.333  0.0912 -0.0796 -0.1233
32040W        W38490  15.103   3.647  30.481  0.0365 -0.0000  0.0522
32041W        W38491  19.852   6.719  24.693 -0.1472 -0.2219 -0.1009
32042W        W38492   7.657   7.366   9.716  0.2982  0.0302 -0.0565
32043W        W38493   1.457   5.273  31.100  0.0116 -0.1552  0.2494
32044W        W38494  16.246   5.964  30.528  0.0943 -0.1463  0.1547
32045W        W38495   2.439   7.363  30.854  0.1641 -0.0320 -0.2070
32046W        W38496  14.601   2.493  25.707  0.0470 -0.0687  0.0558
32047W        W38497  22.921   7.049  20.574  0.0592  0.0029  0.1664
32048W        W38498  13.505   4.080   4.567 -0.0252 -0.0621 -0.0380
32049W        W38499   2.251   4.550  16.004 -0.2028 -0.3828  0.1433
32050W        W38500   2.217   6.261   5.169  0.2019 -0.2012  0.1003
32051W        W38501  16.132   6.970   7.930 -0.1013 -0.3397  0.0049
32052W        W38502  12.312   1.231  23.443 -0.0708 -0.1458  0.0983
32053W        W38503  16.269   2.965   2.215 -0.1977  0.2559 -0.5770
32054W        W38504   9.285   4.447   4.356 -0.2369  0.1388 -0.0949
32055W        W38505  19.132   7.312   2.217 -0.1297  0.1019  0.1338
32056W        W38506   5.427   2.905  12.700  0.1306  0.1559  0.1294
32057W        W38507   0.747   4.138  16.832  0.1700  0.1618 -0.3486
32058W        W38508  10.893   1.170  27.684  0.0748 -0.0716  0.2072
32059W        W38509   1.226   3.884   7.888 -0.0408 -0.6498  0.3282
32060W        W38510   8.741   3.044   2.424 -0.0942 -0.2142 -0.5739
32061W        W38511  22.196   7.655   4.984  0.2190  0.0417  0.1626
32062W        W38512   4.404   1.051  18.319  0.2176 -0.0117 -0.1357
32063W        W38513  12.550   5.645  20.500  0.0664 -0.1045 -0.0422
32064W        W38514   4.038   7.517  14.774 -0.1099  0.1511  0.0447
32065W        W38515   0.601   4.745   1.992  0.1434 -0.1637 -0.0229
32066W        W38516  19.306   0.070  19.776 -0.0554 -0.0054 -0.4004
32067W        W38517  16.304   0.834   7.680  0.0662 -0.2564  0.0305
32068W        W38518  13.624   2.225  15.643 -0.0047 -0.3200 -0.0348
32069W        W38519   1.585   0.610  15.975  0.0923 -0.0172 -0.1292
32070W        W38520   6.744   2.310  24.965 -0.1690  0.0325  0.1478
32071W        W38521  18.638   4.213  30.008 -0.0737  0.1281  0.0258
32072W        W38522  13.643   4.752  32.734  0.0967  0.0860 -0.0217
32073W        W38523  17.626   1.972   5.910 -0.2170  0.1284  0.2252
32074W        W38524  20.003   0.287  23.015 -0.0065 -0.1466 -0.0875
32075W        W38525  23.766   7.745   7.592 -0.1347  0.0212  0.2233
32076W        W38526   6.440   4.210  28.745  0.4629 -0.1083  0.1573
32077W        W38527  12.987   1.213  18.216 -0.1063  0.1028  0.0068
32078W        W38528  14.726   5.098  16.995 -0.2258 -0.2082 -0.1240
32079W        W38529  21.776   2.533   5.051 -0.2539 -0.0727 -0.1555
32080W        W38530  10.026   4.371   1.275 -0.1118  0.0175  0.0377
32081W        W38531  19.187   4.939  17.825  0.1880 -0.1369 -0.0423
32082W        W38532  15.128   0.077  20.182  0.2298 -0.0358 -0.1306
32083W        W38533  10.277   5.761   2.128  0.2907  0.0633 -0.1087
32084W        W38534  20.943   7.087   4.785  0.2089 -0.2295 -0.3258
32085W        W38535  13.333   4.169  22.371 -0.3980  0.1692 -0.2311
32086W        W38536   5.732   0.220  24.177 -0.2035 -0.0366  0.1037
32087W        W38537  11.213   3.304  27.593 -0.0437 -0.2658  0.2258
32088W        W38538  17.708   7.079  16.621 -0.0900 -0.3337  0.3325
32089W        W38539  22.346   7.206   4.749 -0.1730  0.1162 -0.0084
32090W        W38540  12.540   7.022   9.074  0.0643  0.1251  0.1415
32091W        W38541  18.242   7.620   5.846 -0.0277  0.2205 -0.1097
32092W        W38542  13.230   3.109  21.961  0.3804 -0.3702  0.1490
32093W        W38543   0.778   0.407   9.154 -0.2846 -0.2574  0.2952
32094W        W38544  23.882   0.840  13.034  0.2105  0.2769 -0.0268
32095W        W38545   0.602   2.902  12.523  0.4497  0.0485 -0.1939
32096W        W38546  15.475   5.771  32.184 -0.0275  0.1231  0.3398
32097W        W38547  16.740   2.005   4.594 -0.0189 -0.2336 -0.2933
32098W        W38548  10.549   5.055   6.826 -0.1849  0.1738  0.1872
32099W        W38549  24.809   0.527  32.623  0.2183  0.2404  0.1539
32100W        W38550  23.446   7.360  11.925  0.2133 -0.2704 -0.0891
32101W        W38551  21.928   2.091   5.726 -0.0469  0.1215  0.3355
32102W        W38552   6.715   6.052  25.502  0.0816  0.1835  0.0649
32103W        W38553   9.166   5.569  25.728  0.0279  0.2221 -0.0887
32104W        W38554  21.273   5.907  18.157  0.0114 -0.0206 -0.0386
32105W        W38555   8.083   0.334  28.871  0.2627  0.0797 -0.2095
32106W        W38556  17.315   2.880  19.653 -0.0386  0.1667  0.2101
32107W        W38557   5.934   2.800  23.759 -0.0787  0.0313 -0.1026
32108W        W38558   1.041   7.229  22.059 -0.0807  0.0101  0.1861
32109W        W38559  18.574   5.700   0.791  0.1962 -0.0191  0.1697
32110W        W38560   2.972   1.845  13.526 -0.0947  0.2659 -0.0439
32111W        W38561  17.966   5.833  19.672 -0.1172  0.1700 -0.1076
32112W        W38562   5.337   4.302  12.586  0.2175 -0.3752  0.0044
32113W        W38563  16.602   6.905  22.962 -0.3082 -0.1816  0.0440
32114W        W38564   9.706   2.868   2.902  0.1465 -0.1845  0.2822
32115W        W38565   0.687   6.391   8.581  0.0773  0.0781 -0.1397
32116W        W38566  24.257   1.508  12.080  0.1343 -0.0093  0.0515
32117W        W38567   1.642   3.939   3.747  0.0199 -0.1209 -0.2984
32118W        W38568  18.860   5.180  16.322 -0.0479 -0.4059  0.1241
32119W        W38569   0.142   4.240   9.749  0.0485 -0.1965 -0.0032
32120W        W38570  22.444   1.222  32.785  0.1219  0.0936  0.0365
32121W        W38571   6.341   5.767   5.255 -0.3098 -0.0362  0.2610
32122W        W38572  22.420   0.407  27.809  0.2167  0.0198  0.5508
32123W        W38573   3.610   0.193  32.627 -0.1261  0.3292  0.2460
32124W        W38574   1.660   2.103  12.502  0.2129  0.0045 -0.0189
32125W        W38575   4.391   1.849  12.348  0.0668  0.0554 -0.0147
32126W        W38576   5.903   3.591  15.912 -0.0088 -0.4214 -0.0659
32127W        W38577  13.804   2.849  29.256  0.0277 -0.2841  0.0546
32128W        W38578  15.147   3.284  29.434 -0.1226 -0.1892  0.3346
32129W        W38579  10.834   1.312  20.326 -0.0909  0.1455 -0.2410
32130W        W38580   3.553   2.896   2.831  0.0937 -0.1487  0.1734
32131W        W38581  12.893   1.269  22.033 -0.1103  0.1343 -0.2164
32132W        W38582  17.180   2.208  22.858  0.2881  0.0944  0.2114
32133W        W38583   6.657   6.383  31.378  0.0357  0.1585  0.1869
32134W        W38584  18.640   7.072   4.078 -0.0081  0.0363  0.0226
32135W        W38585   5.785   4.842   3.863 -0.3312  0.1545  0.1801
32136W        W38586   9.487   7.497  25.845  0.0340 -0.0353 -0.1159
32137W        W38587  20.590   6.949  19.279 -0.0625 -0.1339  0.3281
32138W        W38588  23.476   7.725   5.787 -0.2337 -0.1347  0.0665
32139W        W38589  18.114   5.686  26.758  0.1124  0.1830 -0.0851
32140W        W38590  24.857   1.056   0.660 -0.2173 -0.0228  0.1988
32141W        W38591  11.623   7.178  21.475 -0.2187  0.1465 -0.1634
32142W        W38592   1.047   4.546   3.637 -0.2637 -0.0858  0.2148
32143W        W38593  12.429   7.045  29.097 -0.1233 -0.3170  0.1265
32144W        W38594  21.712   7.651  23.670  0.0916  0.1312 -0.1160
32145W        W38595  10.301   1.014  25.223  0.2595 -0.3658 -0.2309
32146W        W38596  14.338   7.291   7.436  0.0589  0.0756 -0.2072
32147W        W38597   0.916   2.968  28.089  0.0478 -0.2743 -0.0398
32148W        W38598   5.796   0.201  14.109  0.0565 -0.0157  0.3564
32149W        W38599  15.752   7.066  17.126 -0.0666 -0.0524  0.1025
32150W        W38600   7.158   1.372  29.414  0.0008  0.1740  0.0990
32151W        W38601   6.903   2.867   4.876 -0.3553  0.1330  0.1133
32152W        W38602   8.387   5.792  22.777 -0.0085 -0.1229  0.2242
32153W        W38603   2.154   5.427  33.028  0.1692 -0.3320 -0.0807
32154W        W38604  16.731   6.052  20.128 -0.1016  0.2929  0.0036
32155W        W38605   6.136   2.536   0.055 -0.1349  0.2294 -0.0777
32156W        W38606  21.878   7.233  11.418 -0.0529 -0.2166 -0.0710
32157W        W38607  14.529   0.779  24.106  0.3391 -0.3002 -0.1217
32158W        W38608  18.429   4.580   6.148  0.0917 -0.3501 -0.0382
32159W        W38609  21.855   4.519  27.801  0.1093 -0.0772 -0.0209
32160W        W38610  22.489   1.886  20.205 -0.0681 -0.2580  0.0688
32161W        W38611  13.144   6.607  25.000  0.0468 -0.0892 -0.1180
32162W        W38612   5.915   0.569   6.532 -0.0232  0.0488  0.2092
32163W        W38613   5.077   1.978  15.189 -0.0843 -0.0988 -0.1101
32164W        W38614  15.181   3.170   8.563  0.1566  0.2044  0.0517
32165W        W38615  22.048   0.877  20.857 -0.1072  0.0829 -0.2083
32166W        W38616   5.584   2.001  29.297 -0.1875  0.1159 -0.0492
32167W        W38617   7.089   5.253   9.927 -0.1894 -0.0420 -0.1212
32168W        W38618   8.707   5.848  14.939  0.0937  0.1874  0.1190
32169W        W38619  19.175   6.704   5.143  0.2927 -0.1391 -0.2974
32170W        W38620  24.880   5.584  32.259  0.0627  0.0896  0.2019
32171W        W38621   3.879   4.231   9.143 -0.2429 -0.0078 -0.0408
32172W        W38622   5.314   5.904  28.658  0.0765 -0.3858 -0.0011
32173W        W38623   5.010   3.316  15.173  0.0907  0.1623 -0.1324
32174W        W38624   0.093   2.499   5.151 -0.0866 -0.0274  0.0258
32175W        W38625   9.919   2.825   9.995 -0.2768 -0.0304 -0.0519
32176W        W38626   1.254   3.503  27.940  0.1199  0.0305  0.2743
32177W        W38627  14.530   5.275  22.350  0.1661 -0.3024  0.0760
32178W        W38628   3.221   4.431   4.957 -0.2344 -0.0835 -0.2195
32179W        W38629   4.951   2.802  18.317  0.3662  0.1992  0.1577
32180W        W38630   1.524   2.294  27.235 -0.0509  0.1709  0.0882
32181W        W38631  12.674   4.185   8.203 -0.0932  0.0589 -0.1563
32182W        W38632  14.228   0.280  15.539  0.0850  0.0016  0.1931
32183W        W38633  16.511   2.885  22.466  0.1273  0.0163 -0.0720
32184W        W38634  13.740   7.374   5.270  0.0858 -0.1437  0.0084
32185W        W38635  18.995   2.947  29.490 -0.0982  0.1253  0.0111
32186W        W38636  12.775   7.111   5.723 -0.1123 -0.1652  0.0220
32187W        W38637  22.041   4.006  26.350 -0.1499 -0.2802  0.1178
32188W        W38638   7.743   3.621  23.868  0.0579 -0.0767  0.1161
32189W        W38639  20.134   1.486  29.731  0.1155  0.0971 -0.3463
32190W        W38640  12.243   7.478  18.893  0.1752 -0.0594  0.3910
32191W        W38641   8.488   1.635   7.832 -0.0507 -0.2107 -0.2005
32192W        W38642   1.938   6.390  28.807  0.3294 -0.0544 -0.1209
32193W        W38643   5.028   1.634  14.191  0.0486  0.2682 -0.0346
32194W        W38644  16.238   7.209  16.109  0.2137  0.1462  0.2093
32195W        W38645  20.833   6.297   8.864 -0.1019  0.0063 -0.2099
32196W        W38646  13.954   0.240  21.949  0.0320  0.2654 -0.0642
32197W        W38647  17.000   0.484  22.724  0.0286  0.1845 -0.0132
32198W        W38648   6.788   3.962  27.243  0.1317  0.2885  0.2315
32199W        W38649  17.759   3.339  16.729  0.0083 -0.1354 -0.1726
32200W        W38650  18.736   1.166  24.650  0.3035  0.0106 -0.2420
32201W        W38651  11.488   6.539  28.288  0.2454 -0.1572 -0.0490
32202W        W38652  19.891   0.268  17.931  0.2420 -0.0010 -0.0117
32203W        W38653  22.756   6.252  30.356 -0.1541  0.3388 -0.0040
32204W        W38654   7.838   1.750  15.400 -0.0164  0.1338 -0.0825
32205W        W38655  23.049   2.245  30.292  0.0110 -0.3207  0.2082
32206W        W38656   1.986   3.934   5.586  0.0828 -0.0020 -0.2728
32207W        W38657   0.196   1.628   8.566 -0.0943 -0.1119  0.0660
32208W        W38658   6.392   7.037   7.294  0.0490  0.3529  0.0306
32209W        W38659   9.804   2.114  10.646 -0.1286 -0.0237 -0.2923
32210W        W38660  24.078   4.959  22.096 -0.1699 -0.1292 -0.1393
32211W        W38661   0.590   5.789  10.395  0.0859  0.0990  0.0406
32212W        W38662  21.490   1.609   6.935  0.3013 -0.0698  0.1179
32213W        W38663   8.322   5.084  12.326 -0.1014 -0.1897 -0.1027
32214W        W38664   2.802   5.492   7.491 -0.3395  0.0676  0.1989
32215W        W38665  18.784   4.188   5.214  0.0418  0.0862  0.1069
32216W        W38666   2.541   6.642  27.677 -0.1824 -0.1268  0.1999
32217W        W38667   0.478   2.477  31.841 -0.3791  0.3048 -0.0674
32218W        W38668  14.810   5.566  17.822  0.1124 -0.0089  0.0519
32219W        W38669   3.754   2.123   1.100 -0.3308 -0.1130 -0.4703
32220W        W38670  15.754   6.712  26.805 -0.1949  0.1671  0.2405
32221W        W38671  24.207   0.492  11.173 -0.0367 -0.0380 -0.0177
32222W        W38672   2.348   4.881  32.937  0.3184 -0.1112  0.1486
32223W        W38673  14.679   1.473  20.381  0.2389  0.1418  0.1652
32224W        W38674   7.729   5.420  28.149  0.1333 -0.0554  0.2279
32225W        W38675  19.123   0.235  31.220 -0.0330 -0.0609  0.0398
32226W        W38676  15.446   2.927   3.254  0.2428 -0.0567  0.0678
32227W        W38677  16.026   3.454  16.727  0.0302 -0.2343  0.0999
32228W        W38678  14.914   3.785  18.437  0.0849  0.1197  0.0057
32229W        W38679   5.497   3.586  10.310  0.0480  0.1539 -0.1348
32230W        W38680  18.886   5.075   0.357 -0.1075  0.0178 -0.0438
32231W        W38681  19.103   4.129  25.680 -0.0389 -0.0041  0.2406
32232W        W38682  12.439   2.275   5.986 -0.0562  0.2559 -0.2385
32233W        W38683   6.527   7.463  24.225  0.1305  0.0499 -0.2686
32234W        W38684  20.426   6.031   4.345 -0.1392  0.3160 -0.2697
32235W        W38685   5.907   5.509  30.972 -0.1726 -0.2909  0.0253
32236W        W38686  24.340   2.600   3.869 -0.0600 -0.0626  0.1693
32237W        W38687   0.771   4.270  15.294 -0.1121  0.3150 -0.2323
32238W        W38688  23.416   6.818  28.139 -0.0924 -0.1373  0.0588
32239W        W38689   4.394   4.951  32.436  0.0703 -0.0119 -0.3039
32240W        W38690   7.070   7.081  27.558 -0.0719 -0.4156  0.2590
32241W        W38691  19.051   5.999   1.427 -0.0909 -0.1675 -0.1194
32242W        W38692  12.906   5.708  19.227 -0.0932 -0.2739  0.1032
32243W        W38693  13.055   5.648   9.571 -0.0035 -0.0440  0.0666
32244W        W38694  22.584   1.146   6.270 -0.0405  0.2954 -0.3728
32245W        W38695  15.903   3.903   6.128  0.2253  0.1348 -0.0522
32246W        W38696  23.378   1.010  13.649 -0.0994  0.0921 -0.2444
32247W        W38697   0.286   3.021  14.995 -0.2657  0.2448 -0.0196
32248W        W38698  13.650   2.064   1.494  0.1590 -0.1224  0.1805
32249W        W38699  24.291   1.388  25.927 -0.3514  0.1221 -0.0487
32250W        W38700  18.059   3.417   1.955 -0.1913  0.1843  0.0464
32251W        W38701  24.218   3.993  28.220 -0.0350  0.2709  0.2178
32252W        W38702  12.865   6.475   2.465  0.0350  0.0850 -0.0037
32253W        W38703  17.874   2.502  20.991 -0.2369  0.1991  0.1636
32254W        W38704   2.209   6.744  11.335  0.0128  0.0945 -0.0469
32255W        W38705  16.102   7.737  31.272  0.1124 -0.1541  0.1902
32256W        W38706   1.005   0.602  16.045  0.2772 -0.2027  0.0567
32257W        W38707  17.421   0.161   6.940 -0.1355  0.1655  0.0162
32258W        W38708   5.505   2.094  31.012  0.0981  0.3029 -0.4215
32259W        W38709   2.414   7.293  32.532 -0.0143  0.0276 -0.0467
32260W        W38710   3.082   3.852  16.900 -0.1068  0.0520 -0.1829
32261W        W38711   7.599   5.990  23.554  0.0402  0.3143  0.0106
32262W        W38712   3.469   7.037   7.382  0.0537 -0.1132 -0.3721
32263W        W38713   4.600   7.196  17.527  0.1755  0.0798  0.2380
32264W        W38714  21.439   3.208  13.039  0.1734  0.2689  0.0488
32265W        W38715  17.195   3.383   6.768  0.2057 -0.0220  0.1171
32266W        W38716  22.785   5.239   0.761 -0.0783  0.1350  0.0284
32267W        W38717   2.853   4.524   2.548 -0.1876 -0.0220 -0.2117
32268W        W38718   3.427   0.358  23.093 -0.0106  0.1112  0.1507
32269W        W38719   6.563   0.291  12.796 -0.2683  0.0400 -0.1378
32270W        W38720   0.183   1.895  12.712  0.3954  0.1852  0.1234
32271W        W38721   5.335   4.111   2.349  0.4607 -0.0266  0.1242
32272W        W38722  19.277   0.401   4.237 -0.2932 -0.2493 -0.2497
32273W        W38723  18.843   1.758   6.254 -0.1802  0.0698  0.1118
32274W        W38724   2.529   7.616  15.896 -0.2001 -0.1299 -0.0982
32275W        W38725   3.354   6.819  25.546 -0.2467 -0.1364 -0.0688
32276W        W38726  10.666   4.289  10.021  0.2327  0.1090 -0.3473
32277W        W38727   7.124   5.620   2.080  0.1299  0.0117 -0.2837
32278W        W38728   5.461   0.081  14.819  0.2021 -0.3169  0.1478
32279W        W38729  21.390   5.475  20.434  0.5118  0.0516 -0.0116
32280W        W38730  18.354   6.867  16.806  0.0066 -0.0087 -0.0926
32281W        W38731   3.380   5.462  28.915  0.1666  0.1937 -0.1899
32282W        W38732  23.424   6.500  29.255  0.2393 -0.2305 -0.0872
32283W        W38733   0.566   3.056   0.204 -0.3099  0.3769 -0.4779
32284W        W38734  21.888   0.626   0.283  0.0935 -0.1834  0.0014
32285W        W38735  10.661   6.590  19.229 -0.2382 -0.1812 -0.1092
32286W        W38736  20.075   1.913  10.230 -0.2109 -0.4477 -0.0363
32287W        W38737  15.907   6.987   4.238  0.0319  0.1928 -0.1040
32288W        W38738  23.264   5.231   4.614 -0.0202 -0.0729 -0.0931
32289W        W38739  11.113   5.872   4.785  0.0543  0.2041  0.2669
32290W        W38740  22.314   7.166  24.814  0.2720 -0.1237 -0.0766
32291W        W38741  22.001   5.429  23.704 -0.0756  0.1736 -0.1569
32292W        W38742  21.988   4.849  22.749  0.3103  0.1705  0.0926
32293W        W38743  23.743   0.328   9.182  0.0730  0.0746 -0.0515
32294W        W38744  14.131   2.466   9.852  0.1778  0.1016  0.1599
32295W        W38745   1.871   2.455  29.532 -0.0882  0.0099 -0.4802
32296W        W38746   1.097   4.674   9.555  0.0004 -0.0933  0.0062
32297W        W38747  11.642   3.502   8.240 -0.0347 -0.4806 -0.1200
32298W        W38748   2.512   0.310   2.747 -0.2703 -0.0633  0.2518
32299W        W38749  21.247   5.113  25.635 -0.1433 -0.3896  0.0724
32300W        W38750  16.969   1.374   0.232 -0.0081  0.0284  0.2603
32301W        W38751   1.741   1.947  15.910  0.1768  0.0780  0.1546
32302W        W38752   5.171   2.802   0.854  0.0160 -0.1118  0.0151
32303W        W38753  20.158   2.709   6.798 -0.2556 -0.3789  0.1801
32304W        W38754   0.592   5.187   4.514  0.0324 -0.3749 -0.2198
32305W        W38755   4.934   5.496  12.486  0.0123  0.0832  0.0335
32306W        W38756   0.792   0.807  14.296 -0.1208 -0.1460 -0.0449
32307W        W38757  24.423   7.182  22.747  0.0127  0.1120 -0.3459
32308W        W38758   2.197   1.643   6.184  0.2294 -0.0565  0.2191
32309W        W38759   9.839   4.935  31.870 -0.1746 -0.1801 -0.0530
32310W        W38760  18.614   0.286  17.133 -0.1468  0.0930 -0.1825
32311W        W38761   1.030   3.629  14.147  0.0120  0.1308  0.3443
32312W        W38762   1.690   3.627   0.182  0.0821 -0.1789 -0.0792
32313W        W38763   3.175   5.954  13.079 -0.2649  0.3443  0.1134
32314W        W38764   2.871   2.987   4.040 -0.0824  0.0932 -0.3430
32315W        W38765  16.203   6.215  26.776 -0.0495  0.1547 -0.2593
32316W        W38766  20.723   1.348  22.975  0.1028  0.0064 -0.2415
32317W        W38767  14.104   0.442  23.191 -0.2368 -0.0437 -0.0486
32318W        W38768  11.865   7.154  11.641  0.0117  0.1802  0.2636
32319W        W38769   6.622   6.049   3.667  0.2728  0.1526 -0.1508
32320W        W38770  16.836   2.117  24.936  0.0267  0.1338 -0.1208
32321W        W38771  18.139   4.738   6.534 -0.2553  0.1493 -0.0631
32322W        W38772  11.138   0.729  23.286 -0.1306 -0.1025  0.0068
32323W        W38773   4.339   6.688  11.863  0.0615 -0.0345 -0.1370
32324W        W38774  19.217   4.330   1.691  0.0162 -0.2135 -0.0703
32325W        W38775  18.778   5.886  26.607 -0.0111 -0.3619 -0.0178
32326W        W38776   6.954   7.323  29.172 -0.1027  0.1025 -0.1860
32327W        W38777   0.697   6.325  27.193 -0.0747  0.1130 -0.0767
32328W        W38778  16.600   5.589  20.269  0.0535  0.0965 -0.1766
32329W        W38779  22.204   5.706  10.971 -0.0030 -0.0263  0.2186
32330W        W38780  20.668   2.896  26.638  0.0360 -0.0259  0.1235
32331W        W38781   7.567   5.467   7.753 -0.1853  0.0673  0.0681
32332W        W38782   5.155   6.854  11.789  0.1262 -0.1093 -0.2976
32333W        W38783   9.792   1.460   3.543  0.1329  0.1256  0.1266
32334W        W38784   5.033   5.674   2.438 -0.0101  0.0996 -0.1792
32335W        W38785   6.922   4.525  24.696  0.0099  0.2120 -0.0821
32336W        W38786   3.781   5.383  16.707 -0.2083  0.0729  0.1453
32337W        W38787  12.560   7.545   8.025 -0.0105 -0.2287 -0.0190
32338W        W38788   6.732   5.510   4.738 -0.2394  0.0095 -0.1309
32339W        W38789  20.202   0.446  27.890  0.0314  0.1748 -0.0348
32340W        W38790  11.578   6.764   4.659  0.1291 -0.0406  0.0903
32341W        W38791   6.565   2.943  11.393 -0.3249 -0.0031 -0.3047
32342W        W38792  17.136   7.542  16.034  0.0612  0.1306  0.1540
32343W        W38793  14.665   0.922  27.193 -0.0421  0.1584 -0.1759
32344W        W38794   2.327   1.496  23.157 -0.1209  0.1379 -0.0345
32345W        W38795  19.159   4.932  24.523  0.1975  0.2357 -0.0479
32346W        W38796  17.864   0.264  21.071  0.0077  0.1193  0.1454
32347W        W38797  17.078   2.634  29.524 -0.2075  0.2025 -0.2090
32348W        W38798  20.152   7.449  32.553  0.1532 -0.1442 -0.0386
32349W        W38799  16.746   1.500  18.741 -0.1902  0.1018 -0.2688
32350W        W38800   5.333   5.866  10.747  0.0377 -0.1628 -0.0462
32351W        W38801   3.683   1.870  17.510  0.0179  0.0758  0.0635
32352W        W38802   8.130   5.342  21.894  0.0055  0.2094  0.2497
32353W        W38803   4.554   3.399  11.313  0.1055 -0.0337 -0.0592
32354W        W38804   4.747   4.796  16.676 -0.2576 -0.1504  0.1363
32355W        W38805  15.429   2.875  25.689 -0.1889  0.3119  0.0009
32356W        W38806   2.527   7.076  16.033  0.2358  0.0859 -0.0075
32357W        W38807  21.894   6.964   9.376  0.0590  0.2800 -0.0165
32358W        W38808  20.861   0.178   1.135 -0.1375 -0.0520 -0.0256
32359W        W38809  23.432   2.016  28.147  0.0069 -0.0975 -0.3026
32360W        W38810   5.006   0.744   5.225  0.1540  0.0831  0.1683
32361W        W38811   7.770   2.318   4.882  0.4127 -0.0349  0.2298
32362W        W38812   2.481   3.791  32.635  0.0280  0.0604 -0.2580
32363W        W38813  18.656   1.091  26.856 -0.0058  0.1367 -0.1315
32364W        W38814  15.801   0.562   6.438 -0.3349 -0.0869  0.1113
32365W        W38815   6.592   6.152  27.361  0.0948  0.0077  0.0621
32366W        W38816   0.275   4.116   5.414  0.0183 -0.2998 -0.2007
32367W        W38817  16.962   2.833   5.179  0.4764 -0.0727  0.3542
32368W        W38818  12.692   6.776  10.729 -0.1315  0.2768 -0.0415
32369W        W38819   7.804   7.784  31.504  0.1817 -0.1194  0.0992
32370W        W38820   7.757   5.443   1.368 -0.0241  0.2215 -0.3828
32371W        W38821  23.255   5.261  11.757  0.1311  0.2307  0.1108
32372W        W38822  16.964   4.546  14.441  0.2244  0.2251 -0.0199
32373W        W38823   1.263   4.813  12.238  0.3241 -0.3097  0.1252
32374W        W38824  17.391   4.505  30.691 -0.2893  0.4046  0.2508
32375W        W38825  18.221   3.404   5.279  0.0009  0.2133  0.4293
32376W        W38826  14.353   5.100  15.825 -0.0843 -0.0761 -0.0908
32377W        W38827   1.045   4.624  15.662 -0.1626 -0.0357 -0.3084
32378W        W38828  12.080   4.042  26.935  0.0170 -0.0059 -0.2041
32379W        W38829   5.576   3.310   6.675 -0.4018  0.3261  0.1851
32380W        W38830  19.934   2.744   9.015  0.1382  0.0553  0.0644
32381W        W38831   0.806   5.078  15.505  0.4749  0.0592  0.0668
32382W        W38832   8.104   4.572   1.282 -0.1031  0.1325  0.0590
32383W        W38833   9.522   4.099  27.951 -0.1312  0.1351 -0.1868
32384W        W38834   9.728   4.570   9.282 -0.0900 -0.1841 -0.0308
32385W        W38835   0.039   0.116  10.811 -0.0977  0.3213 -0.1442
32386W        W38836  15.940   4.410  24.520  0.2245  0.0490 -0.0300
32387W        W38837  18.977   0.271  26.898  0.0867 -0.0717  0.2228
32388W        W38838  13.745   4.492  24.192 -0.0630 -0.1038 -0.1924
32389W        W38839   2.101   3.410   8.105 -0.1579 -0.1308  0.1687
32390W        W38840  12.223   5.035  23.089 -0.0872 -0.1102  0.2128
32391W        W38841  17.596   2.957  26.427  0.2582 -0.1869 -0.3213
32392W        W38842  14.338   4.535  23.521  0.4294  0.1656  0.0201
32393W        W38843   6.712   2.389  23.371 -0.1997 -0.0706 -0.0770
32394W        W38844   6.830   5.169  31.985  0.0090 -0.4614  0.0786
32395W        W38845   0.235   6.166  29.064 -0.2343 -0.2258 -0.1637
32396W        W38846  15.222   4.768   5.059 -0.0875 -0.0887 -0.0999
32397W        W38847  14.925   6.197   2.452  0.0607  0.1124  0.0350
32398W        W38848  22.754   0.232  30.170 -0.0379 -0.0236 -0.0687
32399W        W38849  23.038   1.573  26.944  0.1530  0.1227 -0.1264
32400W        W38850   3.853   1.803  10.678 -0.2790 -0.0810 -0.1102
32401W        W38851  19.502   7.375   9.524  0.2232  0.1815  0.3565
32402W        W38852  11.543   4.898   9.037 -0.1273  0.0988  0.1182
32403W        W38853  16.682   7.596  28.025 -0.1328  0.0541  0.3844
32404W        W38854   9.885   6.885   0.592  0.2275  0.0278  0.0783
32405W        W38855  22.998   7.452  30.224 -0.3669 -0.0216 -0.1625
32406W        W38856   9.319   2.513  29.580 -0.2874 -0.1715 -0.0514
32407W        W38857  10.839   3.722   8.814 -0.1586 -0.1768  0.1782
32408W        W38858  17.707   4.938   7.714  0.0181  0.1698  0.1104
32409W        W38859  16.038   6.595  15.467 -0.0082 -0.0161  0.1276
32410W        W38860   2.939   1.467  16.345  0.0273 -0.0845  0.3200
32411W        W38861  11.150   3.833  25.901 -0.4441  0.1116  0.0356
32412W        W38862   5.904   1.864   0.924 -0.2306  0.1369 -0.0610
32413W        W38863  13.947   1.578  14.942 -0.0263 -0.1629  0.1055
32414W        W38864   2.130   4.602  12.383 -0.0153 -0.0855  0.4269
32415W        W38865   2.290   5.731  27.843 -0.0314  0.2674 -0.0247
32416W        W38866   7.096   0.192  16.223 -0.2685  0.0782 -0.1314
32417W        W38867   9.894   4.283  30.696 -0.2871  0.0544 -0.0334
32418W        W38868   0.534   7.311  15.478 -0.1028 -0.0561  0.0915
32419W        W38869  23.217   7.307   2.972 -0.0820  0.2059  0.2222
32420W        W38870  15.183   7.691  15.161 -0.0826  0.0567  0.0911
32421W        W38871  15.357   4.782   8.190  0.0744 -0.0567  0.1180
32422W        W38872   2.234   0.582   3.511  0.0185 -0.0535  0.0009
32423W        W38873  24.093   1.630   8.709 -0.0015  0.2609  0.1080
32424W        W38874   7.783   2.250   6.972  0.2645 -0.1153  0.3649
32425W        W38875  16.740   0.760   1.031  0.0968  0.0775  0.0475
32426W        W38876   0.221   7.513  30.143  0.0799  0.0268  0.1405
32427W        W38877  14.197   6.623  10.160 -0.1278  0.1795 -0.1117
32428W        W38878  11.084   5.803   2.804 -0.1017 -0.0588 -0.1319
32429W        W38879  22.230   3.837  32.248 -0.1035  0.1449  0.2725
32430W        W38880   1.991   1.094  14.893  0.0204 -0.2132 -0.2475
32431W        W38881  16.368   0.396   9.373  0.1493 -0.0443 -0.0036
32432W        W38882  12.752   2.022  17.898  0.0719  0.0785  0.1551
32433W        W38883   7.051   0.517  28.824 -0.1302 -0.1472 -0.0544
32434W        W38884  20.189   5.364   9.012  0.0976  0.3081  0.1676
32435W        W38885   6.957   4.336  13.797  0.0922  0.3888 -0.0958
32436W        W38886  11.229   2.482  26.227  0.4105 -0.0772 -0.2057
32437W        W38887   0.463   2.848  15.993 -0.0355  0.0754  0.1726
32438W        W38888   9.309   4.839  24.150  0.0557  0.0892  0.0830
32439W        W38889  21.878   3.292  11.423  0.1157 -0.3325  0.1547
32440W        W38890   0.953   5.225  29.759 -0.1419  0.1314  0.3720
32441W        W38891   9.431   1.094  30.724  0.1484  0.1282  0.2881
32442W        W38892   2.488   1.100  12.943  0.1000  0.0113  0.0162
32443W        W38893  24.178   0.311  32.618  0.2520 -0.4101  0.1713
32444W        W38894   4.604   1.295  14.945 -0.2796 -0.1822 -0.3639
32445W        W38895   9.735   0.229  32.056 -0.0739  0.1941  0.4864
32446W        W38896   3.441   1.777   8.497 -0.0770 -0.0141 -0.2467
32447W        W38897   0.554   6.016   4.920  0.0054  0.1439  0.1389
32448W        W38898  19.507   1.433  21.757 -0.0223  0.1264  0.1906
32449W        W38899  17.634   0.021  10.209 -0.2531 -0.1413  0.2814
32450W        W38900  15.456   2.724   7.646  0.0342 -0.4907  0.3793
32451W        W38901   1.856   3.175  32.649  0.1388 -0.0651  0.1709
32452W        W38902  23.766   2.639  10.105 -0.0394 -0.0778  0.1006
32453W        W38903  15.161   7.164  26.458 -0.3193  0.0400  0.0515
32454W        W38904   6.243   5.837  23.912  0.0660  0.1403  0.2658
32455W        W38905  10.019   7.745   0.422  0.1307 -0.3969 -0.0806
32456W        W38906  20.717   3.273  10.914 -0.0335 -0.2104 -0.0225
32457W        W38907  15.740   7.656  30.387  0.0079 -0.0280 -0.1600
32458W        W38908  15.126   2.601  21.242  0.0098  0.1694  0.0193
32459W        W38909   8.165   6.498  32.688  0.6207  0.1917 -0.3426
32460W        W38910  16.791   3.325  27.511 -0.1181  0.3121 -0.0017
32461W        W38911  17.228   2.570   0.982  0.1471  0.0134 -0.2800
32462W        W38912  14.393   0.768  15.743  0.2225  0.1308  0.1415
32463W        W38913  19.772   3.088   9.900 -0.0938 -0.0963  0.0707
32464W        W38914   9.158   1.795   1.986  0.1323  0.4563  0.0842
32465W        W38915  17.732   1.392  22.572 -0.2576 -0.0391  0.0290
32466W        W38916   3.600   4.632  27.119 -0.0730 -0.2263  0.4402
32467W        W38917  19.574   5.500   5.191 -0.1683 -0.0685 -0.0183
32468W        W38918   0.584   2.342  15.606  0.1673  0.2840  0.2864
32469W        W38919  13.326   0.223  21.821  0.0038  0.0674 -0.1825
32470W        W38920  11.964   4.174  17.016  0.1309 -0.1308  0.1411
32471W        W38921   5.812   1.208   1.149  0.1006  0.0846 -0.0218
32472W        W38922  16.093   6.026   2.625  0.1495 -0.2028  0.2061
32473W        W38923   0.543   1.326   2.238 -0.4905 -0.1310  0.0736
32474W        W38924   4.800   5.172  22.357 -0.0997 -0.0659  0.2993
32475W        W38925   7.109   7.379  26.595  0.0582  0.0621  0.5288
32476W        W38926   0.680   1.782  29.498 -0.0896  0.0938  0.1710
32477W        W38927   1.560   3.183  11.682 -0.0972 -0.2642  0.0355
32478W        W38928   3.708   5.722   2.541  0.2924  0.0447 -0.4234
32479W        W38929  18.974   5.608  16.036 -0.0276 -0.1368 -0.0668
32480W        W38930   5.779   1.161   0.109 -0.0309  0.0624 -0.1809
32481W        W38931  15.564   6.351  33.007 -0.1664  0.0306  0.2918
32482W        W38932   6.819   0.599  30.032 -0.1226 -0.1941  0.1111
32483W        W38933  21.545   4.619  27.421  0.1292 -0.2522 -0.1481
32484W        W38934  22.443   6.797  24.016 -0.2063 -0.1858 -0.2181
32485W        W38935  21.530   2.884  22.211 -0.0013 -0.0587 -0.3073
32486W        W38936  19.240   1.710   1.322  0.1940 -0.0338  0.2632
32487W        W38937  15.249   1.791  27.866 -0.1150 -0.2329 -0.0869
32488W        W38938   3.233   4.062  30.500 -0.1266 -0.4220 -0.0739
32489W        W38939  20.753   7.162  24.550 -0.4205 -0.1287  0.1733
32490W        W38940   3.120   1.186   7.937  0.0375  0.1394 -0.1023
32491W        W38941   6.989   3.476   9.868  0.1886  0.0898 -0.0730
32492W        W38942  13.665   1.858   0.630  0.3081 -0.0461  0.1584
32493W        W38943   4.965   3.770  25.069  0.4198  0.2959 -0.1139
32494W        W38944  11.413   7.739  12.919 -0.1465 -0.2547  0.1788
32495W        W38945   0.536   3.978  27.329 -0.2096 -0.0400  0.1072
32496W        W38946  20.758   4.722  22.161 -0.0401 -0.1640  0.0360
32497W        W38947   0.197   7.128  31.638  0.1250 -0.0224  0.0723
32498W        W38948   3.370   6.392  11.373  0.0412 -0.0141  0.0031
32499W        W38949   0.970   7.106  32.416  0.0456 -0.1691 -0.0547
32500W        W38950  15.264   2.891   5.787 -0.0222  0.2089  0.1773
32501W        W38951   1.789   5.336  30.231 -0.1537 -0.2675 -0.2151
32502W        W38952  12.559   2.833   6.651  0.3315 -0.0020  0.0259
32503W        W38953  13.964   6.966  21.052  0.1374 -0.0596  0.2734
32504W        W38954   3.534   2.019   0.618 -0.1353  0.3266 -0.1283
32505W        W38955  21.718   4.671  19.431 -0.1692  0.0981 -0.1220
32506W        W38956   6.532   5.317  23.170 -0.1966 -0.2280  0.4823
32507W        W38957   7.386   1.955   6.816 -0.1797 -0.0989  0.0598
32508W        W38958  19.223   5.124   6.092 -0.2096 -0.0182  0.0106
32509W        W38959  18.446   0.482   4.612 -0.0722 -0.0165 -0.0336
32510W        W38960   8.769   5.194   0.228  0.0680  0.1949 -0.0524
32511W        W38961   6.242   4.163  11.681  0.1875 -0.4139  0.0332
32512W        W38962  23.069   4.239  20.017  0.2084 -0.4860 -0.0058
32513W        W38963  23.470   7.147  20.694 -0.1953  0.1824 -0.0969
32514W        W38964   2.197   7.709  28.449  0.1795  0.0322 -0.0827
32515W        W38965  17.679   1.736   3.028 -0.2497 -0.0201  0.2371
32516W        W38966   8.613   4.901  14.259 -0.0208  0.0762  0.3443
32517W        W38967  20.558   3.054   2.419  0.0800 -0.1671  0.0232
32518W        W38968   5.242   0.756  24.630 -0.1077 -0.2731  0.2456
32519W        W38969  21.239   6.125   0.939  0.1918 -0.0124  0.0763
32520W        W38970   1.767   0.281   5.181  0.0516 -0.0324 -0.2348
32521W        W38971  14.970   3.790  27.666  0.3616 -0.0107  0.1343
32522W        W38972   2.595   5.135   1.526  0.0227  0.0381 -0.1384
32523W        W38973   0.913   4.713  30.498  0.0774  0.0157  0.0300
32524W        W38974   6.749   5.085  15.187 -0.1507  0.1191  0.0321
32525W        W38975   3.031   6.668   3.591 -0.1983  0.0293  0.1047
32526W        W38976  24.796   2.422  30.991  0.1047 -0.0136  0.1610
32527W        W38977   1.091   0.741  23.312 -0.0950 -0.2352  0.0228
32528W        W38978  23.061   7.463  31.730  0.1925 -0.2240  0.0388
32529W        W38979  18.220   0.906  27.101 -0.0022  0.0803  0.1478
32530W        W38980   3.842   0.116   2.274 -0.1158  0.1507  0.0905
32531W        W38981  22.995   2.804  10.233  0.0765 -0.0684 -0.0976
32532W        W38982  15.420   0.177  24.854  0.0245  0.0382 -0.0548
32533W        W38983  15.653   1.572  17.993 -0.0192 -0.0372 -0.1114
32534W        W38984  14.478   2.991  24.350  0.3404  0.1432 -0.1192
32535W        W38985  19.621   3.730   0.475 -0.0932  0.2317  0.0294
32536W        W38986  17.123   0.071   6.497 -0.2736 -0.1689  0.1740
32537W        W38987  22.917   6.948  25.273 -0.2403 -0.1130  0.3321
32538W        W38988  18.115   6.695  21.880  0.0864  0.2172  0.0252
32539W        W38989  15.166   5.782   7.239  0.0920  0.0179  0.0055
32540W        W38990   9.722   4.337   0.628 -0.0469  0.0805  0.1455
32541W        W38991   0.455   1.744  28.983  0.3375  0.1624  0.0892
32542W        W38992   5.497   7.225  11.378  0.3631 -0.1097  0.2295
32543W        W38993  11.799   2.585  22.467  0.1219  0.1347 -0.3196
32544W        W38994   5.022   3.199   1.706  0.0098 -0.2964 -0.1560
32545W        W38995   0.950   7.658   2.663  0.0150 -0.0154 -0.2802
32546W        W38996   5.360   5.060   6.048 -0.1512  0.1855  0.0427
32547W        W38997   3.579   5.134  17.094  0.0910 -0.1163  0.3377
32548W        W38998  23.367   3.708  27.535 -0.0419  0.0419  0.0506
32549W        W38999  14.752   3.983   2.766 -0.0459  0.1218 -0.0226
32550W        W39000  15.615   1.641   2.061 -0.1865  0.2261  0.3015
32551W        W39001   2.121   4.922  24.171 -0.0699 -0.3893  0.0664
32552W        W39002   3.371   0.594   5.518 -0.0721 -0.2151  0.1485
32553W        W39003  13.496   3.842  30.647 -0.1307  0.2360  0.1209
32554W        W39004   1.592   5.049   4.831 -0.2804  0.1017  0.0352
32555W        W39005  19.301   5.934  22.791 -0.1650  0.0548  0.1991
32556W        W39006  15.056   6.185  25.754 -0.1606 -0.3341  0.0700
32557W        W39007  19.387   6.216  31.214  0.1019  0.0641  0.3005
32558W        W39008  24.724   0.741  23.292  0.1761 -0.1728 -0.0025
32559W        W39009  13.592   6.596  16.593  0.1241  0.1867 -0.0766
32560W        W39010   8.825   4.964  25.815 -0.1824 -0.0579  0.2440
32561W        W39011  12.586   0.783  28.690  0.0402  0.0561  0.3061
32562W        W39012  17.532   3.492   0.746 -0.1984 -0.2039  0.0422
32563W        W39013  10.820   6.129  29.100  0.1700 -0.2875  0.3111
32564W        W39014  16.962   1.046  31.055  0.1742 -0.0612 -0.3557
32565W        W39015  24.890   0.434  10.471  0.0408  0.1321  0.1066
32566W        W39016  23.317   4.632   8.837 -0.0792 -0.0977  0.1648
32567W        W39017  23.005   0.640  12.755 -0.1370 -0.0463  0.2343
32568W        W39018  12.902   2.216  26.799 -0.2120  0.1116 -0.0081
32569W        W39019  23.857   1.649  21.671  0.0219 -0.0272 -0.3073
32570W        W39020  10.881   5.532  29.656 -0.0003 -0.1730  0.1389
32571W        W39021  14.258   3.745  25.717 -0.1500 -0.0922  0.6544
32572W        W39022   3.696   0.484  12.081 -0.2264 -0.0187 -0.1647
32573W        W39023  12.434   4.046  32.887  0.2757  0.0740 -0.0698
32574W        W39024  22.908   7.687  25.083  0.0423  0.2947  0.2358
32575W        W39025   5.403   3.695   4.447  0.3312 -0.2743  0.2194
32576W        W39026  15.242   5.674  23.100  0.0199 -0.2463  0.2159
32577W        W39027   2.331   3.847   6.109  0.0286 -0.0924  0.0695
32578W        W39028  22.007   7.485   7.014 -0.0690  0.0362 -0.0310
32579W        W39029  16.524   2.237   8.865 -0.0858 -0.0318  0.0265
32580W        W39030  19.088   5.064   7.389  0.2994  0.4424 -0.1529
32581W        W39031   0.515   0.851   9.286 -0.0293 -0.0871  0.2039
32582W        W39032  16.337   5.986  31.104  0.0445 -0.3150  0.1228
32583W        W39033  10.263   1.200  22.028 -0.1308 -0.0655  0.1044
32584W        W39034   9.667   0.553   1.590 -0.0901 -0.2158  0.0122
32585W        W39035  10.914   0.166   0.523 -0.0867 -0.0588  0.1558
32586W        W39036  16.990   7.534   2.168  0.0811 -0.1710 -0.0151
32587W        W39037   0.859   6.273   5.808 -0.3844 -0.0958  0.0846
32588W        W39038   9.513   7.037   2.089  0.2365  0.2191  0.0631
32589W        W39039  12.590   5.311  26.189 -0.0509 -0.1218 -0.0861
32590W        W39040  20.429   5.468  18.880 -0.2548  0.0811  0.1412
32591W        W39041   1.574   2.981  25.666  0.2093 -0.1824  0.2177
32592W        W39042   6.772   3.269  12.872  0.0799  0.0933 -0.0171
32593W        W39043   4.736   4.378  31.732  0.1144  0.0355 -0.0416
32594W        W39044  18.129   0.347  17.396  0.0819  0.2773 -0.4040
32595W        W39045  24.473   5.788   7.964  0.2297 -0.0643 -0.1008
32596W        W39046   5.994   1.480   2.445 -0.0906  0.2373  0.1667
32597W        W39047  10.535   4.063  25.282 -0.2009  0.0651 -0.3285
32598W        W39048   8.441   0.538  32.634  0.2149  0.2896 -0.1216
32599W        W39049  23.838   2.614   2.293 -0.0463  0.0213 -0.1346
32600W        W39050  22.738   2.224   8.261  0.4360 -0.1792  0.0767
32601W        W39051  11.215   2.293  19.934 -0.0191  0.2358  0.3557
32602W        W39052   2.247   6.350  24.808 -0.2681  0.0634 -0.1833
32603W        W39053  16.013   5.438   6.474 -0.1220 -0.5163 -0.2372
32604W        W39054  19.525   2.994   5.271  0.2592  0.0563  0.0392
32605W        W39055  14.226   6.445   5.023 -0.1050  0.3057  0.0503
32606W        W39056  16.931   1.147  19.063 -0.3194 -0.1624 -0.1918
32607W        W39057  18.200   1.320  19.450 -0.3174 -0.2531 -0.1906
32608W        W39058   7.394   0.053  16.620 -0.1204 -0.1549  0.1287
32609W        W39059  19.053   6.249   0.107  0.3356 -0.0148  0.2460
32610W        W39060  11.011   4.861   0.381  0.0950 -0.0101  0.0372
32611W        W39061   6.772   7.544   0.601 -0.2762  0.1683 -0.1593
32612W        W39062  20.428   5.944   4.857 -0.3587  0.1348  0.0730
32613W        W39063  12.359   3.004  25.795  0.1631 -0.1926 -0.4138
32614W        W39064   8.282   0.711   4.035  0.0286  0.0381  0.0673
32615W        W39065  19.463   0.057   1.224 -0.0416  0.1503  0.1767
32616W        W39066  22.566   3.740  23.123  0.0609 -0.3703 -0.1080
32617W        W39067   6.210   6.184  18.034 -0.1650  0.0746 -0.1107
32618W        W39068   7.828   1.812   6.425 -0.0381  0.3603 -0.4763
32619W        W39069  18.148   1.316  26.576 -0.1800  0.2566  0.5262
32620W        W39070   9.855   0.853  30.787  0.3801  0.0906  0.1864
32621W        W39071  16.921   0.889   8.394  0.1886  0.2316  0.1297
32622W        W39072  21.590   0.807  25.799  0.1046 -0.0454  0.1988
32623W        W39073  15.741   0.258   2.280 -0.1726 -0.1034  0.0061
32624W        W39074   4.477   2.782  12.685 -0.0062 -0.2106 -0.1488
32625W        W39075  19.080   4.857   3.399 -0.0290  0.1224 -0.1457
32626W        W39076   2.008   4.000  26.039  0.1467  0.2951 -0.1701
32627W        W39077  21.644   6.720   0.394  0.0291 -0.3239  0.2264
32628W        W39078   2.974   4.914  30.748  0.0265  0.0946  0.1340
32629W        W39079  13.093   4.404  27.073  0.0475  0.2156 -0.0166
32630W        W39080  16.692   6.607   9.082 -0.0784  0.0122 -0.0653
32631W        W39081  17.743   3.222  29.323 -0.4062 -0.1016  0.2242
32632W        W39082  21.023   1.626  18.255 -0.1492 -0.3707 -0.0700
32633W        W39083  16.365   3.132  14.734  0.0810  0.0398 -0.1246
32634W        W39084   5.163   0.020  17.004 -0.2560  0.2580 -0.1410
32635W        W39085   6.482   3.764   1.070 -0.0346 -0.0119  0.0738
32636W        W39086  15.928   3.344  25.347 -0.1063 -0.2758 -0.0061
32637W        W39087  20.248   3.584   0.510 -0.1967  0.2047  0.0550
32638W        W39088   4.212   4.270   0.068  0.2114  0.3129 -0.0735
32639W        W39089  21.616   2.172  22.197  0.0230 -0.1419 -0.1054
32640W        W39090  14.049   5.324  22.692  0.0327 -0.2079  0.1141
32641W        W39091  19.767   6.530  31.001 -0.2220 -0.1157  0.0180
32642W        W39092  16.524   6.867   2.850 -0.0815  0.0123 -0.0759
32643W        W39093   5.765   5.838  13.750 -0.0819  0.0075 -0.1020
32644W        W39094  23.006   1.390   6.224  0.0208  0.0799  0.0828
32645W        W39095   5.273   2.729  29.676 -0.0049 -0.1884 -0.1340
32646W        W39096  18.661   3.826   0.388 -0.0931  0.3953 -0.2313
32647W        W39097  17.529   1.502  17.535 -0.2118 -0.0392  0.2585
32648W        W39098  11.803   4.094   6.556  0.0779  0.0137 -0.0265
32649W        W39099  17.808   2.345  10.301 -0.1859  0.3061  0.0549
32650W        W39100   8.467   0.020   9.456 -0.0351 -0.2293  0.0196
32651W        W39101   4.621   1.253  30.812 -0.0424  0.1299  0.0615
32652W        W39102  18.906   1.987  27.432  0.1561  0.1535  0.1250
32653W        W39103   5.150   3.280   8.228  0.1601  0.1232  0.0192
32654W        W39104   8.272   6.835   4.738 -0.4547 -0.0681  0.1961
32655W        W39105   2.231   6.359  26.803  0.0563  0.0225  0.0550
32656W        W39106   5.169   3.825  29.075  0.1918  0.0462  0.1005
32657W        W39107  19.573   7.743   0.371 -0.1146  0.2406 -0.0946
32658W        W39108  11.560   1.800   5.670  0.2446  0.2306  0.2495
32659W        W39109   7.537   0.457  28.144  0.0547  0.2037 -0.1650
32660W        W39110   1.522   2.466  25.997 -0.1088 -0.0686 -0.0537
32661W        W39111  19.358   1.851   8.677  0.0344 -0.1484  0.0226
32662W        W39112  21.877   0.890  12.369 -0.1860 -0.0191  0.0277
32663W        W39113  20.303   1.926   9.116  0.0120  0.1388 -0.1359
32664W        W39114   3.379   6.960  29.885  0.1625  0.2158  0.5135
32665W        W39115  14.883   5.311   3.930  0.0561  0.0039  0.0687
32666W        W39116   8.713   1.983  12.117  0.0590  0.0396 -0.0291
32667W        W39117   1.665   2.021  15.270  0.1323 -0.0844 -0.0801
32668W        W39118   3.019   4.236  23.844 -0.1418  0.2447 -0.0004
32669W        W39119   2.625   4.881  14.641 -0.3202 -0.1839 -0.0820
32670W        W39120  20.421   6.848   3.842  0.1217 -0.5394 -0.1440
32671W        W39121  19.252   6.916  32.817 -0.0967  0.0361  0.1201
32672W        W39122  12.319   1.068  30.944 -0.2843 -0.0423  0.3044
32673W        W39123  24.520   4.187   6.709 -0.1835 -0.0217 -0.0343
32674W        W39124  20.298   4.097   9.174  0.0977  0.1608 -0.1491
32675W        W39125  16.448   5.385  31.850  0.1462 -0.1563 -0.2268
32676W        W39126  12.413   3.143  10.440  0.1493 -0.0966  0.2632
32677W        W39127  20.580   4.671  10.888  0.0208 -0.0410 -0.1821
32678W        W39128  13.655   5.713   8.530 -0.0453  0.2101 -0.0201
32679W        W39129   8.202   2.934  24.238 -0.1479 -0.1633 -0.0029
32680W        W39130  12.696   5.121  31.052  0.0687  0.1477  0.0818
32681W        W39131   9.836   6.156  26.821  0.3210  0.0898 -0.0736
32682W        W39132   7.402   7.587  26.917  0.0140  0.0858  0.1791
32683W        W39133  16.612   4.574  28.906 -0.0758 -0.0286  0.0795
32684W        W39134   1.454   5.385   1.836  0.1114  0.3195  0.3878
32685W        W39135   7.162   0.040   7.497  0.0713 -0.1305 -0.0263
32686W        W39136  17.219   4.707  31.428  0.2419  0.1231  0.1766
32687W        W39137  22.896   3.199  13.500  0.0271  0.1268  0.0810
32688W        W39138   3.344   3.193   9.914  0.0638  0.0678 -0.0188
32689W        W39139   3.043   5.874   3.210 -0.1946  0.0063  0.1157
32690W        W39140  14.874   0.051  22.196 -0.1232  0.1472 -0.1850
32691W        W39141  20.400   2.308  20.859 -0.1096  0.2096 -0.0713
32692W        W39142   4.997   0.245  28.732 -0.0432 -0.0619 -0.2286
32693W        W39143  14.027   2.474   0.200  0.0888  0.0636 -0.1889
32694W        W39144   3.469   2.317   6.366  0.1902 -0.1619  0.2835
32695W        W39145   2.305   1.013  13.411  0.0214 -0.0674  0.1871
32696W        W39146  23.012   1.132  10.892  0.1287 -0.1556  0.0091
32697W        W39147  24.125   4.452  27.404  0.1467  0.2766 -0.2933
32698W        W39148   9.546   1.314  20.804 -0.0018  0.2863  0.1752
32699W        W39149  11.807   4.610  31.067 -0.1222 -0.2914 -0.0728
32700W        W39150  24.543   2.871  32.244  0.1654  0.1045  0.1371
32701W        W39151  12.239   1.933  17.720  0.1858  0.4544 -0.0101
32702W        W39152   1.274   1.951  26.158  0.4133 -0.4084 -0.1630
32703W        W39153   5.029   1.561  31.600  0.4045 -0.3101  0.0110
32704W        W39154  11.552   0.114   9.720  0.1473  0.1679  0.1635
32705W        W39155   1.666   2.433  14.375  0.2922  0.1503  0.0440
32706W        W39156   5.514   5.909   9.366  0.0352 -0.2475  0.3049
32707W        W39157  11.066   6.271  11.270 -0.0163  0.1929 -0.1550
32708W        W39158  20.925   7.031   3.778  0.0015  0.1191  0.1557
32709W        W39159  11.993   5.553  30.533 -0.2832 -0.2973 -0.0669
32710W        W39160  17.358   4.428  15.221 -0.0376  0.1896  0.3015
32711W        W39161  17.950   6.373   0.846 -0.0485  0.1599 -0.2079
32712W        W39162   3.338   6.051  27.602  0.0858  0.1238  0.3532
32713W        W39163  22.943   0.234  11.280 -0.0319  0.2274 -0.4199
32714W        W39164   2.105   5.489  25.475 -0.2006  0.1725  0.2859
32715W        W39165  18.801   1.390   5.218 -0.0827 -0.2639  0.0514
32716W        W39166   3.340   2.099   6.976  0.0071 -0.0888  0.1572
32717W        W39167  16.525   0.898   8.108 -0.1826  0.2482 -0.3051
32718W        W39168  23.520   4.488  30.533  0.1784  0.0089  0.1780
32719W        W39169  11.352   3.127  22.716 -0.0441  0.1540 -0.0444
32720W        W39170  22.720   3.645  11.959  0.1321  0.2193 -0.3075
32721W        W39171  18.425   3.819   1.844 -0.0748  0.0225 -0.0738
32722W        W39172  24.428   2.823   9.362 -0.2622  0.1973  0.1579
32723W        W39173   6.562   2.048  30.497 -0.2158  0.0895 -0.0197
32724W        W39174   1.234   1.569   3.996 -0.0393  0.0615 -0.1251
32725W        W39175  10.769   1.199  10.393  0.1451  0.0622  0.0969
32726W        W39176  18.258   1.333   4.295 -0.1812  0.0671  0.1836
32727W        W39177  10.372   6.496   4.665 -0.1265  0.4513 -0.0124
32728W        W39178  18.603   2.175  23.792  0.2962  0.1749 -0.3134
32729W        W39179   6.688   7.432  32.624 -0.0942  0.1222  0.1247
32730W        W39180   1.611   6.411  29.951  0.2360  0.1477  0.1026
32731W        W39181  12.458   1.513  21.989 -0.1022  0.4664  0.0781
32732W        W39182  12.700   3.684   6.995 -0.2703  0.1027  0.2068
32733W        W39183   7.883   7.675   3.390  0.2372  0.2758  0.0330
32734W        W39184  21.888   3.010  12.872 -0.1784 -0.1641 -0.0869
32735W        W39185  16.233   5.930  18.156  0.3108  0.1312  0.4154
32736W        W39186  14.736   3.044  15.400 -0.1721 -0.0703 -0.0909
32737W        W39187  13.542   5.429  26.099 -0.2210  0.2703  0.0686
32738W        W39188   5.126   1.217  23.789  0.0612 -0.0277 -0.0107
32739W        W39189  15.070   3.464   8.163  0.1196 -0.3551 -0.1708
32740W        W39190  19.833   7.186   1.954  0.2941  0.0562 -0.1890
32741W        W39191  21.797   7.531  27.596  0.0862  0.3795 -0.1675
32742W        W39192  22.538   3.232  27.615  0.1656  0.0528  0.0819
32743W        W39193   2.413   4.346  28.668  0.0302  0.0562  0.1993
32744W        W39194   5.339   1.851  13.382 -0.0342  0.0473  0.0047
32745W        W39195   4.159   6.152  28.141 -0.0634 -0.0639 -0.0630
32746W        W39196   9.579   7.571   0.197 -0.1219  0.0831 -0.4586
32747W        W39197   5.094   1.185  18.517  0.0004  0.0485 -0.0201
32748W        W39198  16.799   6.605   3.991  0.0537 -0.1067  0.1972
32749W        W39199   4.491   6.795  31.311 -0.1027 -0.0903 -0.3459
32750W        W39200   7.785   5.956  28.185 -0.0870 -0.2828  0.0226
32751W        W39201  14.652   0.619   7.116 -0.1143 -0.0477 -0.0741
32752W        W39202  21.697   2.719   7.616 -0.0534 -0.0843 -0.1294
32753W        W39203   7.107   1.389  10.001  0.0145 -0.2314 -0.1361
32754W        W39204  22.750   7.497  11.369 -0.0043 -0.0440  0.1842
32755W        W39205  23.645   6.350  10.460  0.1341  0.2330  0.2368
32756W        W39206  11.722   2.464  25.882 -0.1120  0.1937  0.0864
32757W        W39207   7.901   6.621  30.926  0.0619  0.4188 -0.4010
32758W        W39208   2.810   0.095  31.837  0.1839 -0.1809 -0.1237
32759W        W39209  15.630   5.082  30.741 -0.3180 -0.0242  0.3605
32760W        W39210  19.072   5.693  25.559 -0.1846  0.1277  0.0513
32761W        W39211   2.011   0.589  31.920 -0.0907 -0.0873 -0.1387
32762W        W39212  22.008   1.901  24.436 -0.1872 -0.2327 -0.0174
32763W        W39213   8.769   3.948   3.300 -0.3371  0.2462  0.0638
32764W        W39214   3.991   4.197  26.729 -0.0174  0.0159 -0.1063
32765W        W39215  15.440   0.445  10.536 -0.0176 -0.2900 -0.1650
32766W        W39216  15.892   5.020  19.012  0.1436 -0.2154  0.1563
32767W        W39217  14.078   6.823  30.582  0.0495  0.1957 -0.1526
32768W        W39218  14.397   2.709   3.586 -0.4006  0.1993  0.1504
32769W        W39219   7.090   4.932  13.052 -0.1076 -0.1105  0.1515
32770W        W39220  11.808   0.944   2.446  0.0867 -0.0883  0.1885
32771W        W39221  16.370   3.123  20.011 -0.1001 -0.1681  0.0072
32772W        W39222  16.340   6.384   7.472 -0.0430 -0.0102 -0.1899
32773W        W39223   9.280   1.862  28.724 -0.1515 -0.2215  0.0523
32774W        W39224  24.337   6.089  10.854  0.0876  0.0127 -0.1364
32775W        W39225   6.232   5.753  32.716  0.0928 -0.1750  0.0449
32776W        W39226  14.700   5.548  32.692  0.2384  0.0497  0.0657
32777W        W39227   3.758   6.195  26.129  0.3636  0.1274  0.1547
32778W        W39228   6.975   2.987  16.671 -0.1771 -0.4350  0.0224
32779W        W39229  13.196   5.052   8.111  0.3020 -0.4640 -0.4042
32780W        W39230  21.292   4.985  20.161  0.2443  0.0841 -0.1985
32781W        W39231  23.910   6.586   5.547  0.1039 -0.1184 -0.0384
32782W        W39232  19.758   3.994  10.085 -0.0238  0.1621  0.1717
32783W        W39233  24.518   3.187  13.365  0.0988 -0.0274  0.2016
32784W        W39234  17.542   2.220  20.186  0.2264 -0.0473  0.0640
32785W        W39235   2.708   1.488   2.667 -0.0383  0.1504  0.1816
32786W        W39236  17.520   5.635  30.313  0.0879  0.1709  0.0952
32787W        W39237   3.620   3.149  23.390 -0.4553  0.1324 -0.0758
32788W        W39238   5.889   3.938  11.944 -0.0635 -0.0976 -0.2028
32789W        W39239  12.635   4.350  16.059  0.0312 -0.0368  0.1150
32790W        W39240   8.423   2.176  29.425  0.0391  0.2250 -0.4166
32791W        W39241  11.995   5.262  22.143 -0.0102  0.2362  0.0445
32792W        W39242   8.555   4.014  29.088 -0.0551 -0.1920  0.0372
32793W        W39243  14.015   6.684  17.854 -0.0101  0.2496 -0.1607
32794W        W39244  21.687   2.690   3.262  0.0619 -0.1184 -0.3723
32795W        W39245  15.103   3.619  10.157  0.1291  0.0062 -0.0632
32796W        W39246   7.553   5.020  26.405  0.1759 -0.2310 -0.0301
32797W        W39247  20.048   0.520   8.660 -0.2626 -0.0847 -0.1291
32798W        W39248   7.233   5.759  23.855  0.3761  0.4800  0.1062
32799W        W39249   2.278   6.235   6.293  0.1350  0.0053  0.0480
32800W        W39250   1.511   6.622  28.047 -0.0689  0.1127  0.1448
32801W        W39251   2.907   0.323  16.891 -0.1918 -0.0937 -0.1232
32802W        W39252  15.068   7.069  31.382  0.3419 -0.0511  0.0895
32803W        W39253  17.174   2.926  16.391 -0.1212  0.3524  0.2268
32804W        W39254   9.428   2.246  31.623 -0.0541 -0.2869  0.2050
32805W        W39255  24.160   6.012  25.280  0.0565 -0.0204  0.1915
32806W        W39256  15.381   4.782  28.389  0.2543  0.0225  0.0548
32807W        W39257  16.387   3.013  23.400 -0.0230  0.2339  0.0186
32808W        W39258  12.791   4.755  26.884 -0.1088  0.1943 -0.2314
32809W        W39259   8.856   2.510   1.475  0.1597  0.2114 -0.2130
32810W        W39260   9.703   4.129   4.860  0.1174 -0.0040 -0.1674
32811W        W39261  13.739   4.530  10.585 -0.1601  0.0669  0.0266
32812W        W39262  24.672   0.993  25.120  0.2115  0.1243  0.0268
32813W        W39263   1.886   7.350   6.633  0.0229 -0.0686  0.3136
32814W        W39264  20.360   2.958   9.196  0.3471 -0.0355  0.1382
32815W        W39265  19.804   0.510  26.781  0.0076  0.0905 -0.3513
32816W        W39266  14.658   6.878   4.254  0.0931 -0.1335 -0.3715
32817W        W39267  21.072   0.206  29.986  0.1519  0.0698 -0.2332
32818W        W39268  17.419   3.904   3.373 -0.1775  0.0236 -0.1214
32819W        W39269  14.240   2.829   1.290 -0.1699  0.1672 -0.0081
32820W        W39270   6.289   7.288  22.255 -0.2107  0.1041  0.0148
32821W        W39271  14.477   6.244  21.013 -0.0077 -0.1450  0.0919
32822W        W39272   3.993   4.018  23.707  0.1759  0.1412  0.0384
32823W        W39273   1.706   1.893  17.349 -0.1184 -0.2751  0.1230
32824W        W39274  24.355   1.790  11.209 -0.2281  0.0382  0.0470
32825W        W39275  15.161   6.291   9.393  0.3106 -0.2724 -0.1090
32826W        W39276   4.461   0.841  24.559  0.1504 -0.0681  0.3494
32827W        W39277  19.292   5.726  19.549 -0.1172  0.2087  0.1062
32828W        W39278  20.604   4.431  27.099 -0.2730  0.2333  0.0074
32829W        W39279  16.747   3.020   9.361  0.0565  0.3084 -0.0769
32830W        W39280   9.473   6.138   2.381  0.2835  0.1993 -0.0595
32831W        W39281  13.759   4.156  24.610 -0.0595  0.0884 -0.3099
32832W        W39282  23.243   0.828   1.834 -0.1767 -0.0962  0.0957
32833W        W39283   5.189   3.210   0.527  0.1654 -0.1388  0.0439
32834W        W39284  14.465   6.781  26.297  0.2313  0.0602  0.2176
32835W        W39285   3.313   1.261  27.771  0.2421 -0.0308 -0.2235
32836W        W39286  18.520   3.780  23.837 -0.4688 -0.2539  0.0412
32837W        W39287  20.261   3.632  20.303  0.1746 -0.1922 -0.3079
32838W        W39288   4.799   4.317  16.830 -0.4947  0.1194 -0.0974
32839W        W39289  21.212   5.714   7.085  0.0129  0.0525  0.0717
32840W        W39290   8.107   0.291  31.701  0.0597  0.2396  0.0598
32841W        W39291   2.958   1.824  32.177  0.2693  0.5241 -0.1173
32842W        W39292  13.983   4.988  21.010  0.0968  0.1319  0.1542
32843W        W39293  17.757   7.583  20.963  0.5700  0.1926 -0.0417
32844W        W39294  12.556   6.645  31.970 -0.0387 -0.0230 -0.0514
32845W        W39295  15.331   2.169   5.137 -0.0124 -0.2951  0.3302
32846W        W39296  15.690   7.615  17.057 -0.0233 -0.1873 -0.2110
32847W        W39297  11.594   7.353  23.177 -0.0593 -0.0691 -0.2481
32848W        W39298  23.323   3.471   4.740 -0.0310  0.0267 -0.2157
32849W        W39299  20.796   2.729  25.652 -0.0568 -0.3971 -0.1215
32850W        W39300  15.859   1.017  24.196  0.1793  0.3111  0.0696
32851W        W39301  16.525   3.221  16.913 -0.2225  0.0054 -0.2378
32852W        W39302  11.014   2.416   9.059  0.0625 -0.0646 -0.1271
32853W        W39303  17.069   0.432  31.602  0.0954  0.1600 -0.0171
32854W        W39304   0.315   6.227  25.570 -0.0140 -0.3043 -0.1132
32855W        W39305  14.547   4.359   9.068 -0.2756 -0.0059 -0.0825
32856W        W39306  13.447   2.966  29.630 -0.0655  0.0281  0.0382
32857W        W39307   6.810   4.410  24.218  0.0826  0.0953  0.0333
32858W        W39308   3.371   4.759  31.272 -0.1601 -0.0346 -0.2157
32859W        W39309  13.030   1.820   9.297 -0.1463  0.1315  0.0081
32860W        W39310  17.881   0.293   7.035 -0.0247 -0.1819 -0.0028
32861W        W39311   9.668   6.056  29.123  0.1249 -0.0686  0.5027
32862W        W39312   6.496   7.188   0.039 -0.0409 -0.1840 -0.0086
32863W        W39313  10.078   2.562  32.575 -0.2247 -0.1600 -0.1582
32864W        W39314   6.291   2.810  16.139 -0.0733  0.2289  0.0171
32865W        W39315   1.365   3.957  12.004 -0.1414 -0.0398  0.1426
32866W        W39316  23.797   7.146  10.020  0.0989  0.2888  0.1978
32867W        W39317  19.423   5.187  30.595  0.2086  0.3217 -0.1136
32868W        W39318  17.062   3.522  20.289 -0.3724 -0.0276  0.0279
32869W        W39319  15.222   6.538   0.468  0.0663 -0.0369 -0.1098
32870W        W39320  11.299   3.958   8.892  0.2144  0.0738 -0.0651
32871W        W39321   4.894   4.051  13.435 -0.1403 -0.1602  0.0191
32872W        W39322  19.399   3.927  26.182  0.0392 -0.0632  0.0925
32873W        W39323   0.884   3.161   5.740  0.2202  0.1004 -0.0867
32874W        W39324   5.672   3.404   9.751 -0.2905 -0.0077 -0.0306
32875W        W39325  24.742   6.628   9.645 -0.0414 -0.0400 -0.0519
32876W        W39326  14.344   4.098  17.001  0.2052  0.1641  0.0456
32877W        W39327  17.993   5.959  23.425 -0.0914  0.2628  0.0189
32878W        W39328  24.084   0.609   5.618 -0.1559 -0.0127  0.2079
32879W        W39329  16.341   0.194  32.177 -0.0535 -0.1708  0.1628
32880W        W39330   5.799   2.730  31.338  0.0978  0.0317  0.2593
32881W        W39331   6.008   4.303  10.092  0.0176  0.0262 -0.2878
32882W        W39332   3.821   5.801   1.327  0.1017 -0.0610  0.0078
32883W        W39333   4.118   2.723  14.469 -0.0061 -0.2829 -0.3572
32884W        W39334   5.855   5.054  31.056 -0.0014  0.0050 -0.1817
32885W        W39335  16.981   0.604   2.638 -0.0889 -0.2270 -0.1023
32886W        W39336  16.251   0.502   1.296  0.1819 -0.0640 -0.0827
32887W        W39337  10.264   1.291   1.074  0.1381 -0.1363 -0.0499
32888W        W39338  22.812   3.568  11.484 -0.2043 -0.1005  0.1776
32889W        W39339  23.147   0.222  32.530 -0.3361 -0.3073  0.0491
32890W        W39340   8.261   3.392  31.503  0.1072  0.1092 -0.0179
32891W        W39341  10.715   6.936   4.850  0.2188 -0.1773 -0.3408
32892W        W39342   4.577   7.074  12.520 -0.1315 -0.0436 -0.1268
32893W        W39343   1.879   1.441  27.894 -0.0649  0.0463  0.0588
32894W        W39344  11.282   1.439  10.421 -0.0680 -0.2894 -0.1280
32895W        W39345  16.550   5.948   0.674  0.0914  0.0277  0.0725
32896W        W39346  14.569   2.368  17.691  0.2870 -0.0400 -0.3772
32897W        W39347  23.365   6.633  32.744 -0.1143 -0.4139 -0.0506
32898W        W39348  15.798   0.237  23.582  0.0149 -0.0165  0.0866
32899W        W39349  13.736   1.219  19.422  0.1234  0.3108 -0.1455
32900W        W39350  15.634   6.086   7.056  0.0417 -0.0415  0.3024
32901W        W39351  22.223   2.282  31.860 -0.0491 -0.2191 -0.0181
32902W        W39352   5.887   5.871  25.641  0.1470 -0.2287  0.1456
32903W        W39353  21.883   4.752   6.805 -0.0368  0.2614  0.4405
32904W        W39354  12.862   4.734  27.387  0.2384 -0.1426  0.0096
32905W        W39355  21.473   7.695  10.899  0.2584 -0.1224  0.1057
32906W        W39356  17.521   5.435   0.937 -0.1770 -0.0966 -0.1344
32907W        W39357   1.233   3.311  24.118  0.0928  0.1839 -0.2373
32908W        W39358   4.998   4.984  10.082  0.0490 -0.2661  0.0930
32909W        W39359  19.606   1.984   7.851  0.1249  0.0344 -0.4484
32910W        W39360   2.747   0.998  14.565 -0.2354 -0.2425  0.0338
32911W        W39361   6.395   4.956   2.087 -0.0494  0.0234 -0.0044
32912W        W39362   9.157   6.731  13.487 -0.3156  0.3256  0.2102
32913W        W39363   2.906   1.594  11.584 -0.2074  0.2948  0.2063
32914W        W39364  10.194   4.591   3.858 -0.2659  0.0532  0.2164
32915W        W39365  15.474   3.086   9.009  0.1924 -0.2682  0.2094
32916W        W39366  11.516   2.024  29.268 -0.1876  0.0847 -0.6551
32917W        W39367  24.343   6.243   5.877 -0.1624 -0.0542  0.0458
32918W        W39368  15.815   6.692  27.329 -0.1765  0.3614 -0.1320
32919W        W39369   8.027   5.888   6.914  0.1192  0.0549  0.0827
32920W        W39370  22.655   0.121  11.666 -0.0063  0.3831 -0.0981
32921W        W39371  11.514   6.874  22.206 -0.2730  0.1216 -0.0469
32922W        W39372  14.427   5.854  21.420 -0.2427 -0.0333  0.1071
32923W        W39373  17.455   7.385  31.705  0.0357  0.0346 -0.0240
32924W        W39374   6.129   7.104  28.268 -0.3364  0.1058 -0.0774
32925W        W39375  15.326   4.417  20.525  0.0079  0.0586 -0.2129
32926W        W39376  17.456   3.424  26.399  0.4926 -0.1552  0.1657
32927W        W39377   0.844   3.076  10.296 -0.3791  0.0749  0.1777
32928W        W39378  22.588   1.049  10.628 -0.0314 -0.0264  0.2195
32929W        W39379  24.135   0.121  12.497  0.0142 -0.0475  0.1348
32930W        W39380  14.421   5.568   1.048  0.0600  0.0538  0.1392
32931W        W39381   5.586   5.862   7.468 -0.2767  0.2591  0.0475
32932W        W39382  10.324   5.352  26.095  0.0304  0.0755  0.0312
32933W        W39383  21.625   0.265   0.478  0.3088  0.2572 -0.0387
32934W        W39384  20.388   1.399  26.796 -0.1219  0.1585 -0.1141
32935W        W39385  15.279   6.112   2.117  0.0238 -0.2304  0.1612
32936W        W39386   5.032   1.508   4.685  0.0455 -0.1459 -0.2447
32937W        W39387  21.127   0.890  30.239 -0.0719  0.0893 -0.0099
32938W        W39388  18.347   0.010  30.293 -0.2370  0.0141 -0.0630
32939W        W39389   7.185   2.898  14.928 -0.0733 -0.3373 -0.3295
32940W        W39390   3.693   5.407  27.930 -0.0551 -0.0921  0.3212
32941W        W39391  21.605   3.332  26.025  0.0769  0.3235  0.1408
32942W        W39392   5.463   2.624  30.399 -0.3133 -0.2020 -0.1096
32943W        W39393  15.334   1.736  26.877  0.1554  0.1191  0.1569
32944W        W39394  10.634   0.865  25.600  0.0833  0.1635  0.0527
32945W        W39395  21.488   1.098  19.152 -0.0590 -0.1360 -0.0456
32946W        W39396  22.495   7.528   8.214  0.2148  0.2387 -0.1066
32947W        W39397  18.563   5.830   3.935 -0.2028 -0.2022 -0.2705
32948W        W39398   3.960   7.131   2.615  0.0034  0.0104  0.2928
32949W        W39399   5.757   3.949  32.672 -0.0858 -0.3156 -0.2235
32950W        W39400  13.317   2.811  18.137  0.2107 -0.1526  0.0867
32951W        W39401  13.883   3.432   2.504 -0.0353 -0.0429  0.2291
32952W        W39402  15.189   5.952  19.894 -0.0695  0.2531  0.2952
32953W        W39403   2.688   2.339   8.358  0.1410 -0.1761  0.2923
32954W        W39404   6.103   0.799   8.602  0.2064  0.0386  0.2914
32955W        W39405   9.663   6.274   8.562  0.0128  0.1483  0.0531
32956W        W39406  24.912   2.272  30.510 -0.0751  0.0485  0.0029
32957W        W39407  19.911   6.855   6.345  0.1738  0.5317 -0.2555
32958W        W39408   6.475   5.683   6.662  0.0431  0.1103 -0.0723
32959W        W39409  16.965   1.252  19.893  0.0087 -0.3129  0.2031
32960W        W39410  10.697   6.755   5.721  0.2644 -0.2036  0.1383
32961W        W39411   1.547   1.070   6.935  0.0446  0.4424 -0.2944
32962W        W39412  21.852   4.190  18.946  0.1252  0.1759 -0.0908
32963W        W39413   2.111   1.500  10.145  0.0306 -0.1940 -0.0129
32964W        W39414   8.971   0.939  30.873  0.1411 -0.4394  0.1343
32965W        W39415  10.752   5.070  11.074 -0.0280  0.1199  0.0974
32966W        W39416  16.461   2.779  15.558  0.0699 -0.1207 -0.1028
32967W        W39417   4.781   5.955  30.023  0.1026 -0.2610  0.4506
32968W        W39418  22.786   0.489   7.413  0.0961  0.2352 -0.1438
32969W        W39419  21.389   2.112  25.702 -0.1408  0.0963  0.0334
32970W        W39420   1.065   6.685  13.764  0.0651 -0.3468 -0.1501
32971W        W39421  19.265   3.491  16.606  0.3045 -0.2655 -0.1927
32972W        W39422   6.438   3.028   5.519 -0.1301 -0.1060 -0.1220
32973W        W39423   2.259   2.873  32.501 -0.0727  0.3263 -0.0649
32974W        W39424  21.959   3.405  20.783  0.0657 -0.0747 -0.1672
32975W        W39425  15.027   5.218   0.439  0.2196  0.0718 -0.0681
32976W        W39426  20.030   7.283   9.497 -0.0179  0.1435 -0.0981
32977W        W39427  17.726   4.214   1.971 -0.1488 -0.0641  0.1143
32978W        W39428  19.804   2.112   6.149 -0.2176 -0.1198 -0.2901
32979W        W39429   4.473   3.038   2.662  0.3456 -0.0887 -0.2891
32980W        W39430   6.045   0.831   8.129 -0.0172 -0.2241  0.0215
32981W        W39431  18.441   1.453  30.031  0.0135 -0.1254  0.1177
32982W        W39432  23.332   3.469  25.715 -0.0239 -0.1345  0.2007
32983W        W39433  16.032   2.757  23.620 -0.0520  0.0819 -0.0838
32984W        W39434  13.390   5.876   3.797 -0.1032  0.0058 -0.0105
32985W        W39435  15.231   1.388  24.069  0.0929 -0.0179  0.3087
32986W        W39436   0.532   1.234  27.634  0.1721  0.1179  0.0848
32987W        W39437  20.745   5.280   7.924 -0.2638 -0.1003 -0.2650
32988W        W39438  23.153   1.106  12.564  0.1304  0.3279  0.3453
32989W        W39439  15.191   4.068  15.203 -0.0233  0.0099  0.0017
32990W        W39440   7.522   5.399   0.043  0.1258 -0.2031  0.1145
32991W        W39441  17.687   5.584  28.666  0.0140  0.0229 -0.1676
32992W        W39442  17.763   7.746  26.512  0.1693  0.2078  0.1146
32993W        W39443   2.318   6.631  31.302  0.1770  0.0842 -0.3927
32994W        W39444   4.409   0.104   9.187  0.1612  0.2167  0.0802
32995W        W39445  11.484   7.030  30.263  0.0239 -0.0264  0.2694
32996W        W39446   8.296   7.054   0.549  0.0947 -0.2858 -0.0913
32997W        W39447   2.391   0.411  11.526  0.0929 -0.1192  0.0239
32998W        W39448  12.636   0.394  23.846 -0.0715 -0.2035  0.3073
32999W        W39449   6.664   0.452  16.133 -0.2352 -0.1445  0.0082
33000W        W39450  11.757   0.771   0.737 -0.1551 -0.1070  0.0055
33001W        W39451  21.691   2.087  27.199  0.0665 -0.1788  0.0245
33002W        W39452   3.384   2.870  31.838  0.0584  0.1920 -0.2070
33003W        W39453   5.666   6.512  18.276 -0.1081 -0.1649 -0.1096
33004W        W39454   9.099   1.350   2.952 -0.0072 -0.0155 -0.0217
33005W        W39455  19.647   0.704  26.332  0.0743  0.0655 -0.0835
33006W        W39456   6.922   4.018   2.164 -0.0664 -0.0479  0.1853
33007W        W39457  14.572   2.804  17.977 -0.2222  0.0293 -0.1867
33008W        W39458  12.156   4.516  25.623 -0.1472  0.1324 -0.2945
33009W        W39459  12.649   2.532  17.963 -0.1793  0.0046 -0.1605
33010W        W39460  14.827   4.986   6.908 -0.1009  0.0958  0.0376
33011W        W39461   0.621   3.687  11.251 -0.0574  0.2513 -0.0582
33012W        W39462  18.268   5.857   9.179  0.1647 -0.0164 -0.1134
33013W        W39463   3.628   7.225   3.087 -0.0638 -0.0171  0.2098
33014W        W39464  18.337   1.559  28.361  0.2443 -0.0806  0.1155
33015W        W39465  21.394   6.742  28.463 -0.3625  0.3340  0.3707
33016W        W39466   7.230   4.312  10.634 -0.1747  0.0459  0.0884
33017W        W39467  12.419   6.828  28.640  0.0134 -0.0663  0.0127
33018W        W39468   2.011   2.153  12.065 -0.1068  0.1213 -0.0010
33019W        W39469   9.145   5.882   2.095 -0.1651 -0.0068  0.0217
33020W        W39470  18.789   5.300   8.453 -0.1819 -0.0216  0.0120
33021W        W39471  10.109   7.261  25.076 -0.4033 -0.1918 -0.1303
33022W        W39472  18.173   5.251  32.744  0.0326  0.3570 -0.3460
33023W        W39473   9.385   4.846  21.840  0.0100  0.0709  0.1775
33024W        W39474  23.196   0.401  21.911 -0.0121  0.1992 -0.1745
33025W        W39475  22.758   2.748  29.639  0.0571 -0.0627 -0.1440
33026W        W39476  18.671   3.049  29.142 -0.2312  0.1988 -0.0017
33027W        W39477  16.527   6.157  24.597 -0.0673  0.2871 -0.1356
33028W        W39478  21.707   1.120   2.501 -0.0696  0.2049  0.0483
33029W        W39479  14.939   6.745  23.587  0.1221 -0.0259 -0.3270
33030W        W39480  12.717   0.098   1.953 -0.0155 -0.0762  0.1009
33031W        W39481  21.439   4.101   9.038 -0.1160  0.2450 -0.1498
33032W        W39482  19.189   7.590  18.783 -0.0978  0.0479  0.1779
33033W        W39483   7.718   1.629   8.560  0.0525 -0.2950  0.0908
33034W        W39484  15.200   5.824  16.233  0.4887  0.0308 -0.0183
33035W        W39485   7.454   4.737  24.659  0.2732  0.0918  0.0025
33036W        W39486   4.884   3.710   5.795  0.0235 -0.1619 -0.0039
33037W        W39487  24.792   6.039  23.365  0.0517 -0.1414  0.2259
33038W        W39488  10.407   3.318  26.969  0.2466 -0.1284 -0.1454
33039W        W39489   0.421   3.319  13.467 -0.2519  0.2338  0.3477
33040W        W39490  16.094   3.697  19.158 -0.2214 -0.1211 -0.1095
33041W        W39491  13.799   2.568   1.130  0.0111  0.0492  0.1389
33042W        W39492   4.033   1.989   9.673  0.3340  0.2381  0.2163
33043W        W39493  17.882   1.848  27.232 -0.0345 -0.2878  0.2795
33044W        W39494  10.629   3.132   1.082  0.2650 -0.1808  0.0689
33045W        W39495   3.444   3.088  14.865 -0.0837 -0.0954 -0.3123
33046W        W39496   6.066   3.785  11.016 -0.1722 -0.0355  0.1162
33047W        W39497  11.400   5.691  27.554 -0.2128  0.1465  0.0311
33048W        W39498   0.315   1.030  15.503  0.1029 -0.2046  0.4601
33049W        W39499  15.125   6.533   6.723  0.0646 -0.0528  0.1848
33050W        W39500  10.105   1.504  22.480  0.1526  0.2459  0.1181
33051W        W39501   1.665   3.720  12.368  0.0338 -0.0461 -0.1402
33052W        W39502   1.663   6.691   7.546  0.0602 -0.3779 -0.3075
33053W        W39503  17.293   0.238  19.847  0.0437 -0.2666  0.0146
33054W        W39504  15.419   5.400   1.621  0.1582 -0.2261  0.2967
33055W        W39505  23.745   5.289   3.408  0.1084  0.0880 -0.1956
33056W        W39506   5.003   0.643  29.086  0.2740 -0.0392 -0.1489
33057W        W39507   8.548   6.645   6.907 -0.3421 -0.1546  0.1935
33058W        W39508  19.100   4.607  19.022  0.2649 -0.0882 -0.3984
33059W        W39509  11.156   4.371  11.775 -0.1202 -0.1251  0.3463
33060W        W39510  21.623   3.155  22.588 -0.1047  0.2248  0.2997
33061W        W39511  13.420   3.117  19.561 -0.0844 -0.2147 -0.1087
33062W        W39512  16.721   6.807  27.947 -0.0055 -0.1863 -0.1787
33063W        W39513   1.363   5.222  10.472 -0.1795 -0.0122  0.0934
33064W        W39514  18.746   1.744  22.910 -0.0540 -0.0399 -0.1231
33065W        W39515  17.248   4.713  25.137  0.0112  0.3309  0.1250
33066W        W39516  17.832   4.226   0.192 -0.0683 -0.0901  0.0106
33067W        W39517  10.607   0.278   2.427  0.2692 -0.3057  0.0166
33068W        W39518   4.161   0.586  12.822 -0.4204  0.0698 -0.2112
33069W        W39519   2.456   3.497   3.490  0.0228 -0.0627 -0.0424
33070W        W39520  11.950   6.666  21.387  0.0575  0.0665  0.2319
33071W        W39521  24.033   2.447  12.418  0.1089  0.0632 -0.1248
33072W        W39522  20.872   4.877   5.395  0.0253  0.0111 -0.0822
33073W        W39523  22.571   7.351   2.715  0.1365 -0.0676 -0.0060
33074W        W39524   7.514   6.963  16.398  0.3382 -0.1435  0.2228
33075W        W39525  15.500   7.194  17.982  0.1229 -0.0547 -0.0139
33076W        W39526  15.661   0.475  26.398 -0.1858  0.0706  0.1247
33077W        W39527  21.151   7.244  20.265 -0.2199 -0.1184 -0.0464
33078W        W39528   0.233   6.395   4.757  0.0554  0.0960  0.1016
33079W        W39529  23.028   1.760  24.845  0.0632  0.0357 -0.0394
33080W        W39530   5.515   0.993   4.038  0.2177 -0.0111 -0.0614
33081W        W39531   8.749   7.544  26.860  0.0082 -0.1300 -0.0868
33082W        W39532   7.907   4.520   3.141 -0.0128  0.0828  0.0184
33083W        W39533   9.399   0.694  27.326  0.4452  0.0314 -0.1221
33084W        W39534   7.731   2.696  24.059 -0.0258  0.3524  0.1071
33085W        W39535   1.509   2.468   6.450  0.0628  0.1508 -0.0605
33086W        W39536   8.708   4.912  28.980 -0.2148 -0.0745  0.0705
33087W        W39537   3.352   3.925  32.623  0.2128  0.4019  0.1945
33088W        W39538  22.917   2.413   3.382  0.0361  0.0964  0.0123
33089W        W39539   7.846   7.579   5.420 -0.5751 -0.0705 -0.1458
33090W        W39540  24.146   1.757   2.401  0.0664  0.0200  0.0136
33091W        W39541  24.745   1.371   4.185  0.2949 -0.2386  0.0112
33092W        W39542  17.526   7.415  17.582  0.2102 -0.0968  0.2008
33093W        W39543  13.873   0.907  19.834 -0.0855  0.2123  0.3006
33094W        W39544  13.244   0.596  26.899 -0.0483 -0.1750  0.6201
33095W        W39545   2.818   0.731  15.714 -0.1949  0.0905 -0.2319
33096W        W39546   6.196   4.053  15.804 -0.1517  0.0586 -0.1414
33097W        W39547   8.328   1.849  28.484  0.0624  0.0303  0.1617
33098W        W39548  10.829   2.249   5.580 -0.0455 -0.0683 -0.1295
33099W        W39549   6.040   2.998   7.490 -0.0328 -0.0188  0.0696
33100W        W39550  14.188   7.014   4.100 -0.1189 -0.1022 -0.1512
33101W        W39551  21.412   6.473  11.092  0.0140 -0.1147 -0.0644
33102W        W39552   6.507   0.564   3.757 -0.0904  0.2189 -0.2246
33103W        W39553  16.123   7.077   5.828 -0.0078  0.1405  0.1581
33104W        W39554   8.565   0.576   3.404 -0.1544  0.0388  0.0116
33105W        W39555  18.853   5.917  27.072  0.2084  0.0271 -0.0571
33106W        W39556  12.674   0.389  30.777 -0.3057 -0.0812 -0.1225
33107W        W39557  11.816   1.673  11.120 -0.1050 -0.1463  0.2492
33108W        W39558   3.671   2.976   0.597 -0.1862 -0.0152  0.2954
33109W        W39559   4.514   0.528  18.313  0.2867 -0.0163  0.2245
33110W        W39560  18.944   4.453   3.708  0.0304  0.0636  0.0951
33111W        W39561  18.657   4.676   0.206 -0.0016  0.0233  0.0138
33112W        W39562   5.684   1.399   3.259  0.2524  0.0236  0.1125
33113W        W39563  16.035   0.739  27.473  0.2203 -0.2616  0.0360
33114W        W39564   4.328   3.284  30.890  0.0904 -0.0903  0.1180
33115W        W39565  21.478   1.603   5.996  0.0368 -0.0530 -0.0041
33116W        W39566   9.357   7.638  20.653 -0.0453 -0.1229 -0.1989
33117W        W39567  13.075   3.320  29.705  0.0085 -0.2305 -0.1770
33118W        W39568  17.977   3.943  18.598  0.1348  0.0482 -0.2668
33119W        W39569   0.182   6.891  28.631 -0.2216  0.1438  0.1949
33120W        W39570  12.687   2.295   4.626 -0.2965 -0.2830  0.1329
33121W        W39571   8.292   1.933   7.510 -0.0563 -0.1982  0.0105
33122W        W39572   9.015   7.444  21.726 -0.1617  0.0508  0.0498
33123W        W39573  16.873   4.775  20.348  0.0432  0.1233  0.0139
33124W        W39574   1.289   0.435   0.608 -0.0782 -0.0675  0.0497
33125W        W39575  21.610   7.652  19.660 -0.0171 -0.3144  0.1209
33126W        W39576  24.448   1.763  12.484  0.0318 -0.0538 -0.0100
33127W        W39577  14.978   4.117  31.766 -0.0514 -0.1846  0.2175
33128W        W39578  22.237   5.697  29.216 -0.2659  0.4301  0.0426
33129W        W39579  11.623   7.751  21.411 -0.1423 -0.0970  0.1334
33130W        W39580  13.256   4.660  17.871 -0.0100  0.0464 -0.0937
33131W        W39581   9.121   4.340   9.355  0.1489  0.1785  0.0679
33132W        W39582  23.688   0.235  12.455  0.0968  0.0114 -0.1156
33133W        W39583  12.312   1.439  18.886 -0.2831  0.3839 -0.0905
33134W        W39584  10.795   7.584  31.829 -0.3798 -0.1389 -0.3695
33135W        W39585  24.249   0.040   2.337 -0.0940  0.1537  0.1449
33136W        W39586   5.291   4.221  14.807  0.1740  0.0538 -0.0745
33137W        W39587   8.279   5.934  15.916  0.1742 -0.2332  0.2759
33138W        W39588   5.121   5.643   0.852 -0.3382  0.2657 -0.1083
33139W        W39589  24.712   5.770   4.089 -0.0719  0.1652  0.0734
33140W        W39590  15.790   4.278   7.770  0.0880  0.2379 -0.2603
33141W        W39591  17.269   3.887  18.878 -0.2534 -0.0771  0.1905
33142W        W39592  12.405   0.449  22.809  0.2443 -0.1462  0.0809
33143W        W39593   0.527   5.515   3.738 -0.1550  0.1910  0.0388
33144W        W39594  22.284   3.181  13.244  0.1928 -0.3110  0.4197
33145W        W39595   1.580   6.012  23.452 -0.0978  0.0302  0.0910
33146W        W39596  24.835   2.321  13.906 -0.1376  0.0485  0.2039
33147W        W39597  24.447   0.662  21.785  0.1659 -0.2008 -0.1803
33148W        W39598   1.315   5.880   6.241  0.3001 -0.2313 -0.1237
33149W        W39599  10.084   4.040   9.380  0.0324  0.2673 -0.0854
33150W        W39600  10.402   2.014  30.758  0.0911  0.0320 -0.4415
33151W        W39601   6.394   1.787  11.890 -0.1469  0.1442  0.0120
33152W        W39602  22.285   7.287  21.640  0.2726  0.0964 -0.1984
33153W        W39603   1.643   4.992  31.867  0.0521  0.3120  0.0283
33154W        W39604  14.324   7.429  18.250 -0.3613 -0.0156 -0.0898
33155W        W39605   7.755   1.603  32.237  0.1271 -0.0833 -0.0690
33156W        W39606  23.615   6.247   8.873  0.0937 -0.1208  0.0696
33157W        W39607   2.668   4.088  12.875 -0.0335  0.1139  0.2985
33158W        W39608  11.663   6.716  32.266  0.2361  0.1867  0.0163
33159W        W39609  19.473   3.399   8.983 -0.0410 -0.1066 -0.1849
33160W        W39610  22.164   5.906  19.360 -0.1959  0.2321 -0.3195
33161W        W39611   1.780   4.394  25.755  0.4005  0.0087  0.0625
33162W        W39612  14.557   2.194  19.928  0.0210  0.0536  0.0714
33163W        W39613  22.889   0.826   4.475 -0.0059 -0.0024 -0.2382
33164W        W39614   8.389   0.973  32.246 -0.2072 -0.1949  0.0732
33165W        W39615   7.368   7.225  11.155  0.0650 -0.1891 -0.0613
33166W        W39616   3.687   1.764  23.477  0.0035 -0.0893  0.1182
33167W        W39617   3.467   3.182   2.370 -0.0056 -0.1770  0.0349
33168W        W39618  14.436   2.297   7.701  0.2830 -0.1553 -0.1796
33169W        W39619  21.620   3.516  22.913  0.1237 -0.0598  0.1851
33170W        W39620   7.658   4.487  29.151  0.2506  0.1471  0.2427
33171W        W39621   0.830   0.004   3.540  0.1585  0.0645  0.1237
33172W        W39622  22.737   0.109  20.610  0.0227  0.3920  0.1007
33173W        W39623  18.062   2.142  17.295  0.1666  0.1733  0.1102
33174W        W39624   3.085   2.237  31.154 -0.0257 -0.2216 -0.0272
33175W        W39625   5.652   5.646   5.453 -0.0554  0.0128 -0.0307
33176W        W39626  19.061   7.126  30.692  0.0589 -0.2465 -0.4753
33177W        W39627  17.907   0.249   5.339 -0.3298  0.1381 -0.2321
33178W        W39628  11.052   6.038   1.789 -0.1591 -0.0082 -0.1348
33179W        W39629   8.857   3.357  13.116 -0.0169 -0.3284 -0.1211
33180W        W39630  15.168   3.978  15.730 -0.0465 -0.2841  0.2107
33181W        W39631  13.587   2.652  28.304 -0.4560  0.1062  0.0865
33182W        W39632  19.601   2.981  26.934 -0.1744 -0.0090 -0.3400
33183W        W39633  18.526   3.561  10.356 -0.1397  0.1157 -0.2315
33184W        W39634  10.166   6.124  26.433 -0.0567 -0.1107 -0.3058
33185W        W39635  17.886   3.667  18.147  0.2156  0.0980  0.3879
33186W        W39636   0.032   1.605  27.026 -0.0658 -0.0096  0.1550
33187W        W39637   2.342   2.754  25.258 -0.2922  0.1893  0.1420
33188W        W39638  20.561   5.468  24.437  0.1748 -0.0551  0.1154
33189W        W39639   1.821   4.984  23.734 -0.0160  0.2097 -0.1727
33190W        W39640  16.206   1.632   2.883  0.1174 -0.1638  0.1719
33191W        W39641  24.339   4.573   6.373 -0.0827  0.4086  0.2584
33192W        W39642  21.391   1.943  21.732 -0.3438  0.1733 -0.1418
33193W        W39643  14.080   2.767  31.840 -0.1982  0.0873 -0.0854
33194W        W39644   6.898   1.274  26.914 -0.2977  0.0132 -0.1733
33195W        W39645   1.937   0.114  31.336 -0.1652 -0.1474  0.1630
33196W        W39646   7.604   4.083   3.168 -0.1167 -0.2500 -0.2580
33197W        W39647   5.920   5.458  27.924  0.0844  0.0438 -0.0830
33198W        W39648  19.287   7.738  32.205  0.1315  0.2802 -0.0991
33199W        W39649  16.899   4.535   6.131  0.0263 -0.5667 -0.2456
33200W        W39650  13.248   7.367  23.456 -0.2182 -0.0518  0.1785
33201W        W39651   7.923   6.865   2.032  0.1694  0.0846 -0.2817
33202W        W39652  20.241   2.728   5.150  0.2372  0.0233 -0.0645
33203W        W39653   7.726   6.521   6.886  0.0614  0.2673  0.1345
33204W        W39654  18.477   1.929   0.937  0.2395 -0.0210  0.1305
33205W        W39655  20.019   4.789   8.128  0.1203  0.2662  0.1500
33206W        W39656   4.831   4.075  32.151  0.2341  0.0721  0.1335
33207W        W39657   2.468   3.348  26.526  0.2026 -0.1083 -0.1519
33208W        W39658  13.306   3.920  27.833  0.2767 -0.2767 -0.1630
33209W        W39659   9.367   2.878  32.334  0.4238 -0.1305  0.0119
33210W        W39660  24.309   7.174  32.363  0.1914 -0.0733  0.1517
33211W        W39661   7.376   6.384  26.763 -0.0860 -0.2342  0.0452
33212W        W39662   0.862   2.855  26.586 -0.0215 -0.0223 -0.0210
33213W        W39663  19.898   3.249   5.600 -0.0036  0.0406  0.0432
33214W        W39664  22.880   4.135   9.792 -0.0190  0.3568  0.0519
33215W        W39665  15.268   4.950   7.676 -0.1377 -0.4186  0.1482
33216W        W39666  13.201   4.373  27.560 -0.1716  0.0838  0.0589
33217W        W39667  12.679   0.127   8.999 -0.2193 -0.1377 -0.0983
33218W        W39668  19.055   0.276   7.700  0.0495  0.0012  0.0269
33219W        W39669  20.388   1.451  10.894 -0.1044  0.0429  0.1040
33220W        W39670  16.758   4.941   5.205 -0.1356  0.0787 -0.1834
33221W        W39671   2.027   2.058  25.698  0.0733  0.2282  0.1490
33222W        W39672  12.411   1.013  27.798 -0.0106  0.2333 -0.2034
33223W        W39673   3.092   3.091  31.450  0.0702  0.1763 -0.1010
33224W        W39674   9.170   3.587   9.576 -0.1000 -0.0348  0.1267
33225W        W39675   7.627   1.304  15.188  0.0499  0.0217 -0.0144
33226W        W39676  23.996   2.329  13.710  0.0048  0.1625  0.2027
33227W        W39677   8.648   5.959  24.376  0.3946 -0.1173  0.1910
33228W        W39678  13.951   6.299   6.962 -0.1498 -0.1350 -0.1566
33229W        W39679   9.896   3.738   0.084  0.0511 -0.0749 -0.0306
33230W        W39680   3.793   3.380  26.197 -0.2505 -0.2041 -0.1364
33231W        W39681  13.399   5.285  18.670  0.1729 -0.0888  0.0098
33232W        W39682  24.362   3.933   9.636  0.2116  0.0299 -0.2800
33233W        W39683   1.891   6.486   0.979  0.0391 -0.0635  0.1176
33234W        W39684   7.504   2.422   9.071 -0.0645  0.1524  0.1108
33235W        W39685   1.241   4.089  23.548 -0.0537 -0.1551 -0.0211
33236W        W39686   0.901   6.156  24.189 -0.0384  0.1046 -0.1596
33237W        W39687  21.239   3.792  24.163  0.0870 -0.0125  0.0252
33238W        W39688   9.645   5.880  32.054 -0.0575 -0.2319  0.1535
33239W        W39689  15.506   3.052  22.314 -0.2516  0.4969  0.0257
33240W        W39690  11.177   0.402   9.507  0.0558  0.4027  0.3215
33241W        W39691  15.370   6.947  20.127  0.0272  0.0025  0.0804
33242W        W39692   7.145   7.025  13.418 -0.1043  0.2054 -0.1714
33243W        W39693  16.784   2.282  22.435  0.0716 -0.0162 -0.0009
33244W        W39694  22.728   6.557   7.299 -0.2910  0.1179  0.0290
33245W        W39695  17.267   2.228  31.503  0.1211 -0.0279 -0.0720
33246W        W39696  12.169   2.936  22.217  0.2150  0.1384  0.0710
33247W        W39697   4.616   0.681   2.387 -0.2522 -0.2168 -0.1215
33248W        W39698  16.989   6.457   4.945  0.1460 -0.0759 -0.1665
33249W        W39699   7.090   2.394  16.520  0.2994 -0.2944 -0.1317
33250W        W39700   8.647   0.128  22.555 -0.3859  0.0289 -0.0605
33251W        W39701  21.597   3.549  21.026 -0.0565  0.0824  0.1150
33252W        W39702  16.252   7.578   5.759  0.1567 -0.0862  0.2397
33253W        W39703  13.576   5.859  20.239  0.0995 -0.2485  0.1919
33254W        W39704  10.397   2.856  26.154 -0.1949 -0.1273  0.1318
33255W        W39705  19.050   1.072   8.838 -0.0431  0.0325 -0.1220
33256W        W39706  23.709   1.493   1.505 -0.3275 -0.1210 -0.1208
33257W        W39707  18.180   7.207  10.223  0.0502 -0.1785 -0.3403
33258W        W39708   1.147   3.455  22.761 -0.0106  0.0939 -0.4062
33259W        W39709   0.497   1.175  25.237  0.1688  0.0099  0.0556
33260W        W39710   3.115   2.939  11.716 -0.0794 -0.1834 -0.1544
33261W        W39711   0.927   5.844  27.049 -0.0356  0.1312  0.2603
33262W        W39712  14.415   6.161  32.309 -0.0833 -0.0266 -0.1284
33263W        W39713  24.708   1.912   1.144 -0.1906 -0.3118  0.0206
33264W        W39714  11.359   2.096  23.574  0.0345  0.1778  0.0215
33265W        W39715  24.816   1.325   8.442  0.0331 -0.0105 -0.1827
33266W        W39716   0.490   1.113   4.447  0.1059  0.0326 -0.0777
33267W        W39717  24.545   5.819   4.651 -0.1414 -0.1087 -0.3416
33268W        W39718   6.697   4.493  29.203 -0.3215 -0.0464  0.0864
33269W        W39719  24.173   1.688  27.026 -0.1443 -0.0506  0.2009
33270W        W39720  17.012   6.925  23.875  0.2091  0.1291  0.0039
33271W        W39721  12.084   3.757  18.525  0.1986  0.0004  0.0800
33272W        W39722   4.051   6.690  30.481  0.0455  0.4646  0.2955
33273W        W39723  23.226   0.401  23.849  0.0489 -0.0032 -0.0820
33274W        W39724   2.121   4.054   8.632  0.2292 -0.1733  0.0482
33275W        W39725  11.248   5.354  32.234 -0.0966 -0.0235  0.0417
33276W        W39726  20.779   5.646  19.247 -0.1496  0.0012 -0.4142
33277W        W39727   6.363   3.070   4.163  0.1516  0.1975  0.1537
33278W        W39728  22.060   3.167   7.580  0.0405 -0.1325 -0.2303
33279W        W39729   7.760   6.269  11.350  0.0511 -0.0815  0.0606
33280W        W39730   6.881   3.808   1.395 -0.3712  0.0490  0.3153
33281W        W39731   1.516   1.146  32.552 -0.1197 -0.1652 -0.1674
33282W        W39732   3.955   4.062  29.382 -0.0296  0.2716  0.0888
33283W        W39733   8.420   4.733  10.021  0.0269 -0.2294 -0.1632
33284W        W39734   3.522   3.128  27.105 -0.1409  0.0310 -0.1065
33285W        W39735  11.166   0.552  11.416 -0.1101  0.1134  0.0260
33286W        W39736   4.170   5.007  11.062 -0.1254 -0.2013  0.3097
33287W        W39737   1.041   5.175   8.771 -0.1119  0.2550  0.2533
33288W        W39738  12.563   4.923   6.044 -0.1824  0.0934 -0.3312
33289W        W39739  20.104   0.001   0.258  0.0491  0.0369 -0.3489
33290W        W39740  15.257   4.959  20.537  0.2539 -0.1141 -0.0753
33291W        W39741  17.691   2.005  31.339 -0.0633 -0.0085  0.0107
33292W        W39742   3.973   1.017  12.072 -0.0484 -0.0816 -0.0099
33293W        W39743   4.449   0.677  17.293  0.0523 -0.2028  0.1290
33294W        W39744   3.481   4.725  25.689  0.0533 -0.0367  0.0004
33295W        W39745   9.866   1.660   1.695 -0.2092  0.1118  0.0082
33296W        W39746  18.567   0.423  19.716 -0.0940 -0.2674 -0.0453
33297W        W39747   1.695   5.362   5.222  0.2082  0.0372 -0.1587
33298W        W39748  23.998   0.085  27.695  0.0521 -0.3975 -0.0533
33299W        W39749   6.210   3.167  30.469 -0.4255 -0.2250  0.2013
33300W        W39750   7.330   5.087  10.897  0.1907  0.1996  0.1335
33301W        W39751   9.267   3.995   4.654 -0.1223 -0.2492  0.3028
33302W        W39752  20.657   3.211   1.472 -0.1834 -0.1972 -0.3071
33303W        W39753  19.338   4.495  19.473  0.0630 -0.0244 -0.3705
33304W        W39754  22.776   6.838  11.813  0.0385 -0.0130  0.0153
33305W        W39755  14.742   6.224  29.050 -0.0988  0.0627 -0.1562
33306W        W39756  11.058   2.144   9.967 -0.2079  0.1547  0.2484
33307W        W39757  15.583   7.745   7.538  0.2285  0.0011  0.2085
33308W        W39758  19.167   2.824  31.257  0.1639 -0.1727  0.1109
33309W        W39759  14.508   6.367  19.046  0.1672 -0.2507 -0.0452
33310W        W39760   7.787   6.569   8.470  0.2991  0.1344 -0.1135
33311W        W39761  24.946   6.505   6.798  0.0524  0.1235 -0.0885
33312W        W39762   8.358   2.491  22.723  0.0884  0.1971  0.2047
33313W        W39763  16.602   5.317   2.803 -0.1252  0.1996  0.0570
33314W        W39764  23.620   5.461  28.693  0.0608  0.2320  0.1102
33315W        W39765   7.111   7.014   4.006 -0.0213 -0.0297 -0.0910
33316W        W39766   5.376   5.523  27.240  0.2573 -0.0598  0.3626
33317W        W39767  11.926   7.495   2.580  0.0662 -0.0257 -0.0985
33318W        W39768  15.924   2.955  29.016 -0.0862 -0.1961  0.3566
33319W        W39769  17.151   4.451  17.482  0.0882  0.0056 -0.0167
33320W        W39770   8.921   4.672  12.946 -0.0016  0.0825  0.1209
33321W        W39771  23.473   7.066  30.459 -0.3250  0.0840 -0.2087
33322W        W39772   7.300   4.484  24.121 -0.2268 -0.0821 -0.0345
33323W        W39773   7.319   2.746  30.110 -0.0284 -0.3185  0.3187
33324W        W39774  12.784   3.565  19.076 -0.0718  0.1764  0.1619
33325W        W39775  10.442   2.045   9.953 -0.1724 -0.0370 -0.1292
33326W        W39776  13.195   4.741  28.431  0.1807 -0.2654  0.3757
33327W        W39777  19.581   7.620   1.725 -0.2104  0.0749  0.0901
33328W        W39778  17.647   5.085   3.728  0.2162 -0.1200 -0.3001
33329W        W39779  14.360   5.900  23.178 -0.0749 -0.1971  0.0454
33330W        W39780   3.338   3.697  14.854  0.2515  0.0175 -0.0739
33331W        W39781  14.336   3.532  24.412  0.1715 -0.0665 -0.2773
33332W        W39782   7.897   3.642   3.181 -0.1405 -0.1725  0.3688
33333W        W39783  16.145   3.000  26.161  0.1097 -0.0345  0.1485
33334W        W39784   8.925   3.965  28.732 -0.0167  0.3128  0.0707
33335W        W39785   0.638   5.894   2.764 -0.2955  0.0028  0.2711
33336W        W39786  23.540   4.917  31.434 -0.1257 -0.1107 -0.4041
33337W        W39787  17.706   1.439  16.839  0.2603  0.3353 -0.0478
33338W        W39788  24.777   0.409   6.328  0.0383 -0.1389 -0.0381
33339W        W39789  19.116   6.130  22.372  0.0979 -0.3356 -0.0364
33340W        W39790   6.042   4.107   1.749 -0.2209  0.0358  0.1858
33341W        W39791   6.070   0.089  14.829 -0.1722  0.2145 -0.0798
33342W        W39792  12.886   3.883  17.280  0.0559  0.0503  0.2854
33343W        W39793  16.162   7.678  16.924  0.2835  0.2160  0.1620
33344W        W39794  15.993   6.865  22.382  0.1075 -0.1379  0.3129
33345W        W39795  23.632   1.956  32.122 -0.0511  0.0635 -0.1653
33346W        W39796  13.448   2.402  27.423  0.0456  0.0850  0.1761
33347W        W39797  19.885   3.024  30.510  0.1130 -0.2388 -0.0255
33348W        W39798   8.636   1.801   9.642 -0.1486 -0.4351 -0.0991
33349W        W39799   5.740   5.655  32.885 -0.2741  0.0031  0.0617
33350W        W39800  10.458   6.299   9.613 -0.1116  0.0502 -0.0639
33351W        W39801  21.571   6.551   5.958  0.0661  0.0925 -0.0862
33352W        W39802  20.451   2.152   4.495  0.0684  0.0453 -0.0987
33353W        W39803  20.068   6.695  16.921  0.2499 -0.2809  0.2129
33354W        W39804   0.199   5.055  26.127  0.1998 -0.0588  0.0572
33355W        W39805   3.267   4.039   1.120 -0.2633  0.0144  0.1454
33356W        W39806  22.138   3.049   9.803  0.0129 -0.2312 -0.1040
33357W        W39807  16.703   6.493  32.657 -0.2502  0.1078  0.1092
33358W        W39808  19.192   6.638  28.370  0.1674 -0.0246  0.1593
33359W        W39809  23.398   1.872   6.514  0.1377 -0.1144 -0.0304
33360W        W39810  24.697   6.876  25.401  0.0115 -0.2601 -0.0071
33361W        W39811   6.443   6.494  10.764  0.1547 -0.0735 -0.2657
33362W        W39812   7.280   0.334   4.625 -0.0028  0.0062 -0.0416
33363W        W39813   6.061   3.551  14.881 -0.0371 -0.0513 -0.3766
33364W        W39814  10.733   1.091  12.011 -0.1047 -0.1681 -0.1194
33365W        W39815  21.901   0.249  18.289  0.2439  0.1633 -0.1353
33366W        W39816   1.135   1.948  16.748 -0.2358  0.0509 -0.2727
33367W        W39817  14.464   3.535  24.870 -0.0167 -0.0242  0.0304
33368W        W39818   7.795   1.231  16.144 -0.1020  0.0754  0.2230
33369W        W39819  23.815   0.820  13.906 -0.1734 -0.2187 -0.0696
33370W        W39820  10.457   6.467   3.815 -0.1715 -0.2595  0.5261
33371W        W39821   8.011   6.850   0.929  0.3021 -0.0870 -0.0055
33372W        W39822   3.449   3.623  12.934 -0.3555  0.1214  0.3799
33373W        W39823   6.448   3.927  14.629 -0.2327  0.1886  0.0109
33374W        W39824   3.823   2.029   5.895  0.0953  0.1509  0.0705
33375W        W39825   1.156   3.610  11.063 -0.1034 -0.0817  0.0761
33376W        W39826   2.427   6.479  13.604 -0.0575  0.2470  0.3605
33377W        W39827   3.504   5.603  29.436  0.0248  0.1094  0.0792
33378W        W39828  20.656   0.703   2.038 -0.0484  0.1544 -0.2081
33379W        W39829  18.515   2.011  17.146  0.0261  0.0147 -0.1339
33380W        W39830  21.929   5.435  12.832 -0.0355  0.2605 -0.0621
33381W        W39831   0.277   0.792  25.465 -0.2187 -0.3289  0.1534
33382W        W39832   1.312   1.210  30.025  0.0534  0.0304  0.0327
33383W        W39833  15.680   3.896  24.516  0.2588  0.2326 -0.2793
33384W        W39834  24.792   7.665   0.558 -0.2211  0.0200 -0.0351
33385W        W39835  13.348   1.928  18.558  0.1882  0.1568  0.1977
33386W        W39836  15.318   1.583  17.142 -0.2475  0.0152  0.0457
33387W        W39837  12.683   4.906   2.964  0.0435 -0.0009  0.1907
33388W        W39838  20.991   7.779  28.673  0.1152  0.1298  0.0275
33389W        W39839  12.064   0.927  10.234 -0.3850  0.0939  0.0385
33390W        W39840  13.920   7.347   2.824  0.3128 -0.0949  0.1373
33391W        W39841   1.507   5.629  11.740 -0.1028 -0.0940 -0.0462
33392W        W39842  19.446   1.072   9.284  0.0103  0.0319  0.0091
33393W        W39843  23.385   3.916  24.384 -0.0124  0.1015 -0.2929
33394W        W39844   4.857   6.537   4.160  0.1319 -0.0153  0.4098
33395W        W39845  17.865   1.147  21.758 -0.0580  0.0704 -0.1961
33396W        W39846  13.597   1.816  30.202 -0.1498 -0.1765  0.2227
33397W        W39847  12.813   1.292   3.191  0.2566  0.1276  0.1239
33398W        W39848   6.432   5.115  28.640 -0.2146  0.0166  0.0523
33399W        W39849   2.393   4.902  15.690  0.1018 -0.2458 -0.0712
33400W        W39850  14.815   5.521  27.316  0.2150  0.2612  0.1158
33401W        W39851   9.578   1.297  23.276 -0.0073 -0.0811  0.1384
33402W        W39852   4.013   0.412   4.377 -0.2529  0.2714 -0.1458
33403W        W39853  11.076   0.065   1.526 -0.1835 -0.0220  0.2041
33404W        W39854  15.477   2.171  21.995  0.2285  0.1437 -0.0910
33405W        W39855   0.018   4.611  22.060 -0.1763 -0.0374  0.0013
33406W        W39856  11.295   4.409  12.252 -0.1220  0.0227 -0.2734
33407W        W39857   0.129   7.592  24.317 -0.1805 -0.3241 -0.2196
33408W        W39858   7.079   4.828  16.894 -0.3110  0.1171 -0.0761
33409W        W39859   2.792   4.790  16.002  0.1613 -0.2752  0.0052
33410W        W39860   2.384   3.493  29.914  0.3269  0.0223 -0.1206
33411W        W39861  23.212   4.425  10.059  0.0228 -0.2110 -0.1929
33412W        W39862   3.010   4.118  31.370  0.1689  0.1248 -0.1655
33413W        W39863  23.197   2.172   5.906 -0.0842 -0.1248  0.0434
33414W        W39864  22.933   3.736  22.776 -0.0626  0.2780 -0.1112
33415W        W39865  10.431   2.931   9.981  0.0776  0.0587  0.0224
33416W        W39866  23.773   0.012   4.249  0.1870 -0.1257 -0.1221
33417W        W39867   0.481   1.643  14.074 -0.1749  0.1031 -0.0647
33418W        W39868   8.205   1.340  31.049 -0.1369 -0.1782 -0.3176
33419W        W39869   2.956   6.704   2.920 -0.2210 -0.0602  0.2540
33420W        W39870   6.419   5.558  16.231 -0.0873  0.0157  0.2780
33421W        W39871   3.181   6.372   8.917 -0.0476 -0.0113 -0.2069
33422W        W39872  12.104   3.408   2.262 -0.1978 -0.0237  0.0492
33423W        W39873   7.092   4.246   9.624  0.1614  0.1868  0.1383
33424W        W39874  20.823   3.339   6.542  0.0382  0.1305 -0.3462
33425W        W39875  17.793   0.958  23.819  0.0479  0.1602  0.2041
33426W        W39876  19.888   1.738   7.415 -0.1579 -0.0188  0.0448
33427W        W39877  21.520   2.975   0.090  0.3092  0.0647  0.0237
33428W        W39878  15.548   7.096  31.253  0.0918 -0.0304 -0.1172
33429W        W39879  15.086   0.471  25.606 -0.3503 -0.0483  0.0591
33430W        W39880  23.345   3.734   1.705 -0.1202 -0.0402 -0.1516
33431W        W39881  19.318   4.914  11.297  0.0617 -0.3050  0.0114
33432W        W39882   9.131   5.135  23.702  0.0227  0.1619 -0.0617
33433W        W39883  13.043   6.826  29.760  0.3574 -0.2729 -0.0290
33434W        W39884  20.379   5.542  26.174  0.3429  0.1484  0.2793
33435W        W39885   0.174   2.500  14.304  0.2898  0.1361 -0.2523
33436W        W39886   0.416   5.580  32.250 -0.1066  0.1910  0.0871
33437W        W39887  14.793   4.126  17.861 -0.0220  0.3582  0.1577
33438W        W39888  24.773   3.948  11.242  0.0787 -0.0067 -0.3290
33439W        W39889   7.070   2.742   0.612 -0.0802 -0.2191  0.1422
33440W        W39890  16.643   1.565  29.793 -0.0335 -0.0098  0.1190
33441W        W39891  19.989   4.126   6.171 -0.0954  0.1281 -0.0175
33442W        W39892  10.606   1.264  22.772  0.4278 -0.0948  0.1175
33443W        W39893  18.902   0.368  27.905 -0.0813 -0.3686 -0.1188
33444W        W39894   6.275   5.055  16.248  0.0519 -0.1448 -0.3014
33445W        W39895  20.249   0.559  24.510 -0.1879 -0.1950 -0.2158
33446W        W39896   1.415   1.446   1.185  0.2745  0.1222 -0.0706
33447W        W39897  21.135   7.255  10.858 -0.0436  0.0870 -0.2387
33448W        W39898  15.586   5.345   8.836 -0.1424  0.0432  0.0806
33449W        W39899  13.115   6.253  21.083 -0.2045 -0.2870 -0.1266
33450W        W39900  10.355   6.864   2.605 -0.0437  0.1572  0.0926
33451W        W39901  21.236   1.847  10.935  0.1850 -0.2693  0.2245
33452W        W39902   8.928   6.230   6.903  0.0349 -0.0878 -0.1902
33453W        W39903   9.740   6.375   7.539  0.0054 -0.0725 -0.2028
33454W        W39904  13.842   4.126  26.039  0.0742 -0.0394  0.1311
33455W        W39905  21.142   4.015  23.393  0.2559  0.0415  0.0016
33456W        W39906  15.432   5.584  24.670 -0.1947 -0.0080  0.1485
33457W        W39907  16.511   3.450  25.284  0.1154  0.2659 -0.0287
33458W        W39908  17.102   0.788  19.776  0.0406  0.3611  0.0673
33459W        W39909  15.077   7.428   6.150 -0.0638 -0.3778 -0.1297
33460W        W39910   8.888   7.310  14.554  0.2299 -0.0722  0.0072
33461W        W39911  21.773   3.646  25.204  0.4350  0.1350  0.3654
33462W        W39912   4.437   2.303   8.986 -0.2541 -0.0707  0.2869
33463W        W39913  12.145   4.377  26.144  0.0373  0.1690 -0.2362
33464W        W39914  14.282   5.863   7.802 -0.0012  0.1603 -0.1383
33465W        W39915  19.818   2.203  21.467  0.1551 -0.4078  0.0878
33466W        W39916  13.312   6.858   0.080 -0.0295  0.0620  0.1881
33467W        W39917   8.592   4.551  31.275 -0.0141  0.1541  0.1169
33468W        W39918  14.502   1.313   3.614  0.1999 -0.0850  0.1167
33469W        W39919  22.265   3.698   5.747 -0.4017 -0.2577 -0.1295
33470W        W39920  21.382   5.063   3.530 -0.0596 -0.1742  0.3464
33471W        W39921  21.044   6.038  31.838  0.3973 -0.0247 -0.2622
33472W        W39922   0.388   7.412   8.673  0.0054 -0.0682 -0.0934
33473W        W39923   4.530   5.193   0.315 -0.2014 -0.3645  0.0788
33474W        W39924   2.352   7.141  31.311  0.0856 -0.2541  0.3180
33475W        W39925   1.112   6.939  32.895 -0.1816 -0.0151  0.0143
33476W        W39926   3.822   2.571   8.555  0.0463 -0.2160 -0.1681
33477W        W39927  10.892   1.515  19.834  0.0719 -0.1092  0.0610
33478W        W39928  20.542   6.509  32.316 -0.0993  0.0428  0.2610
33479W        W39929  21.442   3.980  19.736  0.0593  0.2705  0.1122
33480W        W39930   9.414   5.016  28.295  0.1205 -0.1040  0.1577
33481W        W39931  10.932   3.633   6.584 -0.2722  0.1571 -0.2800
33482W        W39932  24.828   0.730  13.272 -0.0093 -0.0962  0.2270
33483W        W39933   9.611   5.693  26.929 -0.2758 -0.1995 -0.0863
33484W        W39934  21.342   0.086   1.270  0.2455  0.0196 -0.1912
33485W        W39935  18.637   0.169   3.204 -0.1561 -0.0269 -0.0888
33486W        W39936  18.643   3.107  16.628  0.1639  0.0967  0.1213
33487W        W39937  11.530   4.246   5.811  0.2108  0.3488 -0.1463
33488W        W39938   5.942   1.743  23.729  0.1265 -0.5061  0.1097
33489W        W39939  13.824   5.307   9.254  0.1030 -0.2166  0.0599
33490W        W39940  14.596   2.094  30.308  0.0316  0.1902  0.0014
33491W        W39941  10.367   1.630  12.446  0.0442  0.0079  0.1288
33492W        W39942   1.541   2.605   3.331  0.0546 -0.1780  0.0657
33493W        W39943  22.216   5.763  32.851 -0.2595 -0.1337  0.0832
33494W        W39944  19.054   2.619  10.141 -0.1570  0.2534  0.0535
33495W        W39945  15.346   2.509  18.788 -0.1548  0.3715 -0.1788
33496W        W39946  16.951   7.000  19.974 -0.0589 -0.0184 -0.1369
33497W        W39947  21.920   2.805  26.724 -0.3644  0.1759  0.0468
33498W        W39948   1.593   3.706  27.543  0.0307 -0.0689  0.1944
33499W        W39949  20.714   6.807   0.720 -0.2085  0.0341  0.1988
33500W        W39950  11.762   6.119   9.531  0.2257 -0.0507 -0.0244
33501W        W39951  14.362   4.085  19.281  0.1067  0.2878  0.2934
33502W        W39952   1.917   1.305  16.280 -0.0743 -0.1488 -0.0367
33503W        W39953  12.701   2.594   1.894  0.0020 -0.0701 -0.0172
33504W        W39954  16.185   2.914   6.220 -0.0086  0.1706 -0.1904
33505W        W39955   3.333   4.518  18.460  0.1484  0.1594 -0.3013
33506W        W39956   8.583   0.334   3.892 -0.0365 -0.0212  0.0669
33507W        W39957   9.167   3.096  27.198 -0.0535 -0.1345 -0.1918
33508W        W39958  20.880   3.431   5.236 -0.4714  0.1624  0.1934
33509W        W39959  24.469   7.439  20.926  0.2685  0.1038  0.2349
33510W        W39960  10.891   5.025  32.015 -0.0647  0.2111 -0.3150
33511W        W39961  18.499   6.560  31.267  0.0112  0.0487 -0.1341
33512W        W39962  19.293   1.721  30.079  0.0594  0.4545 -0.4769
33513W        W39963  18.351   7.258  20.449  0.1955 -0.1246  0.0265
33514W        W39964   8.427   3.140  32.129 -0.0890 -0.1085  0.0231
33515W        W39965  20.202   3.204   5.184 -0.0497 -0.1066 -0.1335
33516W        W39966   2.180   6.003  22.735 -0.1017 -0.1135  0.0645
33517W        W39967  14.569   0.132  22.826 -0.3172  0.0572 -0.2341
33518W        W39968  24.371   6.400   0.851 -0.1016  0.0610 -0.1527
33519W        W39969   6.229   0.541  31.258  0.2840  0.3733  0.0984
33520W        W39970  19.967   1.440  22.384  0.1453  0.1880 -0.1907
33521W        W39971   7.167   1.044  14.524  0.0144  0.0830 -0.0015
33522W        W39972   0.763   3.373  32.108  0.0379  0.0466 -0.1904
33523W        W39973   8.467   3.610   5.231 -0.1517 -0.3469  0.0194
33524W        W39974  18.856   4.615  22.982  0.2092 -0.0836 -0.0453
33525W        W39975  22.426   1.234   0.728 -0.0264 -0.1826  0.0300
33526W        W39976   4.569   7.506  24.664  0.0488  0.5191 -0.1629
33527W        W39977  13.774   7.568  26.529 -0.0422  0.1338 -0.1756
33528W        W39978  13.751   4.108  22.617 -0.0588 -0.0931  0.3042
33529W        W39979  24.565   0.537  29.191  0.0116 -0.1548  0.1711
33530W        W39980  20.144   4.038   3.378  0.1100 -0.1560 -0.3130
33531W        W39981  24.408   5.994   6.267  0.1238 -0.1649 -0.1007
33532W        W39982   1.383   2.997  22.784  0.2166 -0.0553 -0.1207
33533W        W39983  20.839   7.780  21.555  0.0720  0.2132  0.0389
33534W        W39984   0.458   0.235  23.958 -0.2391  0.1290  0.0676
33535W        W39985  20.158   2.400   3.979  0.0732 -0.1012  0.0901
33536W        W39986  11.395   7.495   7.850  0.1145 -0.1666  0.0772
33537W        W39987   4.034   3.765  13.755  0.0168  0.2038 -0.2918
33538W        W39988   0.357   7.070  10.324  0.0625 -0.0147 -0.2981
33539W        W39989  20.981   1.369  19.925 -0.0405  0.1646  0.0320
33540W        W39990  23.798   6.868   3.200 -0.0691 -0.0268  0.1078
33541W        W39991  21.237   4.996   1.675 -0.0658  0.1490 -0.0988
33542W        W39992   5.557   3.221  31.349 -0.1521  0.0192 -0.1690
33543W        W39993   1.865   2.690  25.085  0.1729  0.1372  0.1703
33544W        W39994   2.266   4.076   4.289 -0.0327 -0.2087  0.0448
33545W        W39995  15.252   3.576  31.685  0.1501 -0.0506  0.1996
33546W        W39996  12.746   2.562  10.079 -0.0986 -0.0116 -0.2983
33547W        W39997   5.835   4.673  13.214 -0.0115 -0.2704 -0.1365
33548W        W39998  15.269   1.819   2.492  0.0579  0.0863  0.3327
33549W        W39999  18.025   4.888  27.511  0.0365 -0.1763 -0.0345
33550W        W40000   6.765   5.366  11.469  0.0534  0.2432 -0.2826
33551W        W40001   9.979   5.815  12.722  0.0001 -0.0360  0.0917
33552W        W40002  22.980   7.710   8.063 -0.0424  0.0112  0.0472
33553W        W40003  22.778   1.162  25.029  0.0424 -0.0911  0.1625
33554W        W40004   4.282   6.924   4.905 -0.2096  0.3324 -0.0535
33555W        W40005  21.825   3.430   9.746  0.1032  0.1959  0.0100
33556W        W40006  19.730   0.008  30.260 -0.4479 -0.3371 -0.0653
33557W        W40007  17.831   6.937   8.993  0.1396  0.0605  0.1883
33558W        W40008  19.349   1.567   7.172  0.0120  0.1827 -0.1599
33559W        W40009   5.478   4.949   6.512  0.4453 -0.0275 -0.0420
33560W        W40010  10.180   1.765  25.465 -0.2117  0.1781  0.0705
33561W        W40011   2.265   7.329  13.350  0.0986  0.1504 -0.1412
33562W        W40012  22.568   1.355  13.128  0.0662 -0.0585 -0.0768
33563W        W40013  17.776   4.508  20.213  0.0211 -0.0242 -0.3322
33564W        W40014  16.708   1.549  17.906  0.2356  0.1206  0.3708
33565W        W40015  24.018   3.328  10.943  0.1741  0.1254 -0.0194
33566W        W40016  13.957   6.449  16.195  0.0421  0.0774  0.1922
33567W        W40017  23.688   7.630   5.357  0.1416 -0.0921 -0.0595
33568W        W40018  16.428   2.328  19.605 -0.1006 -0.3600 -0.2624
33569W        W40019  21.506   1.642  21.306 -0.1494  0.0996 -0.1370
33570W        W40020   0.561   3.737  13.979 -0.1842 -0.0424 -0.2597
33571W        W40021   7.044   4.829   4.197  0.2867 -0.1107 -0.0633
33572W        W40022  21.235   5.250   7.315 -0.1270  0.0481 -0.2095
33573W        W40023   0.443   0.104   7.705  0.1532 -0.1070  0.1052
33574W        W40024   1.137   0.836   4.899 -0.0219 -0.0687 -0.0542
33575W        W40025   6.643   1.192  16.422  0.1914 -0.0965  0.0849
33576W        W40026   6.071   4.681  17.082  0.0997  0.0499 -0.3840
33577W        W40027  17.592   2.088   7.193 -0.1637 -0.0963  0.0401
33578W        W40028   4.152   7.538   2.262  0.0228 -0.1498  0.2838
33579W        W40029  15.205   7.497  16.971  0.0311  0.0033 -0.1134
33580W        W40030   2.032   6.090   4.052 -0.3536  0.0093 -0.0739
33581W        W40031   8.681   5.114  11.964  0.0777  0.0049 -0.0395
33582W        W40032  21.088   5.499  11.067 -0.0852 -0.0343 -0.0246
33583W        W40033  24.057   5.370   0.421 -0.0325 -0.0330  0.1862
33584W        W40034   9.048   7.730   1.381 -0.1623 -0.1619 -0.1980
33585W        W40035   5.949   4.205  14.051 -0.0841  0.0960  0.2607
33586W        W40036  14.797   0.861  25.911 -0.0650  0.1912  0.2584
33587W        W40037   8.220   7.521  25.504 -0.1241  0.0938 -0.0526
33588W        W40038   6.176   0.590  25.677  0.0600 -0.1106 -0.1284
33589W        W40039  10.221   2.338  21.156 -0.2235 -0.0151 -0.0922
33590W        W40040  19.417   0.869  21.789 -0.1122  0.2468 -0.1193
33591W        W40041  24.167   2.128  10.075  0.0287 -0.0217 -0.0906
33592W        W40042  11.293   7.356   6.396 -0.0862  0.4320 -0.1817
33593W        W40043  11.777   7.739   7.685 -0.2045  0.0311  0.0378
33594W        W40044  10.688   0.124  26.184 -0.1546 -0.1155 -0.0751
33595W        W40045  14.153   1.586  20.282 -0.1229  0.3092 -0.0897
33596W        W40046  11.842   5.791   8.336 -0.0880 -0.0752  0.0444
33597W        W40047  17.105   6.137  27.702  0.0037  0.1330 -0.0733
33598W        W40048  12.918   1.361   9.701 -0.1419 -0.0911 -0.1659
33599W        W40049  24.459   2.147  13.638  0.1611 -0.1341  0.0688
33600W        W40050  18.174   1.400  10.356 -0.0131 -0.2109 -0.1220
33601W        W40051   8.595   4.559   0.622  0.3795  0.0200 -0.0408
33602W        W40052  18.183   6.740  29.464  0.0081  0.1074 -0.2517
33603W        W40053  16.148   1.962   5.790 -0.0736 -0.2657 -0.1218
33604W        W40054   8.090   1.369   1.361 -0.1624  0.3753  0.0983
33605W        W40055  10.681   5.185   9.532 -0.0732 -0.2565  0.1774
33606W        W40056   3.003   1.120  11.929 -0.1801 -0.2151  0.3673
33607W        W40057  17.670   1.398  31.757  0.4306 -0.2375 -0.2252
33608W        W40058   5.284   2.428   9.509  0.0325  0.0105 -0.2038
33609W        W40059  19.025   0.455  19.972 -0.3418 -0.3456 -0.1383
33610W        W40060  14.773   1.479  28.131 -0.3011  0.3098 -0.1507
33611W        W40061   9.689   5.770  23.824  0.1575 -0.0724 -0.0642
33612W        W40062  11.021   5.530  23.411 -0.0365  0.4239 -0.1171
33613W        W40063  13.370   7.297  17.901  0.1690 -0.1063  0.1317
33614W        W40064  24.894   7.123  23.138  0.1490 -0.1835  0.2217
33615W        W40065   6.820   7.210  24.590  0.2907 -0.2731 -0.0303
33616W        W40066  12.575   7.217   6.600 -0.0135 -0.2138  0.1570
33617W        W40067   5.922   5.162   6.896  0.1042 -0.0209  0.2187
33618W        W40068  12.390   7.601  19.817 -0.1330  0.3920  0.1503
33619W        W40069  13.153   3.326  28.845 -0.2230 -0.1027 -0.0212
33620W        W40070   0.140   5.016   5.825  0.2850 -0.0982 -0.1392
33621W        W40071   7.212   2.431   5.452 -0.1605  0.0106  0.0661
33622W        W40072   7.873   0.778   8.374 -0.0874  0.1560 -0.0760
33623W        W40073   6.105   4.115   3.241 -0.1127 -0.2434 -0.1502
33624W        W40074   7.108   6.612  28.436  0.0306  0.0795  0.1251
33625W        W40075  23.671   3.459   4.255 -0.0983  0.0681  0.2679
33626W        W40076  16.211   6.777  21.193 -0.1433  0.1382 -0.0625
33627W        W40077  22.801   5.138   1.708 -0.0923 -0.3310  0.1072
33628W        W40078  24.156   3.071   7.837  0.1593  0.0123  0.0927
33629W        W40079  20.323   6.292  30.846  0.2610  0.0650  0.1570
33630W        W40080  11.642   2.605  31.762  0.0650  0.2072  0.2033
33631W        W40081   5.365   2.791   8.152  0.0498 -0.1012 -0.1230
33632W        W40082   9.147   5.760  11.657  0.1111  0.0805  0.1271
33633W        W40083  21.609   2.333  19.906 -0.2828  0.2082  0.1734
33634W        W40084   7.681   2.274  16.240 -0.2427  0.0648  0.3790
33635W        W40085  16.655   5.571  32.884  0.4446  0.1783 -0.1460
33636W        W40086  15.675   1.369   8.036 -0.0655 -0.0915 -0.1376
33637W        W40087  24.028   3.861   5.607 -0.1283  0.0091 -0.1863
33638W        W40088  14.869   6.910  20.079  0.2130  0.1470 -0.1418
33639W        W40089   9.205   0.461   4.047 -0.1575  0.2807  0.2862
33640W        W40090   8.436   5.233  10.086  0.0416 -0.0225 -0.2242
33641W        W40091  21.815   2.403  32.639 -0.0823 -0.1307  0.0314
33642W        W40092  20.227   0.808   8.246 -0.1535  0.2310 -0.0565
33643W        W40093   5.838   6.091  30.802 -0.3347  0.3069 -0.3199
33644W        W40094   2.622   6.720   6.273 -0.3508  0.0625 -0.0193
33645W        W40095  23.093   0.211   0.283 -0.1575  0.0032 -0.1522
33646W        W40096   8.168   6.733  10.201 -0.0582  0.0212 -0.0981
33647W        W40097  13.480   6.293   0.244 -0.0549 -0.0416 -0.3539
33648W        W40098  19.314   3.825  23.410 -0.1205 -0.3467  0.3063
33649W        W40099  13.872   1.284  30.406  0.1982  0.1068 -0.1208
33650W        W40100  10.418   2.758  23.525  0.0487 -0.0039  0.2031
33651W        W40101  21.032   3.942   8.212 -0.0314 -0.0297  0.0319
33652W        W40102   6.160   1.577  28.399  0.0790  0.0260  0.1742
33653W        W40103  17.497   6.049   1.433 -0.0467 -0.0519 -0.0314
33654W        W40104  22.111   4.397  20.209 -0.0343 -0.2787  0.0235
33655W        W40105   2.675   1.598  13.238 -0.1867 -0.1969 -0.0483
33656W        W40106   6.924   3.589  16.073  0.0077  0.1199  0.1252
33657W        W40107  22.355   2.599   6.932 -0.2289  0.2018  0.0925
33658W        W40108  13.623   0.338  19.307  0.2786  0.0359 -0.1924
33659W        W40109   0.800   4.103  16.295 -0.3432  0.2880 -0.0133
33660W        W40110  17.107   3.285  18.167 -0.1956 -0.1257 -0.2686
33661W        W40111  19.449   1.824  30.553  0.0069  0.2697  0.0082
33662W        W40112  20.444   0.064   7.340  0.1078 -0.1657 -0.0036
33663W        W40113  12.972   7.274  21.124 -0.0329  0.0537 -0.5189
33664W        W40114  13.954   5.706  18.215 -0.0897  0.2138  0.0414
33665W        W40115  10.570   2.782  28.117 -0.0494 -0.0937  0.1328
33666W        W40116   5.287   1.989  28.482 -0.1504  0.0235  0.0727
33667W        W40117   7.884   2.043   2.605 -0.2516 -0.0530  0.1925
33668W        W40118   2.098   1.755  10.588 -0.0177 -0.1344  0.0111
33669W        W40119   5.050   5.857   1.401  0.0451 -0.2066  0.1793
33670W        W40120   0.324   5.107  15.199 -0.1403  0.1894  0.0724
33671W        W40121   7.221   6.751  23.065  0.4099 -0.0139  0.2671
33672W        W40122  23.732   7.557  20.723 -0.1499 -0.0078 -0.0646
33673W        W40123   1.302   1.184  26.191  0.1431 -0.0736 -0.0254
33674W        W40124  16.877   1.592   4.302 -0.2996  0.1902  0.0069
33675W        W40125   5.318   6.840  27.714  0.0643 -0.0549  0.0585
33676W        W40126  17.440   6.382   9.762  0.1199 -0.1042  0.0752
33677W        W40127  24.011   0.105  23.634 -0.0998 -0.2611 -0.1215
33678W        W40128  15.509   6.366   7.812 -0.0415  0.0226  0.0584
33679W        W40129  14.869   6.149  30.018  0.1588 -0.0715 -0.1690
33680W        W40130  10.489   2.543   7.969 -0.0345  0.1841 -0.0199
33681W        W40131  17.779   5.344  21.708 -0.1493 -0.3030  0.0786
33682W        W40132  12.251   5.045  11.384 -0.1041 -0.0385  0.1596
33683W        W40133  15.519   7.030  21.538 -0.0685 -0.2598  0.0505
33684W        W40134  22.554   0.106   1.208 -0.1788  0.5588  0.1158
33685W        W40135  11.329   7.052  20.623  0.0113  0.0181  0.0701
33686W        W40136  18.958   6.911  27.951  0.2391  0.4691  0.2773
33687W        W40137  18.704   3.465  26.761 -0.3193 -0.0734 -0.2554
33688W        W40138  22.664   6.210  24.635 -0.2755 -0.0360 -0.0092
33689W        W40139  22.708   7.644   0.350  0.0783 -0.1117  0.2309
33690W        W40140  21.157   0.287  29.459 -0.0459 -0.3048  0.2829
33691W        W40141  14.294   7.384   4.552  0.0455 -0.0461 -0.1624
33692W        W40142  13.369   7.591   3.462 -0.6651  0.0518 -0.4057
33693W        W40143  18.305   5.798   4.866 -0.3337  0.0464 -0.6016
33694W        W40144  13.263   1.437   1.611 -0.0787  0.1017 -0.1825
33695W        W40145   7.679   3.089  30.270 -0.2370  0.1379 -0.2420
33696W        W40146  14.694   4.216  21.679 -0.2364 -0.0517 -0.1584
33697W        W40147  10.494   1.934   3.371  0.1357 -0.0758 -0.3457
33698W        W40148  20.257   5.805  31.388 -0.2478 -0.0818  0.0285
33699W        W40149  15.430   0.229   1.674  0.0719 -0.0007  0.3125
33700W        W40150   7.281   6.645  14.172  0.1272 -0.3474  0.1233
33701W        W40151  19.517   1.375  30.844  0.0002 -0.1951 -0.2038
33702W        W40152  21.393   2.606  20.902  0.1462 -0.4081  0.1670
33703W        W40153  24.759   1.091  11.283 -0.2851  0.1641 -0.0757
33704W        W40154  22.290   1.316   5.016 -0.0972  0.1859 -0.0320
33705W        W40155   6.818   2.335  23.879  0.0791  0.2294 -0.0133
33706W        W40156   4.764   5.291  32.079 -0.0668  0.1164 -0.1215
33707W        W40157  13.938   2.184  30.397 -0.0925 -0.1008 -0.0972
33708W        W40158   9.783   5.418  23.445  0.0653 -0.0861 -0.0271
33709W        W40159  15.845   2.116  30.702  0.2139  0.0760  0.0808
33710W        W40160   1.336   6.979  25.757  0.0962 -0.0368  0.0706
33711W        W40161  18.173   3.201   9.233 -0.1536  0.2545  0.2235
33712W        W40162   4.501   2.290  25.638  0.0333  0.1619 -0.0600
33713W        W40163  14.292   7.173   1.972 -0.2092 -0.2779 -0.1848
33714W        W40164   7.464   5.546   6.406  0.0648 -0.0323  0.1763
33715W        W40165  20.020   4.350  29.187  0.2763  0.3705  0.1795
33716W        W40166   4.767   5.533  30.739 -0.2654 -0.3049  0.2493
33717W        W40167   1.803   0.407  30.201  0.2553 -0.1052  0.3841
33718W        W40168  21.234   7.786  26.334  0.0471 -0.1301  0.1009
33719W        W40169  21.574   2.962   6.459  0.4173  0.1900 -0.2680
33720W        W40170   1.278   7.008   5.940  0.1497  0.1649 -0.0408
33721W        W40171  11.705   5.130  32.394 -0.0653  0.1991 -0.0505
33722W        W40172   9.348   2.959  31.786 -0.1112 -0.1046 -0.0211
33723W        W40173  23.671   3.713  30.812 -0.0778 -0.1742 -0.0289
33724W        W40174   5.796   5.273   1.510  0.2841 -0.0855  0.1510
33725W        W40175   3.797   2.764   3.373  0.2626 -0.4801 -0.4459
33726W        W40176  14.401   4.204  18.193 -0.0028 -0.1144 -0.1911
33727W        W40177   5.067   3.266  31.715  0.0834  0.2907 -0.0204
33728W        W40178  20.654   7.287  21.763  0.0327  0.0185  0.1108
33729W        W40179   7.007   7.548  24.958  0.1887 -0.1174 -0.1581
33730W        W40180   3.956   7.052  26.638 -0.0124 -0.4317  0.0672
33731W        W40181   4.907   0.133  32.555  0.3665 -0.2825  0.1415
33732W        W40182   6.068   4.583  25.216 -0.2535  0.0835 -0.2084
33733W        W40183  22.754   6.665   0.210  0.0437 -0.3049  0.0447
33734W        W40184  18.938   6.417  26.732  0.2438 -0.1988 -0.1692
33735W        W40185  16.694   4.005   4.141  0.0820  0.2681 -0.0375
33736W        W40186  11.698   0.686  32.493 -0.0778 -0.0256  0.0066
33737W        W40187   5.869   6.397   7.793 -0.2067 -0.0744  0.0957
33738W        W40188   6.451   1.176  32.142  0.0543 -0.1326  0.1079
33739W        W40189  19.190   0.623   5.158 -0.0560 -0.4716 -0.2402
33740W        W40190  21.477   2.767  18.490  0.0759  0.2275  0.0574
33741W        W40191  21.931   5.805  18.238  0.2450 -0.6761 -0.2604
33742W        W40192   8.974   2.897   8.972 -0.3409 -0.1384 -0.1229
33743W        W40193  21.629   6.305  28.093 -0.0575  0.0809  0.1967
33744W        W40194  18.161   6.386  18.424  0.0277 -0.1822  0.0291
33745W        W40195   2.675   7.516  24.522 -0.0685  0.0775  0.1941
33746W        W40196  10.524   4.784  22.597 -0.0664 -0.0572 -0.0132
33747W        W40197  23.721   0.312  13.978 -0.1587  0.0106 -0.0577
33748W        W40198  21.251   7.196  30.945 -0.2155 -0.1168 -0.1538
33749W        W40199   4.915   7.493   1.823  0.0312 -0.0502 -0.0137
33750W        W40200   1.561   0.724   2.606 -0.0336 -0.1642  0.1248
33751W        W40201   1.884   1.377   4.628 -0.1649  0.1291  0.2040
33752W        W40202   7.179   2.417  15.008  0.0478  0.1632  0.1933
33753W        W40203   0.247   5.204  29.392 -0.0615  0.0159  0.1671
33754W        W40204   7.990   6.800  31.720 -0.2207 -0.3510  0.0336
33755W        W40205  21.455   0.819  28.708  0.0045  0.0208  0.0997
33756W        W40206  20.319   5.951   3.114  0.1468 -0.0920  0.2665
33757W        W40207  22.787   4.378  26.038  0.0627  0.2569  0.1057
33758W        W40208   0.039   2.252   0.413  0.1307  0.2506  0.2458
33759W        W40209   9.019   5.484  11.256 -0.1181 -0.0250 -0.0033
33760W        W40210   4.522   2.707   4.749  0.2254 -0.2586 -0.3041
33761W        W40211   5.486   6.676  22.685  0.3122 -0.1277  0.0882
33762W        W40212  11.047   6.004  20.725 -0.2292 -0.2520  0.0855
33763W        W40213   7.180   0.421  13.795  0.2619 -0.0183 -0.0643
33764W        W40214  18.673   4.247  32.956  0.0860  0.1061  0.1729
33765W        W40215  15.997   4.520   3.755 -0.0075  0.1211 -0.2916
33766W        W40216   4.127   5.747  24.209 -0.2727  0.0148  0.1158
33767W        W40217  16.384   4.931  21.886  0.1558  0.1352  0.0195
33768W        W40218   9.892   3.225   4.992  0.0889  0.2087  0.1124
33769W        W40219  16.353   1.461   4.073  0.0528 -0.1842 -0.0959
33770W        W40220  13.440   3.020   6.027 -0.0426 -0.0802 -0.0219
33771W        W40221  15.472   5.688  28.882  0.1897 -0.2181 -0.2250
33772W        W40222  20.863   2.623   2.934 -0.0866 -0.1980 -0.1125
33773W        W40223  12.116   2.840   8.954 -0.0177  0.0047 -0.0722
33774W        W40224  16.599   3.562  27.939  0.0472  0.1706 -0.0675
33775W        W40225  19.875   2.275  28.784 -0.0909  0.1998  0.1112
33776W        W40226   1.978   2.234  17.139 -0.1886 -0.2140  0.0772
33777W        W40227  14.266   2.695  14.728 -0.2466 -0.0367 -0.0822
33778W        W40228  15.565   3.768  25.047  0.0809 -0.0719 -0.1489
33779W        W40229   9.946   6.950  20.671 -0.1584  0.1046  0.1753
33780W        W40230  21.566   6.932   9.903  0.4076  0.0994 -0.0760
33781W        W40231  10.439   2.497  20.664 -0.1656 -0.2007  0.1054
33782W        W40232   3.916   3.155   9.804 -0.1803 -0.4074  0.0107
33783W        W40233  22.582   6.605   6.202  0.4129  0.0577 -0.2095
33784W        W40234   2.845   5.763  12.306 -0.0427  0.3019 -0.1715
33785W        W40235  24.882   3.800  26.673 -0.1254 -0.0778 -0.0603
33786W        W40236   3.314   0.411  15.749 -0.1004  0.1376  0.0289
33787W        W40237  24.458   4.962  30.675  0.1564  0.0687 -0.3485
33788W        W40238  21.947   5.940   7.840 -0.0559 -0.1315 -0.2637
33789W        W40239   5.058   1.099   1.649  0.1259  0.4475  0.0772
33790W        W40240  11.340   0.459   0.501  0.1559  0.1315  0.2159
33791W        W40241   3.339   0.967   0.134 -0.0871 -0.2225 -0.0196
33792W        W40242  17.049   6.057  27.238  0.1191 -0.0010  0.2321
33793W        W40243  15.898   3.059  17.515 -0.1915  0.2018  0.1977
33794W        W40244   2.763   1.051  18.045  0.1732 -0.0777  0.1630
33795W        W40245  22.341   0.609   9.475 -0.0365 -0.1036  0.2348
33796W        W40246  18.588   1.300   6.332  0.0067  0.0913  0.0568
33797W        W40247   4.849   1.474   7.584  0.2040  0.2707  0.0711
33798W        W40248  23.593   6.494  12.239  0.0022  0.0170  0.1722
33799W        W40249  13.473   7.266  10.436  0.2159 -0.1663 -0.2365
33800W        W40250  20.711   5.080   4.962  0.1720 -0.3015  0.2138
33801W        W40251  19.280   1.100  18.722  0.1331 -0.1153 -0.0225
33802W        W40252  17.914   7.652  31.044  0.2106  0.0163  0.1593
33803W        W40253   2.552   2.388  12.233  0.0704 -0.2050 -0.2153
33804W        W40254  15.851   3.776   8.029  0.0982  0.1493  0.2469
33805W        W40255   1.590   0.247  13.487  0.0052 -0.1947 -0.0794
33806W        W40256  11.306   0.978  29.505  0.1344 -0.1288  0.0227
33807W        W40257  23.516   6.305  10.963  0.0902 -0.4696  0.1252
33808W        W40258   0.861   5.860  26.506  0.0184  0.1290  0.0390
33809W        W40259   0.115   4.120  25.923 -0.0677 -0.0445 -0.0648
33810W        W40260  21.379   1.470  18.751 -0.0389 -0.1466 -0.0194
33811W        W40261  21.240   5.793  32.327  0.1552  0.0774  0.2667
33812W        W40262  16.401   3.163   2.697  0.0871 -0.1036  0.1367
33813W        W40263  11.122   5.121  10.256 -0.1714  0.2546  0.1008
33814W        W40264  10.196   2.749  24.013 -0.1208 -0.3840 -0.1509
33815W        W40265   3.047   7.322  29.626  0.1041 -0.1100 -0.3472
33816W        W40266  10.763   1.671  24.691 -0.3031  0.0750  0.0073
33817W        W40267  14.571   1.003   4.353 -0.1097 -0.0444 -0.0938
33818W        W40268  16.148   2.350  10.837  0.0994  0.1458  0.2433
33819W        W40269  12.291   1.061  32.592  0.0984  0.1201  0.1389
33820W        W40270  22.613   1.865   4.288  0.0839  0.0326 -0.0268
33821W        W40271   5.206   7.551  16.065 -0.3213  0.2766  0.0777
33822W        W40272   2.857   6.354   1.166  0.0369  0.0958 -0.1250
33823W        W40273   1.265   0.168  32.843 -0.0212  0.2841 -0.0340
33824W        W40274  20.743   7.684   6.989 -0.0935  0.1353  0.0526
33825W        W40275   8.292   0.276  23.753  0.0463  0.2340  0.2930
33826W        W40276   4.238   5.293  30.636 -0.0407 -0.2331 -0.1230
33827W        W40277  23.795   3.593   4.723  0.0762  0.1609  0.1005
33828W        W40278  12.959   5.622  28.446 -0.0735  0.0810  0.3195
33829W        W40279   8.027   0.653   7.852 -0.0096  0.0242 -0.0657
33830W        W40280  22.893   1.660   3.451  0.0601  0.2081 -0.0730
33831W        W40281  22.615   0.287  27.165 -0.0535  0.1466 -0.0441
33832W        W40282  15.061   5.659   1.851 -0.0573  0.3086  0.1516
33833W        W40283   6.239   7.090  10.577  0.1396 -0.0041 -0.2939
33834W        W40284  12.418   1.257   5.286  0.1825 -0.1202 -0.2253
33835W        W40285   1.886   3.781  26.600 -0.1068 -0.0479  0.1070
33836W        W40286   4.253   2.070  24.097 -0.0572  0.1444  0.3644
33837W        W40287  13.956   1.495  23.444  0.0193 -0.2951 -0.1507
33838W        W40288  23.211   0.032   5.382 -0.1549 -0.0350 -0.1077
33839W        W40289  16.545   1.247   2.791  0.2087  0.0127 -0.0721
33840W        W40290  23.186   5.662   0.114  0.0978  0.1317  0.1377
33841W        W40291   3.791   5.923   7.191  0.1451  0.2663  0.0423
33842W        W40292   9.737   3.851  28.347 -0.0109 -0.1659  0.1865
33843W        W40293  19.910   4.374  26.983  0.0052 -0.1214 -0.0773
33844W        W40294  11.812   7.005  24.543  0.1357  0.1331 -0.1129
33845W        W40295   6.489   2.207   0.928 -0.0240  0.0270 -0.3362
33846W        W40296  23.193   7.395  11.097  0.3380  0.2733  0.0074
33847W        W40297  14.812   1.510  15.884  0.1169 -0.0347  0.0575
33848W        W40298  24.693   0.763   3.457 -0.1202 -0.1139 -0.1631
33849W        W40299   2.954   7.228  12.504 -0.0600 -0.3052  0.0726
33850W        W40300   3.789   1.046   9.385 -0.1384  0.0254 -0.1752
33851W        W40301  23.660   5.873   4.241 -0.0164  0.0244 -0.1085
33852W        W40302  19.757   3.929  27.944 -0.0308 -0.3240  0.0027
33853W        W40303   2.079   2.160   1.491 -0.0926 -0.0257 -0.1221
33854W        W40304  21.148   0.506   1.880  0.2461 -0.2012  0.0777
33855W        W40305   4.017   1.377  18.056  0.0518  0.2071  0.1889
33856W        W40306  17.014   7.257  17.205  0.1568  0.1524  0.1141
33857W        W40307   0.765   7.110  30.198  0.0165 -0.0431 -0.1516
33858W        W40308  11.313   3.433  28.118 -0.0216 -0.0293 -0.1978
33859W        W40309   9.111   2.348  28.780  0.2206  0.2604  0.1781
33860W        W40310  16.324   7.363  26.726 -0.2595  0.0691  0.2543
33861W        W40311  16.007   5.482  17.313  0.0197  0.0047 -0.1827
33862W        W40312   3.710   1.596  32.668 -0.0450 -0.0476 -0.1156
33863W        W40313   0.561   2.708  14.578  0.0575  0.1042  0.1865
33864W        W40314  18.027   4.910  24.358  0.0748  0.1440 -0.0393
33865W        W40315  10.208   1.728   7.095  0.0878  0.0647 -0.0042
33866W        W40316   7.583   6.339  13.784  0.2122  0.0547  0.2327
33867W        W40317   6.082   4.020  22.866  0.2745 -0.0374  0.3393
33868W        W40318  10.718   0.328   8.778  0.0843  0.0887 -0.3680
33869W        W40319   8.973   7.040   6.347  0.0679 -0.1424 -0.2102
33870W        W40320   9.232   4.700  20.371  0.2822  0.0270 -0.3282
33871W        W40321   9.592   0.067   8.755 -0.2463 -0.1689 -0.2648
33872W        W40322  24.790   4.915  22.454  0.0395  0.0373 -0.1989
33873W        W40323  17.091   0.680  32.315  0.0624 -0.0280 -0.0254
33874W        W40324  24.944   2.968   7.303  0.1571  0.0480 -0.3878
33875W        W40325  18.843   6.634   4.375 -0.1588  0.2276  0.1780
33876W        W40326  24.157   3.279   8.583 -0.0223 -0.2530 -0.1645
33877W        W40327  13.430   1.072  22.207 -0.0789  0.2516 -0.1422
33878W        W40328   3.148   3.684   1.435 -0.0057 -0.4478  0.2345
33879W        W40329  14.538   4.932  32.933 -0.2828  0.0437 -0.1122
33880W        W40330   7.040   1.094  12.751  0.2316 -0.1192 -0.0727
33881W        W40331   5.101   6.726   6.164 -0.1716  0.0655 -0.2330
33882W        W40332   4.238   2.744   9.845 -0.2520  0.4630 -0.3240
33883W        W40333  18.876   6.139  32.663  0.3796 -0.0830  0.0075
33884W        W40334   2.797   1.790  26.306  0.1882 -0.1756  0.2056
33885W        W40335  14.150   6.880   4.642  0.0402  0.1582 -0.0207
33886W        W40336   6.162   0.360   8.266  0.2594 -0.0084  0.0335
33887W        W40337   8.120   5.894  29.247  0.0775 -0.1849 -0.2427
33888W        W40338  12.219   6.081  23.250 -0.1305 -0.1884  0.3463
33889W        W40339  15.447   6.322   6.328 -0.0320  0.0855  0.1115
33890W        W40340   7.550   4.124   9.432 -0.2092 -0.0183 -0.1279
33891W        W40341  10.561   1.729   4.088 -0.1800 -0.0661  0.1885
33892W        W40342  18.103   0.548  31.456  0.1933  0.0074 -0.0482
33893W        W40343  21.930   1.799   2.955  0.0292  0.0596 -0.0874
33894W        W40344   8.641   2.648   7.077  0.2072  0.2557 -0.1313
33895W        W40345   5.276   3.723  31.474  0.0836 -0.0768  0.1275
33896W        W40346   2.044   4.666   9.970  0.0553  0.2270  0.0055
33897W        W40347  22.084   7.102  10.681  0.0767 -0.2507 -0.1794
33898W        W40348  13.531   4.043  17.789  0.1301  0.1485  0.0171
33899W        W40349   4.038   0.956  27.776 -0.0339 -0.2276  0.0120
33900W        W40350  21.057   4.376  29.633  0.0421  0.1185  0.0962
33901W        W40351   0.089   1.501  25.947  0.0014 -0.2043  0.4620
33902W        W40352  16.300   0.345  19.781 -0.0046  0.1355  0.0710
33903W        W40353  12.296   4.311  19.497 -0.1091 -0.0037 -0.1912
33904W        W40354  18.479   5.528  26.473  0.4326 -0.0762 -0.1451
33905W        W40355  21.656   7.673  19.135  0.1803 -0.0003  0.1526
33906W        W40356  21.714   5.115   7.640  0.1976  0.1774 -0.1878
33907W        W40357  22.900   7.629   1.805  0.2127  0.0613  0.2655
33908W        W40358   0.909   3.481  22.213 -0.0393 -0.0670  0.0230
33909W        W40359  20.629   1.870   6.422 -0.0119  0.0454 -0.4092
33910W        W40360  12.128   1.821  32.608 -0.0887 -0.1517 -0.5742
33911W        W40361  22.249   2.671  32.697  0.1460  0.4309 -0.0397
33912W        W40362  12.700   3.004  24.824 -0.1260 -0.2805 -0.1367
33913W        W40363  13.099   7.117  26.922  0.1340  0.0382  0.4041
33914W        W40364  19.297   5.745  15.560 -0.0601 -0.0681  0.1235
33915W        W40365   5.273   1.636  12.248  0.0313 -0.0028 -0.3971
33916W        W40366  17.602   4.387  32.759 -0.0670 -0.2614 -0.1053
33917W        W40367  20.298   2.160  31.303 -0.1470  0.2912 -0.1014
33918W        W40368  11.256   4.718  31.612 -0.0506  0.0821 -0.1315
33919W        W40369  14.946   2.996  28.763  0.1844  0.3020  0.2517
33920W        W40370  17.213   2.325  18.385 -0.1907 -0.0938  0.0990
33921W        W40371   3.772   3.952  30.918 -0.1216 -0.0849  0.0848
33922W        W40372   6.483   4.008  11.259 -0.1040  0.1136 -0.1419
33923W        W40373  17.561   1.570  16.351  0.1386  0.1973 -0.1841
33924W        W40374  11.581   2.687   8.447  0.3678 -0.0401  0.2691
33925W        W40375  10.102   2.390  24.752 -0.0114  0.2692  0.0938
33926W        W40376  24.790   2.619  13.505  0.1863  0.0839  0.1696
33927W        W40377  17.677   4.673  31.754  0.0774  0.2418 -0.0803
33928W        W40378   3.023   1.393  31.067 -0.1239 -0.0991  0.0274
33929W        W40379  14.955   7.281   8.312  0.4674 -0.0873 -0.2608
33930W        W40380   2.487   4.149  23.685  0.0329 -0.0643  0.0458
33931W        W40381  18.519   3.673   4.479  0.0562 -0.0034  0.2350
33932W        W40382  16.172   5.274  26.013  0.2558  0.1764 -0.0272
33933W        W40383  10.516   0.487   0.964 -0.3459 -0.3423  0.3038
33934W        W40384  10.576   7.652   1.552  0.0797 -0.0638 -0.0126
33935W        W40385   7.403   2.825  22.763  0.0336 -0.2275 -0.2672
33936W        W40386  13.190   5.365   8.539  0.0513 -0.0632 -0.1341
33937W        W40387  23.535   2.990   9.796  0.0475 -0.0686 -0.0178
33938W        W40388  20.434   1.896  10.672 -0.1838 -0.2263 -0.1219
33939W        W40389  12.288   3.673   2.703 -0.0554 -0.1935  0.1210
33940W        W40390  24.655   1.110  21.833  0.3802  0.1432 -0.2116
33941W        W40391  16.832   7.571  18.511  0.0478  0.1042 -0.2262
33942W        W40392   6.747   6.684  29.785 -0.0195  0.0423 -0.2208
33943W        W40393   9.616   6.096   6.141 -0.3468 -0.0251 -0.1334
33944W        W40394  16.526   2.412   3.865 -0.1014  0.1119  0.3194
33945W        W40395  13.763   3.872  10.597  0.2681 -0.2721  0.1024
33946W        W40396  20.929   7.678   9.096 -0.0142  0.1054 -0.2361
33947W        W40397   4.738   2.125  31.654  0.0009  0.0990 -0.3099
33948W        W40398   0.641   1.400  15.274 -0.2225 -0.0942 -0.0038
33949W        W40399  18.146   0.715  19.661 -0.0896  0.0798 -0.3259
33950W        W40400  12.137   7.739   8.204  0.1010  0.2568 -0.2211
33951W        W40401   1.266   5.817  13.935 -0.0200  0.3148 -0.1797
33952W        W40402   5.370   4.245   7.087 -0.0464  0.1263 -0.0863
33953W        W40403   4.588   5.130  10.719  0.1504 -0.0544 -0.0550
33954W        W40404   9.429   0.259  21.416 -0.1268 -0.0261 -0.0604
33955W        W40405   4.071   0.513   7.220  0.1743 -0.4531  0.1699
33956W        W40406  15.781   7.118  20.634 -0.3938 -0.2275  0.0472
33957W        W40407   7.067   4.301   9.160 -0.0236 -0.3027 -0.1829
33958W        W40408   3.428   1.484  16.186  0.1384  0.0472 -0.3032
33959W        W40409   6.359   5.310  15.768 -0.0691  0.0365 -0.3211
33960W        W40410  20.817   2.930   2.042  0.0172  0.0769 -0.1013
33961W        W40411   8.429   4.509  29.266 -0.1136 -0.3336  0.1930
33962W        W40412  15.432   7.610  24.452 -0.1428  0.2215 -0.1500
33963W        W40413  12.374   4.070  10.282  0.2925  0.2185  0.0131
33964W        W40414  15.797   5.555   7.831  0.0176 -0.2057 -0.0430
33965W        W40415  21.571   0.325  26.644 -0.1119  0.2425  0.2130
33966W        W40416  12.801   7.401   8.869 -0.0153 -0.1933 -0.1606
33967W        W40417   0.883   4.427   7.066 -0.0870  0.0010 -0.0293
33968W        W40418  12.682   7.010  30.046 -0.2573 -0.1582 -0.2702
33969W        W40419  21.996   2.796  31.699 -0.1256  0.0215  0.1100
33970W        W40420   6.082   7.543   1.274 -0.0629 -0.4709  0.0686
33971W        W40421  14.829   6.407   7.635  0.0108 -0.0968 -0.4185
33972W        W40422   0.793   5.648   4.604 -0.1055  0.1657 -0.1317
33973W        W40423  17.734   3.877   2.996  0.0379  0.0227 -0.2550
33974W        W40424  20.561   0.286   5.718 -0.1571  0.5079 -0.0973
33975W        W40425   6.935   0.843   8.060  0.0123 -0.1589  0.2399
33976W        W40426  13.039   2.787   9.722 -0.1223 -0.2044 -0.0247
33977W        W40427  23.271   7.529   3.417  0.0103 -0.1326  0.2700
33978W        W40428   0.553   0.413   3.745  0.0335 -0.1044 -0.4191
33979W        W40429  20.738   7.570  22.637 -0.2025 -0.1799  0.3681
33980W        W40430   6.446   0.568   7.712  0.1365 -0.1161 -0.0646
33981W        W40431  21.608   0.792  23.853 -0.3076 -0.1038 -0.1960
33982W        W40432  17.107   6.722  18.162 -0.0235 -0.1854  0.0407
33983W        W40433  12.476   4.951  29.654  0.0207  0.1064  0.1617
33984W        W40434  16.130   7.584  29.425  0.2031 -0.0978  0.1545
33985W        W40435  14.127   5.482   1.869  0.2758  0.0123 -0.1369
33986W        W40436   1.972   0.410  26.844  0.3194 -0.1535 -0.0635
33987W        W40437  18.219   6.761   8.668  0.2807 -0.0937 -0.0533
33988W        W40438  23.073   2.278   5.350  0.5504  0.0571 -0.0589
33989W        W40439  18.358   4.724  16.071  0.0246  0.3267  0.2002
33990W        W40440   7.266   4.737   0.518  0.1989 -0.3256  0.0881
33991W        W40441  15.029   2.665  18.332 -0.0712 -0.1765 -0.0337
33992W        W40442   9.181   5.273  28.963  0.1210 -0.0310 -0.1137
33993W        W40443  15.104   3.528   6.013  0.0880  0.0959  0.0800
33994W        W40444  14.861   2.696  21.815 -0.0439 -0.0589  0.2585
33995W        W40445   2.787   0.887   7.255  0.0546  0.1970  0.1063
33996W        W40446   4.766   2.355  25.213  0.1023  0.2785  0.0801
33997W        W40447  13.823   3.712   4.704 -0.0157 -0.1282 -0.0658
33998W        W40448   6.240   4.467   5.855 -0.0822 -0.3103 -0.0727
33999W        W40449   0.070   5.005  14.082 -0.3792 -0.2938  0.3008
34000W        W40450  11.255   5.623   5.529  0.2988  0.5249 -0.3778
34001W        W40451   9.868   0.877   1.911  0.0628 -0.2031  0.1792
34002W        W40452  24.885   4.911   1.084  0.1989  0.1196  0.0009
34003W        W40453  10.779   0.498  20.763 -0.1582 -0.0276 -0.0467
34004W        W40454   5.070   2.921  26.477 -0.0472  0.2654 -0.0129
34005W        W40455   8.209   3.597  32.930  0.3330  0.0236 -0.1666
34006W        W40456  15.075   6.658   2.279  0.0863 -0.1312 -0.0788
34007W        W40457  18.645   3.229   6.211  0.0213  0.0951  0.0083
34008W        W40458  19.773   2.639   2.849  0.0906 -0.1427  0.0382
34009W        W40459   2.545   5.113  30.910  0.1096  0.2830  0.0060
34010W        W40460   5.560   2.871  16.877 -0.0632  0.2307 -0.0712
34011W        W40461  18.741   6.097  16.042 -0.1633  0.2585 -0.2319
34012W        W40462   0.561   0.377   0.693 -0.0909  0.2437 -0.1704
34013W        W40463  13.128   6.247   8.791  0.2103  0.1338  0.0324
34014W        W40464  16.969   6.015  32.753 -0.0784  0.3469  0.0954
34015W        W40465  10.830   2.291   3.197  0.1526 -0.0723 -0.1953
34016W        W40466   2.662   6.689  26.762  0.0910 -0.2848 -0.0190
34017W        W40467  15.347   0.144  21.961  0.2060  0.1224  0.3357
34018W        W40468   6.239   7.364  14.632  0.0173  0.0008  0.1645
34019W        W40469  17.259   5.939   0.578 -0.3525  0.0538 -0.1844
34020W        W40470   7.285   6.417  30.737  0.2515  0.0335 -0.1428
34021W        W40471  18.693   3.775  25.631 -0.1560 -0.2051 -0.0831
34022W        W40472  24.807   2.209   7.999 -0.2832 -0.1924  0.3156
34023W        W40473  22.996   5.833   3.531  0.1941  0.3476  0.1078
34024W        W40474  17.658   2.325  31.819 -0.5129 -0.1396  0.2486
34025W        W40475  15.724   6.677   6.024  0.1577  0.0980 -0.1434
34026W        W40476   3.144   3.947  29.160  0.3007  0.0226 -0.0515
34027W        W40477  12.696   6.478   9.984 -0.0314  0.1700  0.0333
34028W        W40478  13.140   5.355  25.167  0.1380  0.1235 -0.2408
34029W        W40479   6.536   5.207  25.818 -0.0971  0.1202 -0.1090
34030W        W40480  14.712   3.922  25.114 -0.1058 -0.0885 -0.1934
34031W        W40481   7.564   6.131  10.221  0.1102  0.1420  0.2064
34032W        W40482   1.821   1.931   4.769 -0.2775  0.1508  0.2638
34033W        W40483   2.906   3.075   1.609 -0.3269 -0.1988  0.1034
34034W        W40484  21.842   1.294  20.168  0.1711 -0.3080  0.0114
34035W        W40485  13.933   0.469  29.440 -0.1913  0.1359  0.0543
34036W        W40486  16.474   7.751  27.644  0.1324 -0.0606  0.0164
34037W        W40487  24.114   2.208  25.058 -0.0669 -0.0935  0.0126
34038W        W40488   8.609   2.450  11.976  0.4027  0.1546 -0.0477
34039W        W40489  23.671   6.814   7.547 -0.2035 -0.1997 -0.0227
34040W        W40490   3.725   4.652  13.909 -0.2251  0.0973 -0.0826
34041W        W40491   4.721   1.359   4.333 -0.0145 -0.0962  0.3114
34042W        W40492  19.089   6.818   3.578  0.1376 -0.2210  0.0589
34043W        W40493   4.406   3.801  15.736 -0.1765  0.1071  0.1392
34044W        W40494  10.975   0.317  31.418  0.1986  0.2563 -0.3369
34045W        W40495  12.745   4.373  32.991 -0.0500 -0.0944  0.0338
34046W        W40496   7.243   1.332  16.137  0.1409 -0.1055 -0.1129
34047W        W40497   3.479   1.122  24.365  0.1447 -0.3324  0.3063
34048W        W40498   3.097   2.771  30.628 -0.2442 -0.0960  0.0754
34049W        W40499  18.294   1.888  17.678  0.0867  0.1931  0.2653
34050W        W40500  19.779   6.351  25.608  0.1599 -0.1578  0.0187
34051W        W40501  15.452   4.465   2.185 -0.0756 -0.0414 -0.0657
34052W        W40502  13.857   3.484   9.075 -0.4201 -0.0806 -0.0840
34053W        W40503  23.983   0.407  30.603 -0.1314  0.4426  0.1149
34054W        W40504   0.442   0.686  27.165 -0.2534  0.2811  0.2468
34055W        W40505  19.175   1.714  20.968  0.1657 -0.0909  0.0789
34056W        W40506  14.296   0.532   6.247  0.2405 -0.3905  0.1707
34057W        W40507   2.638   1.909   5.203 -0.0747 -0.0990  0.0422
34058W        W40508  15.268   2.508   7.230  0.2711 -0.2621 -0.0917
34059W        W40509   3.481   1.497  15.607 -0.1166  0.1573 -0.1696
34060W        W40510   9.263   7.541   7.566  0.2025  0.1055 -0.1965
34061W        W40511  17.098   7.771  21.756  0.0860  0.0762 -0.0578
34062W        W40512   3.616   1.948   9.341 -0.1346  0.1215 -0.3347
34063W        W40513   2.896   6.062  32.766  0.2128  0.2899 -0.2810
34064W        W40514   4.441   3.013   5.567 -0.0506 -0.0991 -0.0977
34065W        W40515   5.064   5.376   2.039  0.2279 -0.0743  0.0937
34066W        W40516   2.885   4.660  14.982  0.0654  0.2457  0.3643
34067W        W40517  18.989   7.511  16.428 -0.0127  0.1119  0.2766
34068W        W40518  18.883   7.168  32.070 -0.2832 -0.0696 -0.3591
34069W        W40519   3.057   1.488   0.209 -0.2587 -0.1202  0.1887
34070W        W40520   3.747   4.264  11.274  0.0671 -0.1381  0.0367
34071W        W40521   1.385   0.044   8.511 -0.0935 -0.0669  0.1936
34072W        W40522  19.720   0.772  20.553  0.0628 -0.2677 -0.2072
34073W        W40523  14.749   4.612  31.953  0.3234 -0.0987  0.0974
34074W        W40524  10.701   1.575   9.250  0.0961  0.2797  0.1633
34075W        W40525  24.404   3.755  23.752  0.1456  0.0148 -0.2096
34076W        W40526  15.127   7.435   2.281 -0.0550  0.1225 -0.0778
34077W        W40527  14.214   4.666   4.508 -0.1429  0.0258  0.1774
34078W        W40528   8.727   0.037   3.552 -0.0883  0.0339  0.0046
34079W        W40529  18.568   7.047  29.251 -0.1393  0.0649 -0.1821
34080W        W40530  12.828   0.329  25.417 -0.3225  0.1357  0.2776
34081W        W40531  12.980   4.062   4.628 -0.0482  0.1595 -0.1735
34082W        W40532   2.716   5.024   7.666  0.3086 -0.1435  0.0487
34083W        W40533  18.893   0.086  29.137 -0.1204  0.0477 -0.0406
34084W        W40534   0.448   6.812  24.981  0.1081  0.0469 -0.0410
34085W        W40535   7.572   5.303  14.603 -0.2669  0.1701 -0.0178
34086W        W40536  10.947   7.214  11.178 -0.1117 -0.0724  0.1103
34087W        W40537  19.050   6.842   7.731  0.1484  0.0172 -0.0703
34088W        W40538   3.839   2.422  32.840 -0.1968 -0.0436 -0.1467
34089W        W40539   9.008   2.597  24.347  0.0700  0.1076 -0.2551
34090W        W40540  19.618   3.520  10.284  0.2477  0.0929 -0.1119
34091W        W40541  10.241   2.849  21.070  0.0130 -0.1045  0.0150
34092W        W40542  11.421   3.540   5.183 -0.1076  0.4232  0.1591
34093W        W40543   9.630   1.480  11.952 -0.3274 -0.0138 -0.1494
34094W        W40544  10.935   6.676   3.658 -0.2015  0.1628  0.2328
34095W        W40545  16.912   7.774   1.655 -0.0081 -0.0432  0.0630
34096W        W40546  20.752   5.213  29.857 -0.0052  0.0077  0.0365
34097W        W40547  21.775   5.512   2.925 -0.4388 -0.2024  0.2005
34098W        W40548   5.708   1.106   5.753  0.0513  0.0588 -0.0089
34099W        W40549   3.326   2.124  22.823  0.0313  0.1763 -0.2899
34100W        W40550   4.855   0.989  26.645 -0.0514  0.0830 -0.0037
34101W        W40551  22.839   1.386  27.388 -0.3298  0.0016 -0.0609
34102W        W40552   3.535   5.155   1.129 -0.0641  0.0664 -0.0932
34103W        W40553  10.643   6.965  31.943 -0.1334  0.0323  0.1741
34104W        W40554  14.837   7.270   7.267  0.0476  0.1656 -0.2676
34105W        W40555  11.220   4.804   7.534  0.5132 -0.0841 -0.3354
34106W        W40556  15.168   6.782   7.901  0.0471  0.1411 -0.4423
34107W        W40557  14.913   6.305   4.908 -0.2547 -0.1742 -0.1211
34108W        W40558  16.223   1.724  23.386 -0.2528  0.0374  0.0637
34109W        W40559  12.404   1.776  28.593  0.2646  0.0180  0.2530
34110W        W40560  13.046   0.970  10.004  0.0201 -0.2210 -0.3143
34111W        W40561   5.577   7.576  16.436  0.0536 -0.1894  0.2053
34112W        W40562   2.858   6.836  12.956 -0.0315 -0.4907  0.0284
34113W        W40563   2.235   2.643  26.603  0.2013 -0.1297 -0.1075
34114W        W40564   7.458   5.098  13.765  0.0581  0.2085 -0.0516
34115W        W40565  10.506   0.590   3.288  0.0212  0.1827  0.2980
34116W        W40566   2.678   7.444  25.049  0.0284  0.2171  0.1266
34117W        W40567   2.736   6.501  29.374 -0.0287 -0.0002  0.3236
34118W        W40568  21.116   0.913  31.807  0.1052  0.0332 -0.2144
34119W        W40569   3.564   6.200  29.452 -0.0744  0.2852  0.2575
34120W        W40570  21.565   4.306  32.655 -0.2003 -0.0395  0.3187
34121W        W40571  24.811   0.298  23.065 -0.2533 -0.0988 -0.0318
34122W        W40572  24.332   1.109  21.457 -0.0018  0.2449  0.0537
34123W        W40573   9.227   1.866   7.290  0.1488 -0.0989  0.4187
34124W        W40574  21.595   2.926  30.655  0.1106 -0.1907 -0.1410
34125W        W40575   6.218   7.162  23.809 -0.2807 -0.2191 -0.2317
34126W        W40576  13.047   1.379  31.542 -0.0860 -0.1016 -0.0924
34127W        W40577  10.911   3.226   9.336 -0.0076  0.0823 -0.0658
34128W        W40578   6.343   0.646  10.207 -0.2786 -0.0060 -0.1540
34129W        W40579  12.021   5.115  24.062  0.0129 -0.1316 -0.0197
34130W        W40580   2.220   6.805  28.649 -0.0604  0.0935  0.0989
34131W        W40581   5.698   0.850  30.965  0.2934  0.0458 -0.1439
34132W        W40582   9.044   5.673  24.535 -0.1924 -0.1918 -0.3362
34133W        W40583  16.658   1.030  32.683 -0.0371  0.0152  0.1095
34134W        W40584   9.151   1.105  27.252  0.0596  0.0775  0.1954
34135W        W40585   1.792   6.835  14.801 -0.1089  0.0552  0.0350
34136W        W40586  10.547   7.194  29.443 -0.1712 -0.1419  0.0926
34137W        W40587  13.451   0.445  29.621 -0.1430 -0.0580  0.0561
34138W        W40588   4.209   0.680   8.576 -0.0220  0.0544  0.1941
34139W        W40589  12.737   1.418  11.472 -0.0152  0.0773  0.2156
34140W        W40590  12.452   6.896  18.930  0.0400 -0.0024 -0.1034
34141W        W40591  13.842   6.376  23.696 -0.2243 -0.2456 -0.0092
34142W        W40592  10.712   2.884  24.026 -0.2687 -0.2152 -0.1542
34143W        W40593   4.593   0.549   8.938 -0.0650  0.5106  0.0577
34144W        W40594  13.784   7.683  24.764 -0.0858 -0.0191 -0.2329
34145W        W40595  23.929   5.071  13.816 -0.0902  0.1509  0.2919
34146W        W40596  19.973   3.573  22.219 -0.0644 -0.1767 -0.0885
34147W        W40597   2.302   5.464   2.884  0.2894  0.1544 -0.2340
34148W        W40598   9.593   2.461  30.955 -0.2688  0.2035  0.2961
34149W        W40599  16.078   5.868   8.612  0.0078  0.0118  0.1253
34150W        W40600   6.669   0.110   7.029  0.0202 -0.1147  0.2876
34151W        W40601   7.273   0.593   3.834  0.3633 -0.0935 -0.1330
34152W        W40602   4.402   3.198   7.894 -0.1046 -0.1182 -0.0752
34153W        W40603  16.639   5.756  10.865  0.1220 -0.5006  0.1244
34154W        W40604   5.858   4.660  13.759 -0.2873  0.0563  0.3504
34155W        W40605  24.057   1.428  11.459  0.2366 -0.1914 -0.0206
34156W        W40606   8.661   1.198  22.313  0.1790 -0.0739 -0.0579
34157W        W40607  11.480   4.798  10.033 -0.1481 -0.0611  0.0535
34158W        W40608   3.706   3.665  15.674 -0.0021  0.0652  0.2278
34159W        W40609  11.392   7.469  20.372 -0.0233  0.1390 -0.0941
34160W        W40610  19.889   4.278  18.652  0.0095  0.0008  0.0297
34161W        W40611   2.751   3.383   4.579 -0.0158 -0.0401  0.0394
34162W        W40612   1.763   7.050   8.372  0.0099 -0.1455 -0.2961
34163W        W40613  16.010   7.286   0.542  0.0873 -0.0959  0.2517
34164W        W40614   1.903   6.456  28.317  0.1268 -0.2653  0.0136
34165W        W40615   3.864   4.569  26.428  0.1435 -0.1299  0.1400
34166W        W40616  15.391   1.272  32.616  0.0243  0.0434 -0.3178
34167W        W40617  16.358   3.527  28.372  0.2144  0.0441 -0.1895
34168W        W40618  14.910   6.476  27.754  0.1949  0.0232 -0.1654
34169W        W40619  20.314   2.702   3.550 -0.2894  0.1113  0.1287
34170W        W40620  20.298   7.772  19.507  0.0246 -0.1972  0.4271
34171W        W40621   4.659   1.649   1.211  0.0619 -0.5301 -0.3076
34172W        W40622   8.445   0.821  30.988 -0.1581 -0.1122  0.2896
34173W        W40623  22.681   3.169   4.478  0.0735  0.1095 -0.0017
34174W        W40624  17.143   1.319  16.152 -0.0231 -0.0897 -0.2271
34175W        W40625  23.805   7.155   6.768 -0.1337  0.0755 -0.0303
34176W        W40626   2.056   0.404   1.876 -0.0001  0.0713  0.2494
34177W        W40627  15.921   6.398   6.403 -0.2209  0.0515 -0.2709
34178W        W40628  19.095   3.069   5.044 -0.1553  0.0178  0.0284
34179W        W40629   4.382   1.011   4.481  0.0594 -0.0554  0.0545
34180W        W40630  24.882   0.405  14.579 -0.2599 -0.0198  0.1276
34181W        W40631   1.081   2.713  12.611 -0.1186 -0.0373 -0.0646
34182W        W40632   7.701   3.101   7.979  0.0854 -0.0869 -0.0705
34183W        W40633   1.053   6.491   1.060  0.0767 -0.0841 -0.0075
34184W        W40634   2.991   5.152  24.626  0.1278 -0.1896 -0.2165
34185W        W40635  23.800   6.206  21.339 -0.1287  0.0233  0.0211
34186W        W40636   5.178   6.540   5.627  0.0425 -0.0213 -0.1246
34187W        W40637   1.482   1.640  30.344 -0.0704  0.1310  0.0000
34188W        W40638  23.694   1.952  28.994 -0.0598  0.1498 -0.2130
34189W        W40639  21.634   0.381  24.172 -0.1473  0.0070 -0.0228
34190W        W40640   4.476   1.281  29.008  0.1312 -0.1187  0.2307
34191W        W40641   4.086   3.606  11.668  0.0110  0.1360  0.0104
34192W        W40642   5.410   7.673   1.672  0.0057  0.1670  0.2295
34193W        W40643   7.440   4.681  26.107 -0.0248 -0.2228  0.1700
34194W        W40644   5.146   5.828   7.696 -0.0421  0.1082 -0.2899
34195W        W40645  13.053   7.325   6.617  0.0074 -0.0918  0.0852
34196W        W40646   0.911   3.486   1.419  0.1193 -0.1434 -0.0371
34197W        W40647  21.620   7.517  20.178  0.0793  0.0275 -0.1358
34198W        W40648   3.980   0.881  25.167 -0.1729 -0.2335 -0.3928
34199W        W40649  23.777   4.139  10.491  0.0183  0.3499  0.2851
34200W        W40650   7.969   4.076  21.505  0.0305  0.0902  0.2582
34201W        W40651  16.451   3.538   5.381  0.1447  0.2947  0.1723
34202W        W40652  22.629   5.234  31.323  0.3355 -0.0212 -0.1702
34203W        W40653  18.494   4.549   4.469 -0.0589  0.0568 -0.0906
34204W        W40654  23.022   1.161  28.149 -0.0411 -0.3191 -0.1484
34205W        W40655   4.228   7.098  31.613 -0.1047 -0.0200  0.0965
34206W        W40656   0.108   6.219  30.527  0.0601  0.2399 -0.2076
34207W        W40657   8.616   4.811  26.374 -0.2650  0.1198  0.2863
34208W        W40658  10.554   4.230  23.812 -0.0571 -0.1834 -0.1065
34209W        W40659  14.062   4.102   9.795  0.0424  0.0802  0.0621
34210W        W40660  19.884   6.251   1.805 -0.0884  0.0334 -0.0789
34211W        W40661   9.080   4.543  21.358 -0.0575  0.1850 -0.1073
34212W        W40662  21.137   2.699  21.345  0.0627  0.2354 -0.2673
34213W        W40663  17.995   5.378  22.277  0.1987  0.0023  0.2218
34214W        W40664  11.995   4.764   1.280 -0.1718  0.0324  0.0841
34215W        W40665  12.129   1.080  20.059  0.0818  0.0491 -0.0462
34216W        W40666   2.067   0.773  30.882 -0.0896  0.2764 -0.1075
34217W        W40667  20.631   5.968  11.828 -0.0656 -0.0320  0.0929
34218W        W40668   2.222   2.796  10.484  0.0230  0.4668 -0.3506
34219W        W40669  15.523   6.319  18.977  0.0989  0.0078  0.1825
34220W        W40670   2.866   6.597   1.632 -0.1123  0.1108 -0.3425
34221W        W40671  19.785   4.479   1.753 -0.0582 -0.1975  0.0227
34222W        W40672  18.388   4.466  17.272 -0.3793  0.0481  0.0339
34223W        W40673  15.121   3.626  17.913 -0.0771 -0.0449  0.1051
34224W        W40674  23.665   6.883   3.707  0.4257 -0.0002  0.1260
34225W        W40675  14.445   5.553  23.607 -0.2213  0.0171 -0.3262
34226W        W40676  11.277   0.217  32.904  0.0411 -0.0891  0.0463
34227W        W40677  21.584   0.526  29.618  0.0868 -0.0151 -0.0794
34228W        W40678  19.902   2.711   7.284  0.1980 -0.1179 -0.2850
34229W        W40679  19.973   6.574   8.397  0.0284  0.1940 -0.0653
34230W        W40680  18.368   5.679  27.972 -0.0299  0.0862  0.0837
34231W        W40681  23.227   5.478   8.198 -0.0213 -0.0175  0.1309
34232W        W40682  19.465   0.745  27.929 -0.0990  0.2114  0.1041
34233W        W40683   5.725   2.729   7.207  0.1010 -0.0753  0.1181
34234W        W40684  12.374   3.141  28.420  0.2015  0.0036 -0.0516
34235W        W40685  16.401   7.096  28.306  0.0958  0.0140  0.1426
34236W        W40686   7.189   0.400  30.380 -0.1422 -0.1587 -0.0908
34237W        W40687   6.143   1.642   9.940  0.6430 -0.1786  0.0990
34238W        W40688   1.153   3.200  11.336  0.0893 -0.0325  0.1659
34239W        W40689  23.406   4.897  14.329  0.0924 -0.2414 -0.1719
34240W        W40690  22.415   1.055  28.624  0.0620 -0.0100  0.1296
34241W        W40691   6.198   3.982   5.735 -0.1138  0.0983 -0.1403
34242W        W40692   3.256   4.548   5.792 -0.1825 -0.1180 -0.0523
34243W        W40693   3.883   5.318  24.392  0.2168 -0.1471 -0.0232
34244W        W40694  12.930   1.847  26.396 -0.2130 -0.1357 -0.2018
34245W        W40695  12.377   5.055  28.364 -0.1582  0.0295 -0.1450
34246W        W40696   4.157   2.309  23.297 -0.0938 -0.1480  0.3269
34247W        W40697  11.003   4.389  25.333  0.0136 -0.0995 -0.0602
34248W        W40698   1.661   4.828  31.121 -0.0109 -0.1614  0.0833
34249W        W40699   6.069   2.963  28.602 -0.1868 -0.0476  0.1888
34250W        W40700   6.399   1.753   4.267 -0.0256  0.1235  0.1317
34251W        W40701   4.940   6.543  30.643 -0.0216 -0.1626  0.0486
34252W        W40702  23.936   2.176  23.967  0.0894 -0.1986 -0.2780
34253W        W40703  12.738   4.522  17.932 -0.1857 -0.0570 -0.0409
34254W        W40704  12.647   1.897  24.090 -0.2421 -0.1523  0.0649
34255W        W40705  14.512   6.593  17.694  0.1707 -0.0413  0.1002
34256W        W40706   6.533   2.482  10.447 -0.1250 -0.0216 -0.0523
34257W        W40707  11.545   5.265   1.688 -0.1876  0.1031  0.0280
34258W        W40708   3.988   0.074  24.481 -0.1198 -0.2497 -0.0809
34259W        W40709   0.206   2.161  22.984  0.3264  0.0834  0.0043
34260W        W40710  12.090   6.147   7.002 -0.0107  0.0776 -0.0937
34261W        W40711  21.985   2.532  10.653  0.1028  0.1234 -0.2355
34262W        W40712  18.672   7.495  29.463 -0.0667  0.1779  0.0510
34263W        W40713   7.992   0.532  30.725  0.2069  0.0543 -0.2185
34264W        W40714  22.679   2.037  22.069 -0.4296 -0.1291  0.0425
34265W        W40715   4.284   2.530  10.988 -0.3345 -0.0401  0.1023
34266W        W40716   1.302   4.430  23.091 -0.0725  0.0268 -0.1517
34267W        W40717   6.503   4.363   5.020  0.2380  0.0618 -0.0791
34268W        W40718  21.208   1.671   7.952  0.0815  0.2615  0.1289
34269W        W40719  12.042   6.749   4.823  0.0604  0.0540 -0.1354
34270W        W40720  19.820   6.439  18.958  0.2669 -0.0265 -0.1151
34271W        W40721   0.832   6.146   6.824 -0.0456 -0.0964 -0.0455
34272W        W40722  19.926   2.587   6.083  0.3804  0.4020 -0.0406
34273W        W40723  13.518   1.831   3.969  0.0796  0.3140 -0.1421
34274W        W40724   6.403   6.870  17.239 -0.0035 -0.2058 -0.1270
34275W        W40725   4.319   1.816  29.628  0.1008 -0.2388  0.0900
34276W        W40726   9.348   2.076   3.091 -0.0871  0.0079 -0.1812
34277W        W40727  13.337   4.601   6.479  0.0725 -0.0135  0.1600
34278W        W40728   7.536   2.390  14.170 -0.1651  0.1240 -0.2664
34279W        W40729   5.363   3.886  27.530  0.0590  0.0057  0.1766
34280W        W40730   2.288   4.422  14.696 -0.0085 -0.1174 -0.0220
34281W        W40731  18.610   3.486   7.482  0.0390  0.0795 -0.1660
34282W        W40732   3.449   5.326  14.507 -0.2924  0.0718 -0.1674
34283W        W40733  11.974   7.418   4.525  0.0392 -0.0004 -0.2208
34284W        W40734  12.182   3.924   5.700 -0.3079  0.0362 -0.2392
34285W        W40735   0.056   3.701   5.568  0.1645  0.0889  0.2294
34286W        W40736   5.069   3.788   9.588 -0.1288 -0.2557 -0.1343
34287W        W40737  18.686   4.845  25.382 -0.1605  0.2217 -0.2010
34288W        W40738   2.391   3.485  10.399 -0.3788  0.0718  0.0926
34289W        W40739   6.201   0.277  23.952  0.1194  0.2525  0.0826
34290W        W40740   1.697   3.704  22.729 -0.1826  0.0403  0.3273
34291W        W40741  11.214   2.001   7.817  0.0093 -0.3022  0.1490
34292W        W40742   1.887   6.567  26.412  0.2238 -0.0971  0.0446
34293W        W40743  14.250   2.543  23.462  0.0681  0.1230  0.0755
34294W        W40744  21.701   4.862   9.418 -0.1326  0.1700  0.0157
34295W        W40745  16.628   1.985  18.774 -0.1002 -0.1656  0.1702
34296W        W40746  23.757   5.123  23.251 -0.0671  0.4541 -0.1441
34297W        W40747  21.466   1.995   2.402 -0.2173  0.3455  0.0955
34298W        W40748   1.154   1.703  10.067  0.1641  0.0521  0.1777
34299W        W40749  23.711   3.590  26.002 -0.0707  0.2698  0.2538
34300W        W40750  15.248   5.260  27.432 -0.0283  0.2537  0.2018
34301W        W40751  16.585   0.790  24.426  0.0104  0.0701 -0.0953
34302W        W40752   3.438   6.882  14.853  0.1892  0.0535  0.0788
34303W        W40753  18.008   6.330   7.905  0.2164 -0.2097 -0.0336
34304W        W40754  24.135   7.085  12.981 -0.0418  0.0712 -0.2201
34305W        W40755  17.107   5.029  23.879  0.0459 -0.0276  0.0572
34306W        W40756  18.437   1.623   8.571 -0.1457  0.1838 -0.0502
34307W        W40757   2.815   5.320  16.334  0.2670 -0.0938  0.2850
34308W        W40758  24.534   0.760  14.234  0.1076  0.0935  0.3342
34309W        W40759   6.496   2.639   2.512 -0.0404  0.4013  0.3065
34310W        W40760  12.702   7.747   2.536 -0.0948  0.1200 -0.0082
34311W        W40761   3.558   5.210   0.667 -0.0180 -0.1442 -0.1547
34312W        W40762   6.392   7.742  13.203  0.1113 -0.0622  0.1215
34313W        W40763   7.203   5.970  22.611  0.1287 -0.0567  0.0576
34314W        W40764   1.447   2.571  10.821 -0.2644 -0.0559  0.0467
34315W        W40765   2.463   5.831  16.615  0.1519  0.1406  0.0762
34316W        W40766  23.193   6.424  10.120 -0.2862  0.1794  0.1893
34317W        W40767  11.492   5.907  21.160  0.0039 -0.0866  0.0326
34318W        W40768   2.019   6.116  14.058 -0.2373  0.0740 -0.2615
34319W        W40769   6.952   5.749  10.126  0.0133 -0.1744 -0.3264
34320W        W40770   7.559   5.057   9.739 -0.1958 -0.1243  0.3602
34321W        W40771  20.583   0.586  21.585 -0.0950  0.1283 -0.1637
34322W        W40772  11.061   3.430  19.723  0.0316  0.1579  0.0682
34323W        W40773  15.453   1.206  29.483  0.0203  0.4288  0.0978
34324W        W40774   6.079   5.745  16.534  0.0704 -0.1319  0.2905
34325W        W40775  16.401   0.394   5.521  0.1010 -0.1528 -0.2446
34326W        W40776  18.179   0.357  27.248 -0.0337  0.0211  0.0990
34327W        W40777  16.128   3.197  21.237  0.1034 -0.1091 -0.3512
34328W        W40778   1.380   5.973  26.787 -0.1448  0.2332 -0.1273
34329W        W40779  18.861   7.383   3.704  0.2272  0.3082 -0.0019
34330W        W40780  18.845   1.737   2.569 -0.1155 -0.0490 -0.3593
34331W        W40781   6.684   0.222  28.173 -0.0630  0.1525  0.3145
34332W        W40782  12.614   4.212  17.544  0.0141 -0.1739  0.3320
34333W        W40783  20.219   2.927  10.121 -0.2284  0.1183  0.0380
34334W        W40784  22.019   0.683  29.887 -0.1132 -0.4261 -0.0797
34335W        W40785  20.671   0.489  26.670 -0.0558  0.1632 -0.1133
34336W        W40786  18.388   5.475  20.261  0.1012  0.1212 -0.0294
34337W        W40787  23.911   6.457   1.092  0.2761  0.0701 -0.0096
34338W        W40788  16.063   4.851  10.009  0.2109  0.1291  0.0530
34339W        W40789   8.881   3.831   5.474  0.3054  0.1389  0.0170
34340W        W40790  21.848   6.489  29.741 -0.1116 -0.1925  0.5634
34341W        W40791   5.306   5.225  12.649 -0.0813  0.3137  0.0333
34342W        W40792  24.772   2.838  12.176 -0.0647 -0.2685  0.1168
34343W        W40793  23.790   5.925  22.233  0.2306  0.1710  0.0588
34344W        W40794   5.934   6.923   9.191  0.1952 -0.1782  0.0311
34345W        W40795  12.828   0.911  30.926  0.1085  0.0386  0.1425
34346W        W40796   2.684   5.423  17.341  0.2346 -0.1495 -0.2500
34347W        W40797   5.150   5.627  16.684  0.3721  0.0542  0.1032
34348W        W40798  22.656   3.673   4.295  0.1233  0.0535  0.0241
34349W        W40799   2.825   1.957  17.566  0.1225  0.0801 -0.2272
34350W        W40800  14.247   5.204  10.200 -0.3081 -0.0528 -0.5329
34351W        W40801  15.207   6.451   5.408  0.1965 -0.1292  0.1673
34352W        W40802  15.068   4.288  25.286 -0.2191 -0.0526 -0.1091
34353W        W40803  20.400   6.267  16.887 -0.1988 -0.0900  0.1629
34354W        W40804   1.861   6.070  29.546 -0.0748 -0.1502 -0.0751
34355W        W40805   4.994   2.886  13.261 -0.0535  0.1973  0.2798
34356W        W40806  21.664   5.052   2.114  0.2546  0.0437 -0.1049
34357W        W40807  18.188   7.482  23.325  0.0778 -0.1590 -0.3228
34358W        W40808   9.569   2.919   0.255  0.2398 -0.1536  0.1270
34359W        W40809  11.928   4.477  27.245  0.0290 -0.0532  0.1920
34360W        W40810  12.613   3.147   6.067 -0.0269 -0.0465  0.0666
34361W        W40811  13.139   3.551   2.153 -0.1053  0.0146  0.3264
34362W        W40812  12.934   0.712  15.537  0.0058  0.1524  0.2138
34363W        W40813   6.961   2.007   1.047 -0.0351 -0.2757  0.1742
34364W        W40814   5.494   1.310   8.921 -0.0920 -0.1492 -0.1201
34365W        W40815  13.529   0.314  26.001  0.2334 -0.4393  0.2072
34366W        W40816   1.631   6.210  26.143  0.3925 -0.0240 -0.1162
34367W        W40817  18.042   2.577   7.109 -0.5121 -0.6177 -0.1436
34368W        W40818   9.343   6.993  30.826 -0.3171 -0.0639 -0.0120
34369W        W40819  19.447   6.872  22.912  0.1741  0.2443  0.1725
34370W        W40820   8.860   2.334  26.888 -0.1728  0.3795 -0.0890
34371W        W40821  12.368   1.285  10.371  0.2319  0.0783  0.2042
34372W        W40822  15.743   2.306   0.918 -0.2027 -0.1631 -0.2038
34373W        W40823   4.610   2.277   3.481 -0.1422 -0.0297 -0.1360
34374W        W40824  16.912   4.677  24.690 -0.2784  0.0962 -0.3517
34375W        W40825   0.022   5.700  30.553 -0.0497 -0.3983  0.1555
34376W        W40826  15.938   6.630  28.831  0.0465  0.2086  0.0994
34377W        W40827   4.534   6.789  14.548  0.1715 -0.0560  0.0164
34378W        W40828   2.848   3.804  11.894 -0.1601 -0.1787 -0.0987
34379W        W40829  17.108   1.851  28.507 -0.1196  0.1650 -0.1471
34380W        W40830   4.346   4.278   2.650 -0.3741  0.1661 -0.1681
34381W        W40831   7.726   2.414  21.984  0.1884  0.1041 -0.2592
34382W        W40832  11.725   4.256  24.161  0.5274  0.0065 -0.0705
34383W        W40833   8.064   7.279  22.623  0.1608  0.1648  0.0036
34384W        W40834  15.539   2.532  23.715 -0.0706  0.2501 -0.0787
34385W        W40835  17.478   3.445   9.551  0.0723  0.2523  0.1974
34386W        W40836   1.011   2.336   5.411  0.1390  0.1589 -0.1885
34387W        W40837   1.440   0.102   5.548  0.2126  0.3168 -0.2282
34388W        W40838  11.916   3.823  20.847  0.1467  0.0267 -0.1844
34389W        W40839  15.586   3.833  30.210 -0.5435 -0.2065 -0.1588
34390W        W40840   3.953   6.739  14.804 -0.0056 -0.0287 -0.0066
34391W        W40841   4.262   3.925  25.846 -0.1257 -0.0028 -0.0294
34392W        W40842   0.860   0.030  12.710 -0.0506  0.0419 -0.0025
34393W        W40843  18.661   2.262  27.883  0.1280  0.0915  0.0773
34394W        W40844  14.872   1.937  16.205  0.2283  0.1358  0.1312
34395W        W40845   1.164   3.205  26.487  0.0628  0.1132  0.1543
34396W        W40846   5.598   1.310   2.785  0.1943  0.0522  0.4797
34397W        W40847  11.157   6.819  28.600 -0.1534  0.0163  0.1386
34398W        W40848   6.580   0.628   9.753  0.3453  0.0457 -0.1219
34399W        W40849   5.690   1.718  10.640 -0.0602  0.1092 -0.0018
34400W        W40850   0.503   0.442  31.646 -0.0869 -0.2377 -0.1462
34401W        W40851   3.506   3.721  25.064  0.1928  0.1559 -0.0644
34402W        W40852   3.632   6.679  32.925 -0.3477  0.1393  0.1783
34403W        W40853  24.110   3.297  30.209 -0.0753  0.1689  0.1173
34404W        W40854  24.507   7.711  24.863 -0.0706 -0.3807 -0.2265
34405W        W40855  12.889   3.674  18.275  0.0233  0.0285  0.3666
34406W        W40856   4.729   2.633  28.816 -0.1355 -0.1814  0.1906
34407W        W40857   3.308   0.032  31.124  0.1573  0.3316 -0.1598
34408W        W40858  19.377   6.241  23.294 -0.1615 -0.1937  0.1906
34409W        W40859   4.038   3.714  32.680 -0.0629  0.0822  0.2322
34410W        W40860   8.756   0.447  12.482 -0.1509  0.0677 -0.0270
34411W        W40861  17.223   2.744   6.644 -0.0204  0.1796  0.0264
34412W        W40862  24.475   1.212   6.723  0.1208  0.0585  0.2139
34413W        W40863   6.968   6.836   2.297  0.2216 -0.3693  0.2547
34414W        W40864  14.952   0.843   8.411 -0.0636  0.2698 -0.1104
34415W        W40865  18.175   5.824   5.362 -0.1975  0.0912 -0.0832
34416W        W40866   9.910   0.321  24.093  0.0107  0.0359  0.2327
34417W        W40867  13.023   4.965  21.860  0.0337  0.1873 -0.1046
34418W        W40868  22.594   6.897   4.264 -0.1172  0.4760  0.1814
34419W        W40869   9.796   6.846   6.558  0.0896 -0.2634  0.0947
34420W        W40870   5.624   0.126  30.285  0.0233 -0.0078  0.1546
34421W        W40871  11.020   6.726  11.021 -0.3197  0.0328  0.3084
34422W        W40872  19.185   2.032  24.233  0.1081  0.2406  0.0017
34423W        W40873  14.636   3.937   3.702  0.1507 -0.2884 -0.0016
34424W        W40874  16.123   5.223  14.933 -0.2641 -0.2375  0.4514
34425W        W40875  18.596   3.936  15.984 -0.0927  0.3156 -0.4137
34426W        W40876   9.652   4.900   5.430  0.0712 -0.2021  0.3371
34427W        W40877   9.000   0.154  26.801  0.0540  0.3167  0.0184
34428W        W40878  16.637   5.500   5.946 -0.0212  0.2595 -0.0618
34429W        W40879  20.435   3.884  11.316 -0.2468 -0.0344 -0.0747
34430W        W40880   9.827   4.512  28.306 -0.0423  0.0728 -0.2099
34431W        W40881  12.597   6.019  11.060 -0.0890  0.2170 -0.0627
34432W        W40882  17.072   0.996   1.265  0.1601  0.1474 -0.0610
34433W        W40883   4.250   4.409  28.616 -0.1262 -0.0476  0.0042
34434W        W40884  14.276   1.253  28.831 -0.3266 -0.1094  0.1938
34435W        W40885  13.647   6.162  31.157  0.0538 -0.2310 -0.1032
34436W        W40886  23.832   5.051  26.895  0.0034  0.1345  0.1562
34437W        W40887  17.019   5.308  21.152  0.1319  0.2307  0.0691
34438W        W40888   3.962   3.592   9.440  0.1417 -0.0313  0.0229
34439W        W40889   5.471   0.497   6.641  0.0313  0.2071 -0.1512
34440W        W40890   8.383   1.953   3.399  0.2772  0.2363  0.1619
34441W        W40891   1.995   6.752   8.816  0.2302 -0.3512 -0.0244
34442W        W40892   8.037   5.423  22.628 -0.0456  0.0913  0.1916
34443W        W40893  22.809   2.676   2.319  0.1757  0.1339  0.0950
34444W        W40894  14.875   5.244  20.737 -0.0737 -0.0297 -0.1308
34445W        W40895   0.330   3.559  23.355  0.2581  0.1875  0.1169
34446W        W40896   1.957   6.237   2.030  0.0050 -0.1661 -0.1602
34447W        W40897  13.994   1.532  17.230  0.1486  0.2409 -0.1454
34448W        W40898   1.753   6.945  29.123  0.0808 -0.2349 -0.2152
34449W        W40899   5.674   2.729  28.879  0.0272 -0.1016  0.0246
34450W        W40900  16.207   1.320  29.591 -0.2265 -0.0857 -0.0964
34451W        W40901   4.198   2.243   1.478  0.0423 -0.0705  0.0856
34452W        W40902  20.650   1.508   6.715 -0.1971  0.0164 -0.2265
34453W        W40903   2.681   5.205  30.448 -0.2485  0.0539  0.2284
34454W        W40904   9.913   1.340   7.002 -0.1117 -0.2343 -0.0505
34455W        W40905  16.630   0.170   6.326  0.0544  0.0041  0.1368
34456W        W40906  10.059   2.809   3.611 -0.0657  0.0728  0.2693
34457W        W40907  23.157   2.235   0.844  0.1224  0.1059  0.2932
34458W        W40908   4.065   2.438  17.222  0.1172  0.2238 -0.2251
34459W        W40909  21.045   6.602  23.966 -0.0590 -0.1119  0.2667
34460W        W40910   3.310   2.721   7.064 -0.1055 -0.2253 -0.1064
34461W        W40911   7.294   1.910   9.246  0.1050 -0.1088 -0.1294
34462W        W40912   6.373   3.726  13.064 -0.0207  0.0288  0.1875
34463W        W40913  14.213   6.479   3.036 -0.1423 -0.0322 -0.4072
34464W        W40914  19.458   5.463  25.812 -0.1069  0.1385 -0.1966
34465W        W40915   8.678   7.013   7.962  0.1004  0.1602  0.4846
34466W        W40916  19.912   3.871  32.238 -0.0778 -0.0129  0.0124
34467W        W40917  13.354   1.279  16.418 -0.0796 -0.3524  0.3345
34468W        W40918  14.751   6.626  32.542  0.0224 -0.1706  0.1514
34469W        W40919   1.900   2.511  25.639  0.3405 -0.2676 -0.0101
34470W        W40920  15.251   6.275   7.361  0.1285 -0.1235 -0.1520
34471W        W40921  13.066   4.640  24.176 -0.1423  0.1684 -0.0045
34472W        W40922  18.221   5.141  26.768 -0.0090  0.0504  0.3195
34473W        W40923  17.508   2.761  18.442  0.1318 -0.0962  0.0272
34474W        W40924   3.799   2.365  31.084  0.0497 -0.0915 -0.1195
34475W        W40925   6.814   0.582  27.775  0.0112  0.0895  0.3216
34476W        W40926  22.672   5.930  10.892 -0.1538  0.3236 -0.0114
34477W        W40927  23.285   6.887   5.439 -0.1664 -0.1532 -0.0760
34478W        W40928   4.929   2.088   8.693  0.0261  0.0145 -0.1989
34479W        W40929   7.769   5.379  25.302  0.1589 -0.0761 -0.0511
34480W        W40930  16.378   6.907  16.470  0.0792 -0.1281  0.0896
34481W        W40931   4.019   5.500  11.111  0.0030 -0.0608 -0.1036
34482W        W40932  17.236   4.360  24.547  0.0344 -0.0825 -0.2767
34483W        W40933   9.737   6.956   4.229  0.1518  0.2443 -0.0451
34484W        W40934   8.000   1.040  27.261 -0.1627 -0.0044 -0.2091
34485W        W40935  11.123   7.064  25.316  0.0647 -0.3099  0.3688
34486W        W40936  13.507   1.574   9.212  0.2947  0.0944 -0.1769
34487W        W40937  14.639   3.166  25.742  0.2842  0.0451 -0.1164
34488W        W40938   4.726   2.943  15.929  0.0738 -0.0692  0.1824
34489W        W40939   2.871   1.432   0.635 -0.1251 -0.0348 -0.1627
34490W        W40940   5.304   5.406  11.675  0.2222 -0.3391  0.0257
34491W        W40941  17.720   5.888  18.056 -0.1741  0.2574  0.1123
34492W        W40942   6.596   3.135   9.701 -0.0598  0.4468 -0.2740
34493W        W40943  17.968   1.768   8.666 -0.0533 -0.1540 -0.2419
34494W        W40944   5.423   4.238  29.274  0.0352  0.3109  0.2408
34495W        W40945   5.783   6.872   8.154 -0.1569  0.0532  0.0474
34496W        W40946  13.311   2.483  28.697 -0.0202  0.2431  0.1822
34497W        W40947  14.595   5.732   3.771 -0.3129  0.1396  0.0347
34498W        W40948  18.687   6.580  10.449  0.1255 -0.2727 -0.0212
34499W        W40949  17.112   4.729  27.584 -0.1581 -0.0960 -0.1652
34500W        W40950  21.579   7.591  11.732 -0.0939 -0.0170  0.1853
34501W        W40951   1.948   3.464   5.951  0.0518  0.2248  0.1129
34502W        W40952  18.346   0.012  29.147 -0.3540  0.0344  0.0012
34503W        W40953  12.608   5.670  17.889 -0.2909 -0.3126 -0.1117
34504W        W40954   5.573   6.983   6.033  0.2051  0.1148 -0.1419
34505W        W40955   9.789   3.901   8.559  0.0438  0.2771 -0.1285
34506W        W40956   9.333   4.990   4.528  0.3037  0.1139 -0.3024
34507W        W40957  15.638   1.432  15.504  0.1345  0.0738  0.0292
34508W        W40958  11.291   1.984  11.171 -0.2282  0.2564  0.3099
34509W        W40959   1.122   3.135  28.538  0.0926 -0.1559 -0.0464
34510W        W40960  24.334   5.092  32.711 -0.0816  0.0524 -0.0331
34511W        W40961   5.029   0.102  31.475  0.1133 -0.2876  0.0827
34512W        W40962  17.885   3.770  16.414  0.1191 -0.0247 -0.1629
34513W        W40963  16.922   5.522   6.338 -0.1795 -0.0385  0.2567
34514W        W40964   0.766   1.367  22.731 -0.0072  0.0324  0.1445
34515W        W40965  18.858   6.799  18.908  0.1378 -0.1968  0.0373
34516W        W40966   2.423   6.514   1.788 -0.0315 -0.0492 -0.0623
34517W        W40967   1.897   2.977  26.849  0.2351 -0.2196  0.0205
34518W        W40968   9.008   0.109  31.335  0.0183 -0.0014  0.1109
34519W        W40969   2.637   3.945   8.854 -0.0009 -0.0172 -0.0002
34520W        W40970   3.789   4.785   0.858 -0.3610  0.0602 -0.1929
34521W        W40971  21.340   7.243  19.350  0.1438  0.0756  0.0692
34522W        W40972  24.510   6.134  22.823 -0.3019  0.1249  0.1384
34523W        W40973   1.896   1.323  13.482  0.0936  0.2993  0.4529
34524W        W40974   6.545   7.060  27.304  0.1565 -0.0423  0.2919
34525W        W40975  20.663   2.343  11.666 -0.1247 -0.2856  0.0445
34526W        W40976   8.652   2.856  28.274 -0.1090  0.1087 -0.0177
34527W        W40977  20.502   5.227  32.753 -0.1715 -0.0631  0.1264
34528W        W40978  11.416   7.532  30.300  0.3459  0.5346  0.0863
34529W        W40979  12.262   7.674   1.604  0.0466 -0.0612 -0.0397
34530W        W40980  14.623   3.256  20.192  0.1000  0.1298  0.0476
34531W        W40981  22.257   2.398  24.000 -0.0909  0.1395  0.4055
34532W        W40982   3.972   5.067  15.811 -0.1659 -0.0645  0.2810
34533W        W40983  23.328   1.336  32.643  0.0908 -0.0589 -0.0398
34534W        W40984  11.789   3.185  27.305  0.1935  0.0490 -0.0666
34535W        W40985   4.927   6.244   4.589 -0.1236  0.0277  0.1002
34536W        W40986   8.726   3.234   2.939  0.1479 -0.0135  0.1254
34537W        W40987  24.619   3.502   8.653 -0.1250  0.0929 -0.0831
34538W        W40988  22.950   3.271   2.585 -0.3985  0.1624  0.0159
34539W        W40989  18.720   0.041   5.847 -0.1472 -0.1502  0.0172
34540W        W40990   0.256   0.660   7.871  0.1610 -0.0336  0.1342
34541W        W40991   5.688   0.563   8.291 -0.0550  0.0373  0.1783
34542W        W40992  24.801   2.747   6.515  0.0769  0.0307  0.1825
34543W        W40993   9.735   0.662   4.078  0.0021  0.1899 -0.0261
34544W        W40994  17.474   1.596  25.194 -0.2696  0.0918  0.0899
34545W        W40995  12.491   7.296  25.649  0.1204  0.0996  0.0564
34546W        W40996   1.975   4.325  31.061 -0.0002  0.0574  0.3779
34547W        W40997   4.889   3.715   3.043 -0.0502  0.2175  0.2550
34548W        W40998  10.893   1.603  10.118  0.2870 -0.0431 -0.1115
34549W        W40999  10.486   1.634  23.072 -0.0247 -0.1141  0.0438
34550W        W41000  17.810   4.745  10.159 -0.0619  0.2590 -0.3387
34551W        W41001  16.089   3.958  16.765  0.1944  0.0918  0.0913
34552W        W41002   3.908   0.953   4.199  0.0131  0.0578 -0.0003
34553W        W41003  12.918   0.564  29.060  0.1249 -0.2866 -0.0227
34554W        W41004   4.138   4.527  32.707  0.0647  0.0558 -0.2619
34555W        W41005   8.792   5.136   1.456  0.1920  0.1606  0.1030
34556W        W41006   8.706   3.056  31.571 -0.1163  0.1006 -0.2237
34557W        W41007  21.288   5.936  20.042  0.0697  0.0721  0.3857
34558W        W41008  20.154   3.141   3.184 -0.2991  0.1602 -0.0125
34559W        W41009  16.054   7.490   7.217 -0.1363  0.1462 -0.0153
34560W        W41010   8.700   4.374   5.411 -0.1484 -0.0437 -0.2198
34561W        W41011  20.806   6.465  21.834 -0.0324  0.0337  0.2435
34562W        W41012   7.215   2.736  32.780  0.1198  0.0898  0.1070
34563W        W41013  15.059   4.092  27.295 -0.1351 -0.0961 -0.1717
34564W        W41014  19.235   3.495   7.102 -0.0238 -0.1864 -0.1764
34565W        W41015   0.698   0.898  27.975 -0.1015  0.0529 -0.0040
34566W        W41016  12.145   0.172  11.456  0.1416 -0.1066 -0.0777
34567W        W41017   6.733   5.616  32.807 -0.0295 -0.1196 -0.0345
34568W        W41018   2.386   5.115  25.085 -0.1327  0.0372 -0.0381
34569W        W41019  20.037   6.632  32.351  0.0362  0.0609 -0.0627
34570W        W41020   3.373   5.724  28.369  0.3000 -0.1372  0.2203
34571W        W41021   0.279   2.735   8.258  0.1261 -0.1415 -0.0745
34572W        W41022  20.954   3.739   6.240  0.3220 -0.0509  0.0920
34573W        W41023   0.081   0.495   1.955 -0.1375  0.3336  0.1295
34574W        W41024  18.629   1.608  29.358  0.1125  0.1612  0.1724
34575W        W41025   4.682   2.380  14.699 -0.1557 -0.1825 -0.0509
34576W        W41026  12.210   0.011  26.537  0.1215 -0.0392  0.0277
34577W        W41027   6.410   4.608   2.524  0.1544 -0.0868 -0.2246
34578W        W41028  11.160   7.015  20.085  0.2939 -0.0502  0.2142
34579W        W41029  24.467   3.571   4.056 -0.1723 -0.2744  0.0518
34580W        W41030   4.378   5.062   6.433  0.0092  0.1963  0.0803
34581W        W41031  23.399   4.137  11.108 -0.1136 -0.1208  0.0086
34582W        W41032   7.120   2.482   1.158  0.0806  0.1679 -0.2595
34583W        W41033  12.512   4.408   2.904 -0.0160  0.0685 -0.2302
34584W        W41034  14.692   3.627  19.923  0.1184  0.0408  0.3782
34585W        W41035  13.209   6.362  29.679  0.0925  0.1142 -0.0145
34586W        W41036  18.767   5.917  21.774  0.1147  0.1361 -0.0665
34587W        W41037  15.498   6.169  29.961  0.0833 -0.2512  0.1645
34588W        W41038   6.873   5.932   7.137 -0.1062 -0.0382 -0.1224
34589W        W41039  22.335   6.102  11.330  0.4436  0.0165  0.0381
34590W        W41040   6.528   3.888  31.005  0.1250 -0.1582 -0.0505
34591W        W41041  14.172   1.845   1.437  0.0366 -0.1250 -0.1081
34592W        W41042   1.620   0.213   2.897  0.2289  0.0852 -0.1132
34593W        W41043   8.841   2.062   6.019  0.2296  0.3309  0.2634
34594W        W41044   5.815   5.617  29.622 -0.1581  0.1177 -0.0117
34595W        W41045   6.465   1.188   7.936  0.2957 -0.1008 -0.1329
34596W        W41046   0.617   1.732  26.491 -0.0458 -0.2136 -0.0787
34597W        W41047  15.288   5.392  28.568 -0.1577 -0.0711  0.2717
34598W        W41048   7.017   0.355  30.879  0.3627  0.1727 -0.1181
34599W        W41049  23.953   5.269  30.199  0.1140  0.0572  0.3049
34600W        W41050   4.322   1.549   8.285 -0.2453  0.2432 -0.5319
34601W        W41051   0.877   1.114  30.460  0.0008 -0.0515  0.1577
34602W        W41052  23.557   6.221   0.862  0.2545 -0.0664  0.0740
34603W        W41053   6.066   4.851  28.379 -0.1281 -0.2195  0.0248
34604W        W41054  11.940   3.886  30.558 -0.2075  0.0277 -0.0233
34605W        W41055   2.182   1.440  13.126 -0.0747  0.0761  0.0719
34606W        W41056  20.285   5.784   0.638  0.0568 -0.2304 -0.1407
34607W        W41057  19.073   5.408  17.149  0.0522  0.0174 -0.0867
34608W        W41058   3.284   3.550  26.066 -0.0384 -0.2093  0.3783
34609W        W41059  12.645   2.978  30.172  0.0508 -0.0549  0.0132
34610W        W41060  12.556   6.229  32.258 -0.0318  0.2164 -0.0252
34611W        W41061   8.688   3.958   6.329 -0.1345 -0.1542  0.0035
34612W        W41062   4.097   2.804  32.517  0.2815  0.2213  0.1501
34613W        W41063  14.472   3.171  15.867 -0.3726  0.3837  0.1997
34614W        W41064  21.233   6.745   2.177  0.1860 -0.0556 -0.0334
34615W        W41065  14.822   7.292  15.271 -0.1647 -0.2431  0.2123
34616W        W41066  15.860   3.673   6.761  0.3853  0.0002 -0.2028
34617W        W41067   4.683   2.973   0.697 -0.2898  0.0151  0.1779
34618W        W41068  11.902   2.582   9.736 -0.0084  0.0666  0.0301
34619W        W41069  19.060   7.129  29.058 -0.0233  0.2005 -0.0227
34620W        W41070   5.321   1.271  26.867  0.1788 -0.1110 -0.2352
34621W        W41071   6.534   1.133  14.067  0.3868  0.1770  0.0269
34622W        W41072  14.295   1.611   8.383 -0.0467  0.0439  0.0460
34623W        W41073  21.837   1.698   8.110 -0.0138  0.0594  0.0237
34624W        W41074  21.980   0.258  23.793 -0.1977 -0.1220  0.0345
34625W        W41075  11.519   2.174  10.357  0.0200 -0.4839 -0.1136
34626W        W41076  21.099   6.908  24.906 -0.1644 -0.0062 -0.3114
34627W        W41077   8.347   2.954  31.234 -0.0141  0.0135 -0.1887
34628W        W41078   9.227   5.327  10.806  0.0442 -0.0041  0.1529
34629W        W41079   2.423   4.404  26.920 -0.1191 -0.1010 -0.0656
34630W        W41080  20.909   7.356  26.579  0.1886  0.0453 -0.0276
34631W        W41081   8.886   1.582   6.324 -0.3055 -0.2660  0.1138
34632W        W41082  16.248   1.775  17.403 -0.1912 -0.1325 -0.1527
34633W        W41083  22.590   2.092   9.525  0.2429 -0.0181  0.0150
34634W        W41084  22.184   6.126  21.866  0.2740 -0.1909 -0.0958
34635W        W41085  23.531   2.637  30.413  0.0165  0.3298 -0.4242
34636W        W41086  15.884   2.582   9.612 -0.2806 -0.1134  0.1869
34637W        W41087  19.203   2.145   9.142  0.4048 -0.2112 -0.1946
34638W        W41088  16.573   7.334  32.888 -0.0749  0.1571 -0.1684
34639W        W41089  20.736   1.935   1.762 -0.2036 -0.0415 -0.0399
34640W        W41090   1.865   2.949   1.350  0.3557  0.0983  0.1331
34641W        W41091  16.113   7.624  17.851 -0.2241  0.1563  0.2637
34642W        W41092   3.463   6.414   4.430  0.0528 -0.1882 -0.1986
34643W        W41093   7.871   4.823  24.429  0.0897  0.2069  0.1898
34644W        W41094   9.480   7.245  24.260  0.4217 -0.0918  0.0477
34645W        W41095  20.414   4.259  18.951 -0.2160 -0.2572  0.1270
34646W        W41096  12.835   5.967  16.422 -0.0565 -0.0820 -0.2874
34647W        W41097   6.260   6.676  12.184 -0.2028  0.3580 -0.1377
34648W        W41098   9.568   7.612  24.609 -0.1063 -0.1350 -0.0234
34649W        W41099  21.372   3.229  21.886  0.0007 -0.2139 -0.2542
34650W        W41100  18.641   7.670  18.401 -0.1721 -0.1465 -0.0397
34651W        W41101  19.579   2.051   0.272  0.0801 -0.3202  0.1162
34652W        W41102   0.987   0.270  22.621 -0.4395  0.0246 -0.1266
34653W        W41103  17.058   4.954  15.174 -0.2590 -0.2384  0.0733
34654W        W41104   2.402   2.101   4.050  0.0103  0.0838 -0.1593
34655W        W41105   1.577   6.504  25.620 -0.1034 -0.1420  0.3682
34656W        W41106   7.705   1.186   3.559  0.0799 -0.4459 -0.0344
34657W        W41107   9.782   7.405  20.803  0.0461 -0.0788 -0.1971
34658W        W41108  14.951   3.074  15.901 -0.1561 -0.0517 -0.0049
34659W        W41109  24.727   0.777  27.626  0.0901  0.0892  0.0182
34660W        W41110  23.069   3.504  14.693 -0.0178 -0.1027  0.0921
34661W        W41111  19.923   1.222  11.032  0.1789 -0.2410  0.1687
34662W        W41112  17.097   2.008  24.082  0.1162  0.0925  0.1379
34663W        W41113  12.539   0.111  17.257 -0.1900  0.0831  0.1136
34664W        W41114  11.583   4.118   2.871  0.2492  0.1531  0.3977
34665W        W41115   2.373   1.685  30.830 -0.0026 -0.1896  0.1692
34666W        W41116  18.785   6.044   2.650 -0.0631  0.1485 -0.2420
34667W        W41117   7.846   7.493  11.226  0.0195 -0.0720 -0.0954
34668W        W41118   2.682   7.604  16.418 -0.1958  0.1340 -0.1021
34669W        W41119  16.830   1.827  22.733 -0.0463  0.2780 -0.1485
34670W        W41120  19.412   3.230   0.751 -0.1527 -0.1858 -0.2393
34671W        W41121  23.688   6.170   5.226  0.1303  0.1678 -0.2218
34672W        W41122  18.562   3.345  21.547 -0.0450  0.2794  0.0221
34673W        W41123   0.883   0.896  28.493  0.1699 -0.1678  0.0334
34674W        W41124  16.800   1.929  29.487  0.0340  0.1264 -0.2866
34675W        W41125  13.432   7.031  22.728 -0.1555 -0.1131 -0.1827
34676W        W41126  21.160   1.026  28.290 -0.0915  0.1335  0.3506
34677W        W41127  13.534   3.845  29.387 -0.1536 -0.0705  0.0898
34678W        W41128  16.246   2.952  16.505 -0.1695  0.4508  0.0167
34679W        W41129  14.372   7.464   8.061 -0.0530 -0.1820  0.0287
34680W        W41130  15.616   0.593   5.947  0.0621 -0.0527  0.0760
34681W        W41131   5.877   1.506  24.231  0.2885  0.0621  0.0308
34682W        W41132   9.546   5.744   3.922  0.2498 -0.1973 -0.0375
34683W        W41133  18.676   5.894  10.154  0.1969 -0.1077 -0.1805
34684W        W41134   4.258   5.909  23.719 -0.1789  0.2437  0.2927
34685W        W41135  11.584   5.293  32.920 -0.1860  0.0954 -0.1873
34686W        W41136   0.355   5.140  32.696  0.0270  0.0726  0.2799
34687W        W41137   1.914   2.607   9.677  0.0605 -0.0213 -0.1740
34688W        W41138  20.512   7.645  32.845 -0.0824 -0.2150  0.0781
34689W        W41139  21.798   7.487  22.312 -0.2587 -0.1745 -0.0168
34690W        W41140   0.272   6.415  13.233 -0.0416 -0.1192  0.1817
34691W        W41141  12.422   6.688  26.667  0.0184  0.0649  0.2621
34692W        W41142   9.921   0.992  24.787 -0.3113 -0.1344  0.0762
34693W        W41143  21.389   5.884  11.097  0.0221 -0.2331 -0.0229
34694W        W41144   2.170   5.125  30.014  0.2034  0.0957 -0.1730
34695W        W41145  16.263   3.234  27.632 -0.2372 -0.3621 -0.0780
34696W        W41146   8.593   2.558  27.819 -0.2156 -0.0807  0.0435
34697W        W41147  22.636   7.747  31.948  0.0174 -0.1233 -0.1821
34698W        W41148   2.026   3.029  30.587 -0.1214 -0.1607  0.5539
34699W        W41149  23.573   0.804  24.161  0.1628 -0.0695 -0.0698
34700W        W41150  15.049   2.511   9.741 -0.1228 -0.0229  0.0629
34701W        W41151  22.981   7.179  12.159  0.0083  0.2347  0.0673
34702W        W41152   3.630   4.498   3.790  0.0952  0.2205 -0.1782
34703W        W41153   1.107   4.203   1.445 -0.1238  0.1576  0.2324
34704W        W41154   5.375   3.855  30.493 -0.0455  0.0118  0.0078
34705W        W41155  21.026   3.455  31.289  0.0738 -0.0048  0.0250
34706W        W41156  23.404   4.913  25.286 -0.2305  0.0221 -0.1121
34707W        W41157  20.377   5.451  25.680 -0.2072  0.0812 -0.1198
34708W        W41158   3.472   5.264  24.754  0.1776 -0.2108  0.0567
34709W        W41159   0.672   4.024  14.850  0.0208 -0.0586  0.0654
34710W        W41160   6.073   6.451  10.384  0.0445 -0.0411 -0.3689
34711W        W41161   5.608   4.076  24.289 -0.0398 -0.0063  0.1148
34712W        W41162   9.405   3.152  11.357 -0.0476  0.0420  0.1362
34713W        W41163  13.840   1.979  16.566  0.1221 -0.0087 -0.2655
34714W        W41164  17.806   7.183  26.562  0.2460  0.3107  0.0159
34715W        W41165  20.823   1.713  30.692 -0.0056  0.2422 -0.2434
34716W        W41166  12.304   0.377   0.689 -0.1255  0.2681  0.2959
34717W        W41167  20.394   2.728   6.366  0.3698  0.2386 -0.0350
34718W        W41168  18.999   6.654  30.359 -0.2920 -0.2122  0.1716
34719W        W41169   3.365   1.732  23.091  0.2277  0.3885 -0.1003
34720W        W41170  24.203   0.441  14.051 -0.1936 -0.0068  0.1710
34721W        W41171  10.834   4.879  32.948 -0.1313  0.0988  0.0269
34722W        W41172  18.168   7.791   4.475  0.0608  0.0590 -0.0686
34723W        W41173  20.295   5.028   0.608 -0.2006 -0.0477 -0.0263
34724W        W41174  23.933   5.545  29.308  0.2223 -0.0771 -0.1585
34725W        W41175   8.403   3.358  26.865  0.2705 -0.1502  0.1259
34726W        W41176   2.816   1.673  14.009 -0.2125  0.0699  0.3455
34727W        W41177  20.927   5.236  23.460  0.1380  0.2520 -0.1960
34728W        W41178   6.242   3.806  31.523  0.1888 -0.1508  0.0259
34729W        W41179  19.234   7.084   8.673 -0.1516  0.3130  0.0391
34730W        W41180   6.716   3.247  24.145 -0.2343 -0.0305 -0.0376
34731W        W41181  11.164   1.553   5.526  0.1118 -0.0306 -0.1281
34732W        W41182  17.901   5.247  30.466 -0.1213  0.1303  0.0719
34733W        W41183   6.610   3.982  25.633 -0.1710  0.0587  0.1831
34734W        W41184  17.094   3.746  10.550 -0.2530 -0.0276  0.0358
34735W        W41185   0.755   5.850  14.790  0.1594  0.0793  0.1506
34736W        W41186   8.117   6.620   2.979  0.2995 -0.0394 -0.2593
34737W        W41187  22.061   3.029  13.678  0.2724 -0.0282  0.2162
34738W        W41188  24.959   2.043  26.722  0.2085 -0.1013 -0.0313
34739W        W41189  17.544   5.058   9.805 -0.1813  0.0325  0.2058
34740W        W41190   2.512   2.688   3.229  0.3182  0.0587 -0.0427
34741W        W41191   5.356   2.968   9.716  0.0392 -0.2671 -0.2555
34742W        W41192  21.442   3.172  29.963 -0.1253  0.0207  0.0666
34743W        W41193  14.919   7.596   0.063  0.1190  0.1549  0.2151
34744W        W41194  15.067   7.039  16.793 -0.1458 -0.0544  0.0247
34745W        W41195  13.043   4.914   2.089 -0.0109 -0.2211 -0.4358
34746W        W41196   8.554   1.357  29.773  0.2319 -0.0965  0.0390
34747W        W41197  10.129   6.989  21.727  0.1842  0.0503  0.2103
34748W        W41198  22.992   2.942   6.302  0.0722 -0.1695  0.1501
34749W        W41199  10.193   4.600  26.415  0.1491 -0.0053  0.1595
34750W        W41200  18.940   2.045   1.529  0.1543  0.0704 -0.1408
34751W        W41201  11.222   4.148  22.876 -0.0680 -0.0363  0.1270
34752W        W41202   4.114   0.669   2.761  0.2019 -0.0924  0.2902
34753W        W41203   5.133   0.238  26.848 -0.0468  0.5923 -0.1912
34754W        W41204   3.698   1.812   7.319 -0.1665 -0.0672  0.2802
34755W        W41205   6.449   7.174  23.303  0.0742 -0.1335 -0.2638
34756W        W41206  12.727   4.320   9.993 -0.0145 -0.1637  0.1418
34757W        W41207   0.178   6.423  11.081  0.2881  0.1025  0.0344
34758W        W41208  16.001   0.338   8.950  0.2262  0.0007 -0.1729
34759W        W41209   8.176   6.381   7.048 -0.2705 -0.1086  0.0423
34760W        W41210  23.986   0.495  28.063 -0.0999 -0.0156 -0.1867
34761W        W41211  24.753   2.596   7.010 -0.0382 -0.2561 -0.0729
34762W        W41212  11.786   5.530  32.039 -0.2530 -0.0059 -0.2766
34763W        W41213   7.731   2.690  12.344  0.2352  0.0499  0.1616
34764W        W41214   0.208   0.674   0.927  0.0218 -0.2618  0.1462
34765W        W41215   5.152   3.564   6.629  0.1658  0.0818  0.1185
34766W        W41216   7.292   5.733  28.475  0.0889  0.1278  0.0731
34767W        W41217  19.332   6.320  16.418 -0.0982  0.0923 -0.0131
34768W        W41218   7.513   5.330  29.593  0.1246  0.2334  0.1211
34769W        W41219   3.471   0.956  17.476 -0.0938  0.2140  0.1353
34770W        W41220  23.295   4.151  32.720 -0.2904 -0.0693  0.0884
34771W        W41221  23.189   6.159  26.071 -0.0994  0.3317  0.3571
34772W        W41222  20.422   3.965   2.893 -0.2825 -0.0448 -0.1478
34773W        W41223  24.659   1.218   7.233  0.1103  0.2832 -0.1478
34774W        W41224  24.911   7.102   1.235 -0.2809 -0.1778 -0.5486
34775W        W41225  18.439   0.891  18.575 -0.1215  0.0433  0.1940
34776W        W41226   5.946   7.680  11.342 -0.2833  0.0923  0.0837
34777W        W41227  10.080   6.164  13.626 -0.0437 -0.1965 -0.0261
34778W        W41228  14.866   4.951  27.634  0.0715  0.1580  0.0803
34779W        W41229  14.297   4.444   0.031  0.3767  0.0498  0.1144
34780W        W41230  14.173   0.734   3.768  0.0203  0.0970 -0.0371
34781W        W41231  22.891   2.062  10.952  0.1469 -0.2750 -0.0674
34782W        W41232   0.231   2.902  26.470 -0.0077 -0.1885 -0.1958
34783W        W41233   0.392   7.192   0.254 -0.1614 -0.0257 -0.0699
34784W        W41234   6.603   5.686   9.146  0.0113  0.1066  0.0317
34785W        W41235   2.554   1.202   8.711  0.0676 -0.0019  0.1149
34786W        W41236  14.374   6.721  24.095  0.0338  0.0021  0.1238
34787W        W41237  10.676   5.144  11.750  0.3170 -0.0465 -0.1943
34788W        W41238  24.736   6.624   9.123 -0.1483  0.1601  0.0957
34789W        W41239   7.849   2.841  14.616  0.1900  0.1402 -0.0311
34790W        W41240   8.826   2.404   6.383  0.0082  0.0188  0.0502
34791W        W41241   4.592   1.875  14.294  0.0798 -0.1058 -0.1476
34792W        W41242   5.271   2.491  16.708  0.2619  0.0532 -0.1294
34793W        W41243  14.821   1.445  29.446 -0.1506 -0.0138  0.0693
34794W        W41244   0.292   0.036   5.776  0.0184  0.1648  0.0616
34795W        W41245  19.951   3.480   4.583  0.1961 -0.2490 -0.1420
34796W        W41246  10.847   6.691   3.136 -0.1815  0.2783  0.1747
34797W        W41247  24.389   0.499  10.644  0.3427 -0.0966 -0.1748
34798W        W41248  16.086   0.605   8.043 -0.1283 -0.1857 -0.0555
34799W        W41249  17.029   0.480   0.283  0.0670 -0.2916  0.0824
34800W        W41250  11.832   2.806  26.623  0.3592 -0.1517 -0.0984
34801W        W41251  17.143   2.647  28.714  0.1261  0.0278  0.2556
34802W        W41252  18.163   3.480  17.331  0.0361 -0.3200  0.3736
34803W        W41253   5.129   2.298  11.021 -0.0735  0.0549  0.1092
34804W        W41254  20.042   3.792  21.382  0.0169 -0.0543  0.1491
34805W        W41255  11.935   3.983  27.890  0.0660  0.1093  0.0160
34806W        W41256   3.822   3.496   5.381  0.2166 -0.1683 -0.0823
34807W        W41257   7.530   4.138  32.740  0.1309 -0.3259  0.2685
34808W        W41258   0.397   2.889   4.694 -0.0692 -0.2277  0.0196
34809W        W41259   0.998   1.843  31.032  0.2155  0.1166  0.1170
34810W        W41260  22.571   1.677  26.251 -0.0951  0.0963  0.0006
34811W        W41261   0.847   0.135  23.153 -0.0648  0.4388  0.0365
34812W        W41262   2.350   3.248  13.110  0.2271 -0.1565 -0.2360
34813W        W41263   0.105   5.627   7.269  0.0651  0.1829  0.0376
34814W        W41264   2.770   5.038  24.198 -0.0483 -0.1621  0.2569
34815W        W41265   8.311   3.865   2.045  0.0754  0.2884 -0.2738
34816W        W41266  19.581   4.076   0.046 -0.0781  0.0851 -0.3378
34817W        W41267  24.921   2.449   7.514  0.0837 -0.1099 -0.0591
34818W        W41268  11.270   3.831  28.966 -0.0263  0.0613 -0.1732
34819W        W41269   0.278   6.157   0.880 -0.2862  0.0343  0.0459
34820W        W41270  21.861   6.397   7.450  0.3841 -0.1216  0.2002
34821W        W41271  23.937   1.116  29.793  0.0874 -0.0016  0.3337
34822W        W41272  17.946   4.716  28.772  0.0419 -0.1883 -0.0841
34823W        W41273   2.085   7.689  30.837 -0.0545 -0.1211  0.0714
34824W        W41274  13.025   7.188  16.390 -0.1670 -0.2725  0.2085
34825W        W41275   2.751   1.591   6.907  0.0256  0.3043  0.2691
34826W        W41276   9.244   0.655  28.280 -0.1934 -0.2957  0.2495
34827W        W41277  24.376   3.119   3.738  0.0850  0.0223  0.0023
34828W        W41278   2.323   0.111   8.637 -0.1175  0.3862  0.0902
34829W        W41279   5.607   5.763   0.744 -0.0105 -0.0802  0.1594
34830W        W41280   7.199   1.332  30.444 -0.0389  0.1813 -0.1691
34831W        W41281   9.903   5.684  10.002 -0.0223  0.0441 -0.3496
34832W        W41282  20.829   6.644  12.556 -0.0771  0.3437  0.1430
34833W        W41283   6.490   6.899  11.520  0.1618  0.5450 -0.2354
34834W        W41284   5.772   2.225  12.542  0.1368  0.3857  0.0633
34835W        W41285  16.489   7.207   9.368  0.0122  0.0078 -0.0374
34836W        W41286   1.809   1.952  26.867 -0.2388 -0.1768  0.1282
34837W        W41287  15.411   6.051  21.073 -0.0733 -0.2718  0.0047
34838W        W41288   4.783   2.609  11.242 -0.0274 -0.1932  0.0475
34839W        W41289  15.426   4.346  28.145  0.2842  0.1435  0.1230
34840W        W41290   2.130   4.481  11.867  0.1409 -0.0490 -0.2915
34841W        W41291  17.791   4.242  29.485  0.1103  0.0846 -0.3115
34842W        W41292   5.612   7.555   9.694 -0.0904 -0.1036  0.2038
34843W        W41293  14.915   4.647  20.745 -0.2333  0.0080 -0.1561
34844W        W41294  18.853   3.400   0.609 -0.0315 -0.1118 -0.1506
34845W        W41295  10.900   7.695  30.203  0.0380  0.5597 -0.0113
34846W        W41296  22.937   6.985   2.504  0.0171 -0.1627 -0.0418
34847W        W41297   0.642   7.198   9.869 -0.1330 -0.2053  0.0639
34848W        W41298  21.520   3.648  25.665  0.0784  0.0391 -0.1295
34849W        W41299   3.803   4.524   5.763 -0.2021  0.0651  0.1539
34850W        W41300  24.814   4.881   1.573 -0.0866 -0.1468 -0.1119
34851W        W41301  23.829   1.587   7.327 -0.2495 -0.1045  0.0300
34852W        W41302  20.249   4.976   4.816  0.1773  0.3985  0.0354
34853W        W41303  17.197   3.467  25.980  0.1999 -0.0417 -0.0831
34854W        W41304  15.248   6.901   8.485 -0.1564 -0.0613 -0.0973
34855W        W41305  17.690   4.863  30.813 -0.0571 -0.1160 -0.1715
34856W        W41306  15.801   7.364   5.441  0.1399 -0.3348  0.0062
34857W        W41307   1.817   4.521  14.523  0.2504 -0.0980 -0.1854
34858W        W41308  17.346   4.672   4.689 -0.0834  0.2116  0.1099
34859W        W41309   3.022   6.449   4.100 -0.0228  0.0802  0.0140
34860W        W41310  12.961   4.476  26.048 -0.0831 -0.0873 -0.1255
34861W        W41311   6.147   1.203  26.523 -0.0282  0.0293  0.0379
34862W        W41312  20.183   0.489  20.825  0.0286  0.3003  0.0535
34863W        W41313  11.966   5.805   6.593 -0.0651  0.1226  0.2164
34864W        W41314  20.898   0.030  31.742 -0.1519 -0.4028 -0.0158
34865W        W41315   5.815   5.339   0.540 -0.0996 -0.1157  0.0827
34866W        W41316   5.783   3.366  11.841 -0.2581 -0.2459  0.2612
34867W        W41317   4.579   6.072  16.147  0.2143 -0.2628  0.1591
34868W        W41318  23.217   2.942   8.195  0.0020 -0.1336  0.0615
34869W        W41319  15.909   6.456  25.107 -0.0401 -0.1118 -0.0175
34870W        W41320   1.038   2.670  10.491 -0.1924 -0.0371  0.2525
34871W        W41321  21.534   5.112   4.636 -0.0324  0.1875  0.0691
34872W        W41322   2.537   5.854  15.999 -0.0281  0.1327 -0.0249
34873W        W41323   8.433   7.608   1.172  0.2548 -0.2495 -0.1729
34874W        W41324   7.201   1.665   5.651 -0.0187  0.0850 -0.0879
34875W        W41325  23.278   0.175  24.282 -0.2359 -0.0253 -0.3706
34876W        W41326   2.906   6.515  25.600 -0.2118 -0.1584  0.1885
34877W        W41327  12.786   6.263   3.399  0.1357 -0.2280 -0.0966
34878W        W41328   7.923   1.946  13.800  0.0625 -0.0849  0.1499
34879W        W41329   0.875   3.316  32.926 -0.1624 -0.2318  0.0095
34880W        W41330   3.395   2.709   6.001  0.1020  0.1556 -0.0993
34881W        W41331  13.447   0.656  28.246 -0.1761  0.2435 -0.2244
34882W        W41332   4.027   2.279  26.065  0.1663 -0.0881  0.2423
34883W        W41333  12.166   0.767  11.800 -0.2234 -0.2411 -0.0213
34884W        W41334   8.763   3.580   7.123  0.0677  0.2644  0.2004
34885W        W41335  15.349   4.574   3.633 -0.2939  0.0657  0.0650
34886W        W41336  10.990   2.319  26.761  0.0860 -0.1567 -0.0788
34887W        W41337  22.499   5.236  19.242  0.1889  0.0230 -0.0625
34888W        W41338  11.938   7.057  29.420  0.0155 -0.1668 -0.2958
34889W        W41339  19.679   7.106   8.433 -0.0413 -0.1987  0.3491
34890W        W41340  18.912   6.555  17.802  0.0796  0.0163 -0.2761
34891W        W41341  11.650   5.940  11.823 -0.1690 -0.1023 -0.2802
34892W        W41342  14.694   2.893  16.350 -0.0520 -0.2127 -0.4286
34893W        W41343  17.634   5.432   1.894  0.1313 -0.1432  0.0652
34894W        W41344  16.736   3.269  14.310  0.1660  0.0072 -0.1324
34895W        W41345  15.561   3.418   2.356  0.2090  0.1612  0.0374
34896W        W41346   8.383   3.725  11.840 -0.2112  0.0314 -0.1667
34897W        W41347  15.074   2.125  29.858 -0.2195 -0.2465  0.1709
34898W        W41348  18.103   5.420  31.421  0.0808 -0.1216 -0.3363
34899W        W41349   3.995   5.622  31.378  0.1282 -0.1266  0.1803
34900W        W41350  12.267   6.255   6.557  0.1321 -0.1673  0.1712
34901W        W41351  11.131   2.619  11.276 -0.2436 -0.0072  0.0153
34902W        W41352   8.028   4.531  10.860  0.1228  0.1485  0.3027
34903W        W41353  21.553   3.626  31.472  0.2303 -0.0328 -0.0956
34904W        W41354   2.611   0.133  10.380 -0.2230 -0.3545  0.1366
34905W        W41355  13.253   6.900  24.173  0.1422  0.2200  0.0733
34906W        W41356  11.531   5.739   2.530 -0.1470  0.1777 -0.4171
34907W        W41357  16.325   4.981  18.795 -0.1615 -0.1261  0.3728
34908W        W41358  11.293   6.634   9.127 -0.5813 -0.0560  0.0962
34909W        W41359   9.491   7.503  11.708 -0.0036 -0.2635 -0.0423
34910W        W41360  20.353   7.348   7.823 -0.1370 -0.1789  0.0231
34911W        W41361   3.207   3.587   4.129 -0.2428 -0.2172 -0.0571
34912W        W41362  22.396   2.620  29.206  0.0777 -0.0045  0.0143
34913W        W41363   2.757   6.417  31.348 -0.1177  0.0954  0.2398
34914W        W41364   7.797   2.299  11.478 -0.2945  0.0837  0.0605
34915W        W41365  10.899   3.494  28.870  0.1663  0.0177  0.1891
34916W        W41366  15.178   0.554   5.808  0.2267  0.3549 -0.2250
34917W        W41367  21.839   0.913  22.570 -0.0419  0.1677  0.1052
34918W        W41368  23.148   1.412  22.771 -0.0005 -0.2334  0.0173
34919W        W41369  14.271   4.317  32.360  0.1021 -0.2229 -0.2411
34920W        W41370  22.114   5.624  27.433 -0.2668  0.2674  0.0924
34921W        W41371   5.250   3.490   5.435 -0.2948 -0.3355  0.3084
34922W        W41372  13.840   2.194  29.900  0.2084  0.0443 -0.3727
34923W        W41373  17.980   0.424   9.207 -0.1328 -0.0882  0.1503
34924W        W41374  12.689   3.091  26.993  0.2475 -0.3408 -0.1831
34925W        W41375   8.860   5.189  13.682 -0.2602 -0.0293  0.0247
34926W        W41376  14.119   7.729  21.361 -0.2779 -0.1509  0.3793
34927W        W41377   6.509   2.358  12.925  0.0461 -0.0035  0.0486
34928W        W41378   3.262   5.279  24.245  0.0577  0.0934  0.2881
34929W        W41379   6.660   2.414  27.060 -0.1774 -0.1463  0.1768
34930W        W41380  17.440   2.294  23.243 -0.0563  0.0157  0.1450
34931W        W41381  13.137   4.829  23.622  0.0772 -0.2225 -0.4805
34932W        W41382  15.178   7.450  17.658 -0.1718 -0.0875 -0.1297
34933W        W41383  19.477   0.630   0.389 -0.0668 -0.1065 -0.2765
34934W        W41384  24.936   2.858  12.647  0.2146 -0.0509 -0.3133
34935W        W41385  19.303   5.666  30.223 -0.1469  0.0591  0.0628
34936W        W41386   2.244   7.446  30.376  0.1616  0.0432  0.0882
34937W        W41387   4.009   6.903   3.184  0.1050 -0.1555 -0.1946
34938W        W41388   6.883   7.067   0.484 -0.0747  0.2041 -0.0802
34939W        W41389   1.223   5.432  15.416 -0.2380  0.1795  0.1379
34940W        W41390   9.788   3.655   0.634 -0.1387 -0.0635  0.1298
34941W        W41391  21.278   0.805  10.036  0.0576  0.2307 -0.1042
34942W        W41392  10.996   6.569  25.015  0.2536 -0.3057  0.0942
34943W        W41393   3.269   4.016  17.465  0.1092  0.3260 -0.1771
34944W        W41394   8.570   6.292   4.705 -0.2605  0.1662  0.2567
34945W        W41395  18.279   3.340   5.827  0.1898 -0.0260 -0.1986
34946W        W41396   4.185   5.693   9.612  0.0255 -0.0341  0.1030
34947W        W41397   9.407   5.003  29.927 -0.0325  0.0780 -0.2763
34948W        W41398   4.145   2.968   6.393 -0.4067  0.2991 -0.4726
34949W        W41399   5.226   3.736  14.386 -0.2134 -0.2909  0.0944
34950W        W41400   3.952   7.188  28.891 -0.1867 -0.3348  0.2595
34951W        W41401  19.549   2.335  30.599  0.0055  0.1649  0.0469
34952W        W41402   8.103   6.144   8.430 -0.0314  0.3993 -0.1132
34953W        W41403   6.501   0.800  24.562 -0.0068  0.0723  0.0709
34954W        W41404   0.268   0.924  26.573 -0.0907 -0.0364 -0.0312
34955W        W41405   3.281   1.507  30.632 -0.1377 -0.0868  0.1557
34956W        W41406  21.083   6.980  31.383 -0.3871  0.1153  0.0866
34957W        W41407  15.701   5.233  27.253 -0.0517 -0.0497  0.0794
34958W        W41408   0.736   2.564   9.828 -0.3581  0.1662 -0.0280
34959W        W41409   8.486   6.202  32.886 -0.2442 -0.0734 -0.0519
34960W        W41410  19.049   2.605   0.142  0.1775  0.0433 -0.1085
34961W        W41411  23.079   3.537   2.112 -0.0923  0.1756 -0.3831
34962W        W41412   0.944   4.593  24.624 -0.1240  0.0209  0.2210
34963W        W41413   2.707   4.670  13.411  0.0588 -0.2400  0.1334
34964W        W41414  12.262   4.193   9.809 -0.0469  0.1170 -0.1189
34965W        W41415   8.309   7.678  22.796 -0.3180 -0.1124  0.2372
34966W        W41416   2.261   5.886   6.650  0.0250 -0.2281 -0.0332
34967W        W41417  19.987   3.039   7.637 -0.1523 -0.0019  0.1951
34968W        W41418  15.510   2.952  18.437  0.0882  0.0950 -0.1206
34969W        W41419  17.379   5.063  31.748 -0.2269  0.0847  0.0498
34970W        W41420  18.698   3.193   5.396  0.0528 -0.1022 -0.2961
34971W        W41421  14.867   1.368  27.169  0.0981  0.1879  0.0947
34972W        W41422  11.379   6.058  29.376 -0.1355 -0.0982 -0.0655
34973W        W41423   5.461   3.370  16.019 -0.0405  0.0820  0.1307
34974W        W41424  11.509   3.918  31.727 -0.0868  0.4006 -0.1228
34975W        W41425  21.922   7.735   3.472 -0.1864  0.0991  0.2022
34976W        W41426  21.998   1.911  27.905 -0.0479 -0.1358  0.2020
34977W        W41427  11.933   0.137  19.035  0.0674  0.0776 -0.1647
34978W        W41428   2.975   0.016  17.248 -0.0867 -0.0245 -0.2405
34979W        W41429   2.749   0.734  18.586 -0.1104  0.1276  0.1854
34980W        W41430  12.685   3.523   3.142  0.0631 -0.0249  0.2769
34981W        W41431  10.488   1.508   4.519  0.0474 -0.2664 -0.1647
34982W        W41432  10.717   1.803  32.982  0.0267  0.1530 -0.0085
34983W        W41433  14.269   0.266  16.502  0.1937  0.1199  0.3618
34984W        W41434  24.150   7.738  25.623  0.0375 -0.1045  0.2089
34985W        W41435  11.118   2.483   9.604  0.0162 -0.1385 -0.1860
34986W        W41436  13.919   0.714  33.022  0.1842 -0.0754  0.1854
34987W        W41437   0.984   4.277   5.784 -0.2059  0.0760  0.2932
34988W        W41438   3.889   1.329   5.655  0.1670 -0.2696  0.0235
34989W        W41439  21.098   3.409  32.737 -0.0175 -0.1544  0.0003
34990W        W41440  12.451   5.329   8.029 -0.0372 -0.2450 -0.1198
34991W        W41441  24.345   0.749  29.668 -0.3588 -0.3954  0.1082
34992W        W41442   4.701   2.935   5.190  0.1148  0.4552  0.2019
34993W        W41443  12.276   7.298  26.939  0.2447  0.1495  0.0663
34994W        W41444  14.658   1.135   8.665  0.0986 -0.1979  0.1304
34995W        W41445   5.126   7.549  32.378  0.0564  0.0444  0.2016
34996W        W41446  23.432   0.848  32.240 -0.0954 -0.1071  0.0010
34997W        W41447  20.509   1.886  24.792 -0.2589 -0.0057  0.1032
34998W        W41448  11.101   2.301   1.223  0.1525  0.0575  0.1719
34999W        W41449  24.546   1.476  26.659  0.1849  0.0304 -0.2471
35000W        W41450  12.819   6.989  17.278  0.0078 -0.1193 -0.3452
35001W        W41451  20.475   0.828  21.059 -0.2026  0.0729 -0.0539
35002W        W41452  17.459   0.520   3.846 -0.1231  0.0193  0.0663
35003W        W41453  16.051   3.605  29.649  0.1193  0.1805  0.0667
35004W        W41454   8.159   6.075   3.026 -0.2636  0.0625  0.1235
35005W        W41455  21.456   5.580  28.722 -0.0887 -0.0605 -0.0046
35006W        W41456  18.236   1.828   4.250 -0.2372  0.0503 -0.2141
35007W        W41457   7.884   7.800   7.426 -0.1030 -0.2106 -0.0772
35008W        W41458  24.741   7.363  22.420 -0.2038  0.3763  0.1533
35009W        W41459  16.353   1.637  16.198 -0.1823  0.0484 -0.1409
35010W        W41460   9.671   6.414   9.795 -0.0180  0.0283 -0.0341
35011W        W41461   9.345   5.035  26.292  0.0109  0.1304  0.4939
35012W        W41462   1.047   4.722  12.678 -0.2183  0.4505  0.1066
35013W        W41463  10.186   0.569  30.113  0.0265  0.4352 -0.2400
35014W        W41464  21.744   4.138  25.132 -0.1796  0.1125  0.2506
35015W        W41465   0.354   2.512   5.982  0.1175 -0.2542 -0.2017
35016W        W41466  13.934   5.011  24.308 -0.2961 -0.0039  0.1374
35017W        W41467   7.104   1.284   7.799  0.3871 -0.1164  0.3858
35018W        W41468   9.147   3.170  30.236  0.4288 -0.0820  0.2023
35019W        W41469  23.172   2.195  32.023  0.0194 -0.0494 -0.1928
35020W        W41470   0.256   2.602   9.267  0.0119  0.0515  0.0457
35021W        W41471   8.681   1.705   0.127 -0.1192  0.0621  0.0450
35022W        W41472  20.084   5.680  24.611 -0.1301 -0.1713 -0.0593
35023W        W41473   3.423   1.629  24.299 -0.0049 -0.2888  0.0542
35024W        W41474  11.566   2.422  11.407  0.2417  0.0934  0.1475
35025W        W41475  13.619   2.821  27.129  0.0367 -0.1145  0.0248
35026W        W41476   6.542   4.960   8.616  0.1925  0.0026 -0.0057
35027W        W41477  10.376   1.767  26.605 -0.2259 -0.0555 -0.1122
35028W        W41478   2.673   5.782  30.543 -0.1215  0.3555 -0.2384
35029W        W41479   7.123   3.284  23.843  0.0916 -0.1264  0.3251
35030W        W41480   0.067   6.006   9.562 -0.2040 -0.0467 -0.2580
35031W        W41481   8.946   5.964  11.258 -0.2012  0.0292  0.1220
35032W        W41482  21.532   2.724   6.907  0.0324 -0.0275  0.1484
35033W        W41483  13.832   5.542   2.275  0.0182  0.1233  0.1355
35034W        W41484  14.063   2.474  10.634  0.0026 -0.0950 -0.1063
35035W        W41485  19.936   2.731  25.232  0.2738  0.0697  0.0350
35036W        W41486  12.798   5.639  26.842 -0.0141  0.0784  0.1126
35037W        W41487  13.206   3.685  10.673  0.1246 -0.3287 -0.0825
35038W        W41488   8.106   5.803  26.739 -0.3887 -0.2632 -0.0361
35039W        W41489   1.748   6.248  16.633 -0.2358  0.0510 -0.0812
35040W        W41490   7.754   2.113   0.055 -0.2239 -0.0431 -0.4036
35041W        W41491  15.747   4.865  18.525  0.0319  0.1094 -0.0405
35042W        W41492  18.813   1.512  27.151 -0.0255  0.0728 -0.1419
35043W        W41493   4.206   0.350  30.525 -0.1983 -0.2400  0.0117
35044W        W41494  24.617   4.230   7.318 -0.3330 -0.0744  0.0079
35045W        W41495  15.807   0.460   4.666 -0.3717 -0.1859 -0.1413
35046W        W41496  21.792   7.078  21.121  0.0181  0.0153  0.2984
35047W        W41497   4.429   6.033  24.598  0.1293  0.1107 -0.0799
35048W        W41498  19.384   4.636  26.846 -0.0680 -0.3736  0.2261
35049W        W41499  12.569   7.570  29.819 -0.0602  0.0293 -0.1166
35050W        W41500   4.517   2.336  16.098  0.0314 -0.0523  0.1535
35051W        W41501   1.398   1.645   2.465  0.0579  0.3053 -0.0492
35052W        W41502  20.087   3.747  28.241 -0.0163  0.1908 -0.1197
35053W        W41503   7.656   2.338  28.841  0.2081 -0.2440 -0.0407
35054W        W41504  20.535   6.348  10.869  0.1188 -0.2170 -0.0518
35055W        W41505  17.971   0.888   6.926  0.0832  0.2147  0.1405
35056W        W41506  19.359   1.931  16.738 -0.1609  0.3552 -0.1938
35057W        W41507  12.228   1.599  24.176  0.1396 -0.0052  0.4661
35058W        W41508  21.728   5.035  12.573 -0.2050 -0.0252 -0.1726
35059W        W41509  23.024   6.162   4.512  0.0168  0.2695  0.1583
35060W        W41510   1.899   0.069  31.924 -0.1384 -0.1821  0.1185
35061W        W41511  24.004   3.134  26.736  0.1589  0.1581  0.1547
35062W        W41512  16.814   5.841  20.737 -0.2359 -0.0444 -0.0112
35063W        W41513  20.186   5.384   4.504  0.0768 -0.2614  0.1405
35064W        W41514   3.154   5.934  30.607  0.0019  0.2692  0.0277
35065W        W41515  11.143   5.231   7.737  0.3540  0.0692  0.0585
35066W        W41516  24.789   6.178  26.828 -0.0283  0.2408 -0.0801
35067W        W41517  21.292   6.259  22.151 -0.2710 -0.3188 -0.0990
35068W        W41518   3.367   5.061  16.672 -0.1128  0.1547 -0.1451
35069W        W41519  13.438   3.190  26.319 -0.3042 -0.0698  0.2121
35070W        W41520  23.737   2.793  32.905 -0.0917  0.0084 -0.0803
35071W        W41521  16.798   2.275  28.567 -0.0125  0.0559  0.2793
35072W        W41522  23.846   3.365  11.432 -0.0113  0.0945  0.0898
35073W        W41523   4.344   2.568   6.687 -0.2705  0.1068 -0.0557
35074W        W41524   3.252   3.439   7.448 -0.0661  0.1195  0.1783
35075W        W41525  21.824   2.737   0.728  0.0848  0.1336  0.0583
35076W        W41526   1.694   0.276   9.671  0.1987 -0.0750  0.3056
35077W        W41527  13.061   2.726   8.193  0.0874 -0.0721  0.1739
35078W        W41528   0.211   3.795  21.186 -0.0453  0.1779  0.0233
35079W        W41529  19.197   2.834  20.323  0.0185  0.3156  0.0898
35080W        W41530  17.378   6.345  25.023  0.1688  0.1785 -0.1694
35081W        W41531  20.695   6.284  25.415  0.1047 -0.1249  0.2604
35082W        W41532   7.056   4.694  27.073 -0.0545 -0.2308 -0.2813
35083W        W41533  15.136   0.857  29.252 -0.1477  0.1802 -0.2172
35084W        W41534   8.097   5.247  30.273 -0.0194 -0.0368 -0.0444
35085W        W41535  11.439   7.522  26.689 -0.1470  0.0695  0.0244
35086W        W41536   5.779   0.575  13.202  0.2369  0.0074 -0.0266
35087W        W41537   3.401   3.372  29.780  0.0451  0.5158  0.1429
35088W        W41538   4.903   0.909  26.127 -0.0351  0.2725  0.2193
35089W        W41539   6.242   4.019   0.730  0.0371 -0.1661 -0.0196
35090W        W41540   4.822   1.456  18.170  0.1174  0.5407  0.1284
35091W        W41541  11.442   1.201   1.620 -0.2546  0.2027 -0.1518
35092W        W41542   8.351   4.371   9.608  0.0518  0.0650 -0.1148
35093W        W41543   3.717   4.459  30.829  0.3068  0.0004  0.0086
35094W        W41544   4.847   1.791   6.666 -0.2606  0.3091 -0.1638
35095W        W41545   7.585   2.511  27.771 -0.1750  0.1762  0.1466
35096W        W41546   1.933   0.594  25.619 -0.2196 -0.0634 -0.0867
35097W        W41547   9.898   4.786   5.956 -0.0637  0.0021  0.0409
35098W        W41548   1.478   4.915   4.277 -0.3705 -0.4086 -0.0054
35099W        W41549  21.400   5.626  31.822 -0.1568  0.2675  0.0871
35100W        W41550  20.779   3.298  26.257  0.0569  0.3359 -0.2544
35101W        W41551  13.190   1.982   0.599  0.2678  0.0102 -0.0630
35102W        W41552   3.233   0.898  29.908  0.3340 -0.2075  0.1509
35103W        W41553   5.475   6.522   1.653 -0.2717 -0.2123  0.2726
35104W        W41554   7.167   1.168   4.320 -0.1746 -0.0917  0.2777
35105W        W41555   7.419   2.142  11.815 -0.1875 -0.2279  0.0879
35106W        W41556  10.867   4.657   5.084  0.2786 -0.0969 -0.1577
35107W        W41557   0.187   5.744  23.545  0.1505  0.0707  0.0747
35108W        W41558   6.680   4.354  15.804 -0.0316 -0.1258 -0.2169
35109W        W41559   8.762   5.801   0.914  0.1157 -0.0783  0.0932
35110W        W41560   5.421   4.888  11.865 -0.0994 -0.1458 -0.2802
35111W        W41561  21.085   4.264  27.342 -0.4464  0.1371  0.1697
35112W        W41562  22.857   0.570  22.979 -0.3723 -0.0775  0.2348
35113W        W41563  24.001   1.655  29.777  0.0576  0.0999 -0.1403
35114W        W41564  20.928   0.993  18.120 -0.0826  0.1996 -0.0819
35115W        W41565  22.804   5.712  24.271  0.0190 -0.0270 -0.1921
35116W        W41566   5.873   4.135  29.647  0.1546 -0.0944  0.0634
35117W        W41567   4.328   7.275  29.771 -0.1383 -0.1607 -0.1524
35118W        W41568  18.953   0.025   9.049 -0.1216  0.0813  0.0656
35119W        W41569  14.728   5.698   7.897 -0.2120  0.0312 -0.0778
35120W        W41570  10.948   6.570  24.508  0.0017 -0.1984 -0.1504
35121W        W41571   3.357   3.469  16.852 -0.0773  0.3963  0.1314
35122W        W41572  15.956   4.657  31.324 -0.0227  0.2152  0.3379
35123W        W41573  24.548   5.108   6.103 -0.0326 -0.0975  0.2161
35124W        W41574  16.719   6.734   3.367 -0.3092  0.1838 -0.0870
35125W        W41575   4.552   5.511   4.530 -0.1143 -0.0763  0.0677
35126W        W41576  23.159   5.101  12.678  0.1038 -0.1287 -0.2803
35127W        W41577  13.240   6.360  17.872 -0.2099 -0.3092  0.0438
35128W        W41578   4.028   6.972  24.784 -0.0833  0.1362 -0.0263
35129W        W41579   9.745   6.977   8.841  0.3630 -0.0064  0.4128
35130W        W41580   0.539   1.408  12.289  0.1978 -0.3001  0.0101
35131W        W41581  18.569   6.626  16.292 -0.0427 -0.1181  0.0350
35132W        W41582   2.605   5.712  26.589 -0.2604 -0.3086 -0.3136
35133W        W41583  15.075   0.496  25.032 -0.0714 -0.1409  0.2326
35134W        W41584  12.554   3.725  10.568  0.1072  0.1295  0.4090
35135W        W41585  19.179   1.137   7.002  0.2969  0.0774 -0.3860
35136W        W41586   0.071   7.521   6.154  0.0834 -0.0261 -0.2116
35137W        W41587   5.393   6.189   4.877 -0.1078 -0.0275  0.2011
35138W        W41588  15.792   4.524  25.941  0.0115 -0.1580 -0.0036
35139W        W41589  24.130   0.825  13.495 -0.1116 -0.0403  0.1941
35140W        W41590  10.783   1.629   5.974 -0.2778 -0.1986  0.2087
35141W        W41591  11.162   6.011  29.879 -0.1235  0.0884  0.0474
35142W        W41592  10.929   0.815  22.799  0.0189  0.1592  0.2545
35143W        W41593  11.753   1.215   8.014 -0.2206  0.2793 -0.0141
35144W        W41594   9.458   2.598  28.495 -0.2403 -0.1011 -0.0736
35145W        W41595   2.065   4.578  24.660 -0.1587  0.1065 -0.1491
35146W        W41596  18.835   2.265  28.721  0.2980 -0.0711 -0.0437
35147W        W41597  23.012   6.050   2.564  0.1631 -0.2105  0.0782
35148W        W41598   4.121   7.072  22.841 -0.0504 -0.0508 -0.0680
35149W        W41599  24.140   7.260  28.589  0.1913  0.0760  0.2639
35150W        W41600  13.696   2.681  23.004 -0.1373 -0.2724  0.0568
35151W        W41601  24.047   4.233  24.376  0.2155  0.2795 -0.0777
35152W        W41602  19.045   2.356  18.600 -0.2264 -0.0242  0.0471
35153W        W41603  14.343   6.950   2.832 -0.0784  0.1620 -0.0421
35154W        W41604  13.708   3.484  25.947 -0.1921  0.1319  0.2436
35155W        W41605  17.273   1.185  26.956  0.0490  0.1961 -0.2167
35156W        W41606  24.477   6.098   7.579 -0.1021 -0.0143 -0.0766
35157W        W41607  23.230   4.824  27.661  0.0267 -0.0138 -0.1723
35158W        W41608   4.398   4.387  32.142 -0.0084 -0.0655  0.0869
35159W        W41609  19.970   2.245   1.132  0.1157 -0.2433  0.2123
35160W        W41610  10.170   0.856  31.148  0.3592  0.1544 -0.0325
35161W        W41611   7.188   0.722  32.946  0.2156  0.3096 -0.1152
35162W        W41612  11.988   4.983   0.776  0.0344  0.1899  0.1562
35163W        W41613  23.664   4.171   8.339 -0.1600  0.3873 -0.0876
35164W        W41614  15.930   4.920  16.733  0.1427  0.1873  0.0087
35165W        W41615   2.112   6.962  29.577  0.1764 -0.4055 -0.2891
35166W        W41616  22.596   1.786   4.829 -0.2878  0.1243  0.0332
35167W        W41617  22.764   4.954  12.860  0.0448 -0.2043 -0.1757
35168W        W41618  24.841   0.494  25.975  0.0160  0.2207  0.0732
35169W        W41619  14.100   3.582  18.851  0.1578  0.0802  0.0635
35170W        W41620  15.200   4.766  30.604  0.1810 -0.0705 -0.1538
35171W        W41621  17.798   5.671  20.892  0.4206 -0.0482  0.0856
35172W        W41622   4.652   1.666  11.555 -0.2319 -0.0458 -0.4341
35173W        W41623  19.802   3.702  20.471  0.3589 -0.1681 -0.0215
35174W        W41624  16.802   6.349  20.613 -0.2130 -0.0107  0.0689
35175W        W41625   7.264   5.844   8.027  0.0468  0.0207 -0.2052
35176W        W41626  18.115   7.719  28.680  0.0589  0.0298 -0.1208
35177W        W41627  11.019   4.355  10.563 -0.1749 -0.1119 -0.2976
35178W        W41628   0.057   1.763  14.972  0.0137 -0.0290 -0.4519
35179W        W41629  16.805   0.366  19.676 -0.1323  0.0569  0.0163
35180W        W41630   7.654   6.972   7.612 -0.0810 -0.2314  0.0126
35181W        W41631   6.060   5.126  25.100  0.1156  0.0853  0.0170
35182W        W41632   6.653   2.695   8.720  0.0452  0.1139 -0.0891
35183W        W41633  24.445   2.799   5.755 -0.1258  0.1615  0.3435
35184W        W41634  17.255   0.140   8.188  0.0897 -0.2503  0.0653
35185W        W41635  20.707   1.009  26.597  0.2455  0.1128 -0.1001
35186W        W41636   1.029   1.304   8.250 -0.0098  0.0734  0.2106
35187W        W41637  12.301   0.368   5.168 -0.1316 -0.0253  0.1605
35188W        W41638   3.679   4.219  25.690 -0.3617 -0.0355 -0.2389
35189W        W41639   9.876   2.442  11.126 -0.1230  0.1000 -0.0546
35190W        W41640   9.670   4.910   0.572  0.0882  0.1983  0.0275
35191W        W41641  18.883   6.078  15.575 -0.2171  0.1316  0.0863
35192W        W41642   9.668   1.792   2.150  0.1630 -0.0160  0.1053
35193W        W41643   0.193   3.730   2.818  0.0079 -0.2519  0.2280
35194W        W41644   4.341   2.265  30.055 -0.0812  0.1557 -0.2301
35195W        W41645   2.890   5.900  16.348 -0.0498 -0.1797  0.1639
35196W        W41646  12.699   5.525   1.071  0.1941 -0.0225  0.0784
35197W        W41647  13.621   3.824  32.825  0.0914 -0.0153 -0.3160
35198W        W41648   1.590   7.791  11.900 -0.0074 -0.1315 -0.3828
35199W        W41649  17.225   3.246   5.040  0.0476  0.2324  0.0448
35200W        W41650  16.589   7.103  25.728  0.2104  0.0401  0.0761
35201W        W41651   8.427   2.056   4.296  0.2520 -0.1664  0.0739
35202W        W41652  15.823   7.488  29.055 -0.0519  0.0933  0.1860
35203W        W41653   4.460   5.309   0.841  0.0115  0.0479  0.1699
35204W        W41654  19.984   4.558   1.312  0.1143 -0.0831  0.0416
35205W        W41655   5.294   3.180  32.132 -0.0691 -0.1467  0.0855
35206W        W41656   3.084   5.540  27.399  0.2091 -0.0009  0.1898
35207W        W41657  19.336   1.299   1.021 -0.2161  0.0558 -0.1539
35208W        W41658  20.058   5.436  32.843  0.0497  0.1234  0.2182
35209W        W41659  15.851   1.686  27.035  0.0605 -0.1343 -0.1003
35210W        W41660   4.296   3.385   3.042 -0.0570  0.0814 -0.1090
35211W        W41661  13.342   7.635   5.161  0.1973 -0.1241 -0.0140
35212W        W41662  14.655   0.459   5.729  0.1832  0.0282 -0.1019
35213W        W41663  19.213   6.831   4.647  0.0882 -0.0233  0.0360
35214W        W41664  17.490   6.238  31.280 -0.1944 -0.0290  0.4758
35215W        W41665   1.705   0.071  10.558 -0.3194  0.0557  0.2306
35216W        W41666   4.929   5.024   2.918  0.2342 -0.1453 -0.0305
35217W        W41667  11.375   5.331  24.680 -0.0509 -0.3220  0.0627
35218W        W41668   6.980   2.710  25.178 -0.0642  0.2214 -0.1946
35219W        W41669  17.014   1.785  24.600  0.2484  0.0755 -0.1255
35220W        W41670   5.874   1.988  11.482 -0.1656 -0.2852 -0.1882
35221W        W41671   0.363   1.899  12.170 -0.0034 -0.0133  0.0501
35222W        W41672  22.176   7.257  24.015  0.1604 -0.2362  0.1866
35223W        W41673  22.333   5.421  24.449  0.3332  0.2936  0.0147
35224W        W41674  20.223   2.437  29.083  0.0574 -0.1519 -0.3109
35225W        W41675   0.241   0.498   9.663  0.1106  0.1208 -0.1023
35226W        W41676  15.801   2.446  20.130 -0.2752 -0.1542 -0.0897
35227W        W41677   0.157   7.733  11.234  0.1369  0.0825 -0.0276
35228W        W41678  22.666   2.040  25.181  0.0642  0.0187 -0.2083
35229W        W41679  16.014   4.315   4.698 -0.0395  0.2671  0.0278
35230W        W41680   5.531   6.343  29.460 -0.3412 -0.1934  0.1022
35231W        W41681  18.323   5.827  21.499  0.0820  0.0134  0.1000
35232W        W41682  19.072   0.266  18.505 -0.0499 -0.2337  0.1134
35233W        W41683   2.600   2.615  10.225 -0.0202  0.4137 -0.2073
35234W        W41684   3.497   4.794  32.936 -0.0172 -0.3166 -0.1484
35235W        W41685   1.336   5.283  14.099  0.0273 -0.1123 -0.0726
35236W        W41686  17.122   7.782  26.357  0.0176  0.3027 -0.3010
35237W        W41687  18.485   0.554   2.309 -0.0503 -0.1477  0.0711
35238W        W41688  19.240   6.939   4.116  0.1623 -0.3497 -0.0140
35239W        W41689  24.472   3.224  21.712  0.0706  0.1964  0.2258
35240W        W41690  14.857   6.063  30.698 -0.5411  0.4293 -0.2967
35241W        W41691   2.162   1.255  24.002  0.1114  0.1714 -0.2088
35242W        W41692   5.959   2.886  13.476 -0.0319 -0.4060 -0.2176
35243W        W41693   1.256   4.272  16.059 -0.1864 -0.0603 -0.0971
35244W        W41694   8.724   3.088  28.986  0.1994 -0.2127  0.1446
35245W        W41695   2.476   6.764  25.766 -0.1315 -0.0803  0.3343
35246W        W41696  17.407   4.317   8.982 -0.2574  0.1839 -0.0165
35247W        W41697  16.520   1.827  20.224 -0.1285  0.1168  0.0044
35248W        W41698   8.016   6.825  29.482 -0.2084 -0.1966  0.1299
35249W        W41699   6.635   0.150   8.531  0.1389 -0.1693 -0.1714
35250W        W41700   6.290   5.846   1.847 -0.1885  0.0652 -0.0615
35251W        W41701  15.375   5.736   6.293  0.0268  0.4964 -0.0522
35252W        W41702  17.733   7.418  22.490  0.0646  0.0691 -0.3911
35253W        W41703  17.298   6.651   7.805 -0.3821 -0.0936  0.3268
35254W        W41704  10.424   3.747   7.335 -0.1208  0.3200  0.0505
35255W        W41705  22.443   4.657   5.533 -0.3099 -0.0284  0.1715
35256W        W41706  14.223   5.122  29.893 -0.0980 -0.0018  0.0744
35257W        W41707   6.889   2.246  30.988 -0.4434 -0.3401 -0.2062
35258W        W41708   0.828   0.596  24.208 -0.0226  0.0262  0.2699
35259W        W41709  10.187   4.559   0.839 -0.0144  0.3710 -0.2675
35260W        W41710  24.071   7.147   8.646  0.0116 -0.2906 -0.0727
35261W        W41711  22.427   5.738  20.239 -0.1176  0.1625  0.1497
35262W        W41712  18.255   0.474  30.064 -0.0347  0.1733 -0.1428
35263W        W41713  21.278   6.892  25.740 -0.1161 -0.2825 -0.1889
35264W        W41714   7.432   5.724  15.895 -0.1767  0.0392  0.1011
35265W        W41715   5.024   0.239   1.555 -0.1265 -0.1123 -0.1552
35266W        W41716   8.480   5.597   0.446 -0.1632  0.4510  0.1315
35267W        W41717  17.768   7.327  21.461  0.1717 -0.0201 -0.2502
35268W        W41718   6.263   2.053   2.687 -0.0386  0.0090  0.2878
35269W        W41719  17.116   3.721   0.949  0.0082  0.2145 -0.0126
35270W        W41720  20.124   7.576  29.594  0.2468  0.2583 -0.2259
35271W        W41721   2.589   1.331   3.514  0.1098  0.0110  0.2481
35272W        W41722  10.139   0.326  12.069  0.1269  0.2288  0.1241
35273W        W41723  17.769   1.260   1.414 -0.3867 -0.0209 -0.2277
35274W        W41724   6.425   5.029  17.330  0.2325 -0.2733  0.1281
35275W        W41725  15.774   0.818  31.896 -0.0669  0.0756 -0.0365
35276W        W41726   8.820   2.792  32.081  0.0926 -0.0593 -0.0814
35277W        W41727  16.387   7.300  22.054  0.0205  0.0754 -0.1015
35278W        W41728  10.713   2.772  23.087  0.0071 -0.0156 -0.2806
35279W        W41729   3.318   5.021  25.198 -0.0834 -0.1816  0.1758
35280W        W41730  17.599   0.822  24.683  0.2540 -0.1275 -0.0736
35281W        W41731   6.385   7.516   4.593 -0.0673 -0.1684  0.2705
35282W        W41732  22.794   3.530   4.817  0.0616  0.1598 -0.1170
35283W        W41733   0.695   7.533  10.220  0.3660  0.1149 -0.1452
35284W        W41734  23.014   2.600  13.503  0.0619 -0.0416 -0.2546
35285W        W41735  18.790   0.650  19.261  0.0676 -0.0319 -0.0739
35286W        W41736   5.338   3.675   3.335 -0.1666  0.2331 -0.0563
35287W        W41737   6.419   2.488  29.257  0.1847 -0.1127  0.2311
35288W        W41738   6.609   3.062  11.854 -0.0206  0.1121 -0.0132
35289W        W41739  19.388   2.475   5.962 -0.0062  0.1168 -0.2293
35290W        W41740   9.906   5.917  32.495 -0.1309 -0.1424 -0.0303
35291W        W41741  20.289   3.198  26.271  0.0823 -0.0115 -0.1414
35292W        W41742   7.177   7.732   6.030 -0.1206  0.0233  0.4270
35293W        W41743   1.059   1.419   7.063  0.1936 -0.0235  0.0701
35294W        W41744  18.217   7.687  18.098 -0.1085 -0.0854  0.2097
35295W        W41745   2.644   1.495  11.968 -0.2608 -0.0463 -0.0928
35296W        W41746  11.581   2.541  23.381  0.1920 -0.1206 -0.0176
35297W        W41747  17.018   5.351  26.305  0.1410  0.1528 -0.2702
35298W        W41748  23.710   4.292   0.827 -0.0814  0.0872  0.2811
35299W        W41749   6.614   3.919   4.608  0.3735  0.1140  0.1878
35300W        W41750  23.916   2.706   6.533 -0.1843 -0.2211  0.1042
35301W        W41751   7.713   7.633   3.885 -0.1354  0.0559  0.2479
35302W        W41752  17.896   6.601   9.814  0.4573 -0.0357 -0.0992
35303W        W41753   9.495   2.455   0.976  0.0600  0.1414  0.0102
35304W        W41754  18.767   3.504  28.966 -0.0414  0.2460  0.2675
35305W        W41755   2.082   1.671   2.348  0.0200  0.0756 -0.1428
35306W        W41756  10.628   3.350  19.997 -0.0194 -0.0939  0.2062
35307W        W41757  10.085   4.096  24.510  0.1636 -0.1849  0.4251
35308W        W41758  14.156   6.489  26.616 -0.1485 -0.0910 -0.2661
35309W        W41759   5.093   7.128   0.350  0.2079 -0.2630  0.0855
35310W        W41760  17.515   4.453  28.788  0.3124 -0.1080 -0.1775
35311W        W41761  20.160   3.019   6.006  0.2878  0.1836 -0.1365
35312W        W41762   4.491   5.523   6.215 -0.1333 -0.1845  0.2708
35313W        W41763  15.643   4.635   6.855 -0.2223 -0.0235 -0.1723
35314W        W41764   9.366   3.290   9.283  0.1023  0.1099  0.1291
35315W        W41765  10.751   4.046  32.274  0.1573  0.3956  0.4451
35316W        W41766   9.089   5.003   2.399  0.2839  0.3421 -0.2489
35317W        W41767   2.879   1.278   3.951  0.1075 -0.2651  0.1706
35318W        W41768   1.348   2.255  29.207 -0.1229 -0.1705  0.1311
35319W        W41769   6.910   0.983  14.990 -0.0226  0.3143  0.1552
35320W        W41770   4.135   4.941  24.211 -0.2657 -0.4372  0.1107
35321W        W41771  14.038   4.934  20.121  0.0162  0.0657  0.0581
35322W        W41772  14.469   1.582  20.823  0.2031  0.2375  0.0264
35323W        W41773  21.886   1.332  29.840  0.1550 -0.1580 -0.0333
35324W        W41774   7.408   7.486  12.022 -0.2046  0.2030  0.2230
35325W        W41775   2.225   5.482   4.422 -0.1338  0.0997  0.0222
35326W        W41776  10.308   7.376  19.209 -0.2379  0.0507 -0.0606
35327W        W41777   8.690   3.244  30.609  0.0531  0.1966 -0.0629
35328W        W41778  21.347   3.927  25.292 -0.1446 -0.0704 -0.1683
35329W        W41779   8.533   3.026  22.454 -0.0349  0.0419 -0.0224
35330W        W41780  16.520   6.783  18.906 -0.0253  0.0173  0.0764
35331W        W41781  24.611   4.619  27.324 -0.2033 -0.3604  0.0480
35332W        W41782   0.375   1.417  10.466 -0.1561  0.1039 -0.2863
35333W        W41783  22.280   5.338  30.240  0.1139 -0.1930  0.0413
35334W        W41784   8.635   2.206  12.637 -0.0086 -0.2553 -0.1920
35335W        W41785  23.086   5.203  21.927 -0.1033  0.0468 -0.4025
35336W        W41786  10.876   4.797   2.268 -0.2250  0.1706  0.3747
35337W        W41787  22.166   0.099   5.461 -0.1139  0.4921  0.6328
35338W        W41788   7.838   3.092  25.184 -0.0666  0.0691  0.4941
35339W        W41789   7.891   4.973  14.468 -0.0962  0.0598  0.4021
35340W        W41790   3.860   4.926  30.702  0.1109  0.0031 -0.1594
35341W        W41791  24.455   1.314   2.817  0.0086 -0.1148 -0.0836
35342W        W41792   5.655   6.060  31.618 -0.0012  0.1608  0.0773
35343W        W41793  23.137   3.046  24.393 -0.0090  0.1887 -0.1277
35344W        W41794   4.356   6.099   9.336  0.0488 -0.2556 -0.2221
35345W        W41795   1.552   7.182   0.002 -0.1248  0.1338 -0.0377
35346W        W41796   7.030   3.269  13.335  0.1312 -0.0686  0.0135
35347W        W41797  10.762   4.715  29.318  0.3381 -0.3231 -0.0834
35348W        W41798   1.314   6.818  11.846  0.1617 -0.0714  0.0755
35349W        W41799   4.420   7.075  23.293  0.0028 -0.3360  0.2437
35350W        W41800  23.820   6.182  22.865 -0.2765  0.0243 -0.2319
35351W        W41801   4.205   3.126  29.206 -0.0334 -0.2130  0.0811
35352W        W41802  15.620   1.404  27.999 -0.0731 -0.1249 -0.3563
35353W        W41803   3.278   0.655   7.075 -0.1630 -0.0607 -0.1266
35354W        W41804   9.164   6.955  10.122 -0.3383  0.1639 -0.4160
35355W        W41805  14.248   3.225   9.930 -0.0409  0.0440  0.0584
35356W        W41806  16.646   6.274  29.340  0.0841 -0.0561  0.3380
35357W        W41807  15.144   4.526  27.660  0.0578 -0.0760  0.3938
35358W        W41808   0.501   7.053  12.302 -0.1477  0.0156 -0.2707
35359W        W41809  20.103   5.033   6.804 -0.3085  0.1788  0.0573
35360W        W41810   7.104   1.887  14.042 -0.0319 -0.0685  0.2714
35361W        W41811   5.771   6.198  16.281  0.0598  0.1486 -0.1019
35362W        W41812  19.231   4.433   2.536  0.1187  0.2619  0.0337
35363W        W41813  11.701   4.671   1.842  0.2598 -0.1857  0.0214
35364W        W41814   9.833   3.712   1.998  0.1604 -0.1235 -0.3746
35365W        W41815   9.033   3.317   6.134  0.1577 -0.2015 -0.0045
35366W        W41816  20.145   3.637   0.021  0.0365 -0.0563  0.1026
35367W        W41817  10.915   3.694  25.536  0.1666  0.1978  0.1733
35368W        W41818  18.116   1.281   8.817  0.2277  0.1831  0.2711
35369W        W41819  16.748   6.557  25.567 -0.0335 -0.3409  0.0714
35370W        W41820   2.987   2.703  24.639 -0.1106  0.0721  0.1274
35371W        W41821  19.404   7.014  32.039  0.2274  0.1523 -0.0845
35372W        W41822  10.518   4.220   3.929 -0.2281 -0.3496 -0.3612
35373W        W41823   7.564   0.932  30.504 -0.2723 -0.3636 -0.1315
35374W        W41824  15.537   7.548  22.942  0.4644  0.1912 -0.2171
35375W        W41825  23.422   5.668  20.945  0.1982  0.2832  0.1025
35376W        W41826  10.416   0.113   3.382 -0.2687 -0.1879 -0.1538
35377W        W41827  17.896   6.806  20.663  0.4039 -0.1174  0.1641
35378W        W41828  22.856   5.997   5.562  0.0028 -0.2122 -0.2700
35379W        W41829   2.067   7.481   7.983  0.0976  0.0543 -0.1126
35380W        W41830  19.997   0.620   1.212  0.2006  0.0187 -0.1609
35381W        W41831   1.842   4.523  23.161  0.1091  0.0616  0.0025
35382W        W41832   5.453   1.981   3.878 -0.2113  0.0606 -0.0322
35383W        W41833  10.503   5.912   3.105  0.0687  0.2297  0.0084
35384W        W41834   7.638   5.490  26.187  0.2767 -0.0436 -0.1401
35385W        W41835   0.974   7.206  27.011 -0.1090  0.3794  0.0883
35386W        W41836   6.213   6.006  16.100  0.2153 -0.1673  0.0766
35387W        W41837  19.066   2.379  27.175  0.1736 -0.2160  0.5002
35388W        W41838   1.367   0.862   5.834 -0.0667 -0.1260  0.0224
35389W        W41839  16.433   5.637  28.045 -0.1688 -0.1075  0.0814
35390W        W41840  15.007   0.970   3.481 -0.0708 -0.0778 -0.0633
35391W        W41841  21.841   1.566  19.601 -0.0162  0.0191 -0.2517
35392W        W41842   9.457   1.237  32.952 -0.0624 -0.1499  0.0610
35393W        W41843  13.673   3.220   7.177  0.2376  0.2577 -0.1644
35394W        W41844  11.565   4.455  21.152  0.0467  0.2538  0.4002
35395W        W41845   4.172   6.540  15.390  0.1290 -0.1709 -0.1039
35396W        W41846  14.334   1.889  16.371 -0.0601 -0.0011 -0.0845
35397W        W41847  16.409   0.915  27.106  0.3840  0.1986  0.0606
35398W        W41848  17.202   6.471  31.616  0.1081 -0.1434 -0.1511
35399W        W41849  12.772   4.635   3.842 -0.0977  0.0028  0.4240
35400W        W41850  11.843   3.738  20.374 -0.0164  0.1635 -0.0123
35401W        W41851  11.153   6.082   5.713 -0.0778 -0.0143  0.0533
35402W        W41852  19.045   6.040  18.687  0.1030 -0.2866  0.0681
35403W        W41853  19.274   2.002   2.797 -0.0848 -0.0983  0.0026
35404W        W41854  11.543   5.869  31.702  0.1091  0.2957  0.2004
35405W        W41855  14.027   2.922  23.255  0.0599 -0.0127 -0.1241
35406W        W41856  20.619   1.371  23.951  0.1606 -0.3995  0.0642
35407W        W41857  23.884   4.641  31.669 -0.1428 -0.5028  0.0470
35408W        W41858  17.114   6.997   2.360 -0.1900  0.0057 -0.1887
35409W        W41859   3.965   5.087  13.794  0.2713 -0.1365  0.1102
35410W        W41860  23.189   3.124  21.076 -0.2470 -0.2936 -0.5181
35411W        W41861  14.379   0.707  20.353  0.0823  0.0318 -0.0238
35412W        W41862  15.233   5.341  29.880  0.1725  0.1452  0.0445
35413W        W41863  16.471   1.053  29.153 -0.1821 -0.1828  0.0417
35414W        W41864   6.157   5.786   8.758 -0.0095 -0.1737 -0.1750
35415W        W41865  22.475   5.001   8.695 -0.0335  0.1688 -0.1630
35416W        W41866   9.020   3.335   5.306  0.0610 -0.1651  0.0776
35417W        W41867  15.807   5.886  26.614 -0.0792  0.3709  0.2136
35418W        W41868  17.453   5.630   4.698 -0.2303 -0.0555 -0.3037
35419W        W41869   1.815   4.092   6.141 -0.0434 -0.1725  0.0733
35420W        W41870   9.032   2.915  30.641 -0.2708  0.0518  0.1540
35421W        W41871  19.688   7.079  17.035  0.0457 -0.0352  0.1556
35422W        W41872  21.775   1.933  26.441  0.0811 -0.2009 -0.2235
35423W        W41873  11.420   4.037   0.774  0.0090 -0.3454 -0.2091
35424W        W41874  12.981   2.118  28.111 -0.0753  0.1916 -0.0929
35425W        W41875  13.566   0.504   4.208 -0.2068 -0.0585 -0.0476
35426W        W41876   3.898   0.528  25.732  0.1282  0.1688  0.1833
35427W        W41877  10.163   3.585  21.359 -0.1872  0.0771  0.1292
35428W        W41878  18.675   3.125   7.836  0.0618 -0.0052 -0.1890
35429W        W41879  10.931   2.142   8.642  0.0363 -0.0139  0.2199
35430W        W41880   5.338   7.154   1.718 -0.1582  0.0332  0.2328
35431W        W41881   5.416   7.358  31.595 -0.1775 -0.3543  0.1358
35432W        W41882   1.843   0.804   5.170 -0.0911 -0.0514 -0.2838
35433W        W41883  12.012   3.939  22.715 -0.0754 -0.1028 -0.0028
35434W        W41884  22.076   0.793   9.087  0.3720  0.0811 -0.2398
35435W        W41885  23.635   1.183   1.876  0.3212  0.3831  0.1104
35436W        W41886  17.127   6.030  32.033 -0.1414 -0.1987  0.1701
35437W        W41887  13.186   2.069  32.153  0.1727 -0.2201  0.3374
35438W        W41888  22.112   2.995  30.706  0.0405 -0.1508  0.1584
35439W        W41889  22.759   2.917  12.694 -0.2174  0.2063 -0.1953
35440W        W41890  13.133   7.751  29.815  0.1076 -0.3349 -0.0586
35441W        W41891  22.907   6.696   5.828  0.0079  0.1449 -0.0349
35442W        W41892  16.643   3.970  21.200  0.2666  0.0325  0.0587
35443W        W41893   5.286   0.869   7.622  0.0901 -0.0959 -0.1300
35444W        W41894  16.212   3.576  15.830  0.0052 -0.1273  0.2131
35445W        W41895  11.143   0.134  28.684 -0.0976  0.2132 -0.1751
35446W        W41896   7.202   3.002   1.299  0.0042 -0.0141  0.2730
35447W        W41897   5.539   3.637   8.065 -0.0042  0.0783  0.0020
35448W        W41898   6.233   7.792   2.383  0.0938 -0.1654  0.3024
35449W        W41899  21.288   0.342  10.309 -0.2212  0.0463 -0.0701
35450W        W41900  13.853   5.584   7.616  0.3208 -0.0757  0.1893
35451W        W41901  17.694   4.391  26.258  0.0684 -0.1365  0.1575
35452W        W41902   6.064   6.148  11.962  0.0131 -0.0690 -0.0030
35453W        W41903  12.437   1.238   4.761 -0.2395  0.1438 -0.3752
35454W        W41904  20.817   7.046  25.538 -0.0265 -0.0143  0.1734
35455W        W41905   2.640   1.754  28.031 -0.1690  0.0693  0.0138
35456W        W41906  15.523   2.535  28.333 -0.0138  0.2547 -0.0651
35457W        W41907   0.729   4.108  31.657  0.1722  0.1057 -0.0467
35458W        W41908  15.290   1.632   6.154 -0.1143  0.1919  0.1280
35459W        W41909   5.630   6.890  24.323 -0.2505  0.2199 -0.0555
35460W        W41910   6.280   0.167  25.413 -0.0663 -0.1864 -0.3268
35461W        W41911  10.384   2.799  21.648  0.0107  0.0755  0.2207
35462W        W41912   5.209   3.049   5.241  0.1009 -0.0264  0.1194
35463W        W41913   9.362   7.475  13.717  0.3994 -0.2800 -0.1141
35464W        W41914  12.570   5.605   9.379 -0.1014  0.0603  0.2816
35465W        W41915   2.702   7.636  32.283 -0.0024  0.0834 -0.0255
35466W        W41916  16.902   5.201   8.708 -0.1846 -0.1963 -0.2759
35467W        W41917  16.565   1.287  24.413 -0.0531 -0.1406  0.1315
35468W        W41918  23.698   7.662  27.285  0.0621  0.0344 -0.1025
35469W        W41919  24.361   4.053  31.955  0.2741 -0.0050  0.0092
35470W        W41920  17.083   4.409   9.464 -0.0281 -0.1269  0.0710
35471W        W41921   6.228   4.657  27.850 -0.1272 -0.0553  0.2933
35472W        W41922   9.252   1.574  29.413 -0.2794 -0.0340 -0.1655
35473W        W41923  19.853   5.166   9.361  0.1721  0.1330  0.0606
35474W        W41924   9.872   5.740   5.816  0.0770  0.1566 -0.0806
35475W        W41925   9.702   3.620   4.719 -0.0422  0.3241 -0.0072
35476W        W41926   6.805   6.489  11.289 -0.1433 -0.4016 -0.0753
35477W        W41927   7.190   0.435  32.182 -0.0944  0.0980  0.3453
35478W        W41928   3.883   3.598  13.308 -0.3479  0.2200  0.1287
35479W        W41929  13.530   2.965  30.097 -0.0656  0.1406 -0.0976
35480W        W41930   4.216   6.272   7.022 -0.2857 -0.2956  0.0432
35481W        W41931  15.120   4.489   3.161  0.1388 -0.0859 -0.3193
35482W        W41932  20.853   3.543  28.583  0.0261 -0.1821 -0.2240
35483W        W41933  18.255   2.081  27.672 -0.1111  0.0414  0.0519
35484W        W41934   9.167   6.141  29.074  0.1121 -0.0085 -0.2263
35485W        W41935  16.688   2.192  25.647  0.2369  0.1760  0.0436
35486W        W41936   4.014   4.444  23.447  0.0451  0.1266 -0.2309
35487W        W41937  13.886   2.317  27.997 -0.0953  0.2484  0.0258
35488W        W41938  21.945   0.663   5.907 -0.0201 -0.1212 -0.2167
35489W        W41939  22.363   5.946  10.532 -0.1604  0.0965  0.1954
35490W        W41940  15.900   7.219   3.803 -0.0788 -0.3492  0.1164
35491W        W41941  21.515   2.286  30.376  0.0831  0.2326  0.2778
35492W        W41942   4.040   2.645  22.197  0.0286 -0.3168  0.0470
35493W        W41943   9.655   5.848  28.219  0.0661  0.1535  0.1919
35494W        W41944   0.650   6.260  31.236  0.1494 -0.1867 -0.1734
35495W        W41945  23.660   1.607   5.653  0.1178 -0.0978  0.0384
35496W        W41946  23.855   1.090  23.715 -0.1366  0.0807 -0.0691
35497W        W41947  13.262   0.207   7.575  0.2363 -0.0143  0.1478
35498W        W41948  10.982   3.967  25.011  0.1466  0.0829 -0.1201
35499W        W41949  21.364   4.729   7.188  0.1814  0.1461 -0.0141
35500W        W41950   9.202   7.436  26.694 -0.0860 -0.0128 -0.3025
35501W        W41951  17.398   3.637  20.696  0.5056  0.0758 -0.1748
35502W        W41952   8.776   1.306  31.878  0.0445 -0.1019 -0.3273
35503W        W41953  12.543   1.741  26.763 -0.3390 -0.2435 -0.0708
35504W        W41954   8.340   0.602  13.234  0.3894 -0.3333  0.0313
35505W        W41955  18.560   2.515   6.168  0.0207 -0.3815  0.0675
35506W        W41956   6.820   2.367   5.079  0.0008 -0.2092  0.0418
35507W        W41957   6.501   4.274  31.698  0.2088  0.1389 -0.0313
35508W        W41958  24.258   2.122  12.772  0.1187 -0.1854 -0.1313
35509W        W41959   5.019   2.416  17.999  0.0449  0.2421  0.1646
35510W        W41960  19.028   0.063  29.650  0.1950  0.0246  0.0125
35511W        W41961   3.320   4.117   4.146  0.3601 -0.1499  0.0326
35512W        W41962   7.463   1.468   9.035  0.0082  0.1906  0.0106
35513W        W41963   1.379   0.266  32.388 -0.0357 -0.3962 -0.1325
35514W        W41964  22.542   7.475  30.400 -0.1265  0.1398 -0.0603
35515W        W41965   5.168   6.613  10.037  0.1142  0.0700 -0.0302
35516W        W41966  19.734   3.561   2.996  0.0448 -0.4577  0.0139
35517W        W41967  17.175   5.564   2.133 -0.1286 -0.0565  0.1858
35518W        W41968   6.475   5.448  22.266  0.1235 -0.2873 -0.0194
35519W        W41969  21.493   6.200  23.052  0.2864  0.3299 -0.4756
35520W        W41970   0.554   0.954   3.980 -0.1387  0.0361 -0.0492
35521W        W41971   0.944   5.082  17.119 -0.1804 -0.1785 -0.0838
35522W        W41972  11.979   3.093  29.590 -0.0381  0.0098 -0.1162
35523W        W41973  21.135   1.029  12.960 -0.1380 -0.1049  0.0483
35524W        W41974   9.820   0.279   4.663 -0.0247  0.3896  0.1109
35525W        W41975   0.864   1.431  11.267  0.1738 -0.1738  0.0546
35526W        W41976   7.145   1.002   5.338  0.1176  0.0403 -0.1526
35527W        W41977   8.708   7.600  27.995  0.0443 -0.3599  0.3168
35528W        W41978   6.321   1.424   7.455  0.2058  0.1626  0.0196
35529W        W41979   4.776   0.041  12.033  0.3690 -0.1590 -0.1191
35530W        W41980   4.567   4.416  14.125  0.2497 -0.0855 -0.1932
35531W        W41981   5.768   5.895   6.505  0.0761  0.2008  0.1761
35532W        W41982   2.629   6.544  10.031 -0.0495  0.0694  0.2235
35533W        W41983  16.405   0.696   3.572 -0.1095  0.0059 -0.3559
35534W        W41984   8.752   7.395  13.232  0.0763  0.3363 -0.2947
35535W        W41985  24.611   6.683  27.924 -0.0346 -0.3420  0.2666
35536W        W41986  15.874   6.937  25.182  0.0024 -0.0172 -0.0937
35537W        W41987   7.931   3.613   5.264  0.0679 -0.0572  0.0976
35538W        W41988  10.030   3.994  27.924  0.1379 -0.0147  0.0858
35539W        W41989   3.305   1.334   6.381 -0.0399 -0.0577  0.0170
35540W        W41990  19.874   4.574   9.872 -0.0553  0.2259  0.1708
35541W        W41991  16.945   0.121   7.806 -0.1804  0.2110 -0.3276
35542W        W41992   4.991   5.153  32.494  0.1062 -0.1564 -0.0962
35543W        W41993  12.080   2.358  21.566  0.0441  0.1359 -0.1711
35544W        W41994  13.037   6.246  26.482  0.2039  0.2330 -0.0776
35545W        W41995  18.647   1.857  21.849  0.1940  0.2822  0.0121
35546W        W41996  14.590   3.387  31.826 -0.1433 -0.3815  0.0385
35547W        W41997  11.526   6.183   4.132  0.0091 -0.1705  0.0059
35548W        W41998  17.131   0.311  25.140  0.0029  0.0104  0.0231
35549W        W41999   6.681   3.969   9.654 -0.2317 -0.4289 -0.0775
35550W        W42000  23.708   6.473  15.338  0.0687 -0.1009  0.2985
35551W        W42001  21.039   2.506   6.881 -0.1472  0.3973 -0.0076
35552W        W42002  15.184   4.208  10.002 -0.0047  0.0951  0.2032
35553W        W42003   6.696   4.415   9.968 -0.1604  0.4486  0.1835
35554W        W42004  15.702   1.568   7.505 -0.0092  0.1025  0.0440
35555W        W42005   8.612   1.998   8.396 -0.0320 -0.2447  0.1125
35556W        W42006  22.013   0.176   0.169 -0.2029 -0.1569  0.0612
35557W        W42007   2.183   2.109   9.780  0.0454 -0.0216 -0.0950
35558W        W42008   9.098   0.875  13.505 -0.0822  0.2289  0.1052
35559W        W42009   1.713   5.408  15.550 -0.0384 -0.3181 -0.0601
35560W        W42010  18.753   6.710  17.177 -0.0163 -0.0756  0.2264
35561W        W42011  13.752   1.627   1.582 -0.1758  0.0184  0.2381
35562W        W42012  12.769   7.346  31.253 -0.1953 -0.1903  0.2580
35563W        W42013  15.620   7.776  29.507  0.0716 -0.0330  0.0284
35564W        W42014  17.777   6.210   2.887  0.1973 -0.2068 -0.0252
35565W        W42015  12.245   2.290  22.459 -0.1594 -0.2914 -0.0594
35566W        W42016   7.643   6.740  24.863 -0.1733 -0.2657 -0.0291
35567W        W42017   9.393   2.251  25.538  0.1535 -0.0128 -0.2887
35568W        W42018   0.457   4.948  30.628  0.0055 -0.2342  0.2438
35569W        W42019  23.754   1.340  25.254 -0.0700  0.0406 -0.2402
35570W        W42020   6.263   6.473  32.934 -0.1604 -0.0962 -0.0691
35571W        W42021  16.138   4.368  28.823 -0.0369 -0.0980  0.3240
35572W        W42022  17.894   4.991  26.128 -0.0150  0.0112 -0.2819
35573W        W42023  15.900   6.000  32.981 -0.0950 -0.0184 -0.1610
35574W        W42024   1.042   2.119   0.682  0.2289 -0.1441 -0.0357
35575W        W42025  19.671   5.555  22.839 -0.0811 -0.0735 -0.0222
35576W        W42026   2.734   6.859  11.614 -0.2045 -0.0474 -0.4118
35577W        W42027   2.260   6.170  28.539  0.1000  0.1616  0.2107
35578W        W42028  22.055   6.730   8.758  0.1069 -0.2543 -0.0387
35579W        W42029  13.036   2.983  31.964 -0.2512  0.0848 -0.0832
35580W        W42030  23.450   7.481  32.263 -0.3314 -0.2344  0.1139
35581W        W42031  13.593   1.620  25.733 -0.1394 -0.2976 -0.0513
35582W        W42032   7.705   6.486  30.483 -0.1655 -0.1936  0.1654
35583W        W42033  23.384   5.613  22.204  0.3049 -0.0417 -0.0907
35584W        W42034  21.649   3.118  27.056  0.3020 -0.2394 -0.1332
35585W        W42035   4.960   7.508   4.436  0.2170  0.3374 -0.0320
35586W        W42036  24.545   3.735  27.671  0.0546  0.2107 -0.3043
35587W        W42037   8.498   2.159   5.591 -0.0540 -0.1611 -0.0712
35588W        W42038   5.040   7.610  23.906 -0.0745 -0.2483  0.0566
35589W        W42039   1.173   1.585  11.775 -0.0455  0.0041 -0.1202
35590W        W42040  19.162   0.366  24.083 -0.3048 -0.0360 -0.2383
35591W        W42041  22.409   5.417   6.343  0.3225  0.0468  0.1310
35592W        W42042  23.307   4.415   4.659 -0.0167  0.1275 -0.1291
35593W        W42043  13.966   3.730  32.000  0.0435  0.0311 -0.1568
35594W        W42044   6.550   6.775  10.359  0.1189  0.2606 -0.1935
35595W        W42045   2.590   5.971  17.065 -0.1385 -0.0302 -0.0065
35596W        W42046  23.793   6.206   9.999  0.0800  0.0545 -0.0413
35597W        W42047   8.432   6.007  28.807 -0.0109 -0.1364 -0.1711
35598W        W42048   1.261   1.043  27.304 -0.0493  0.1530  0.1858
35599W        W42049   2.447   5.991  32.486 -0.0274  0.1127  0.0963
35600W        W42050  16.815   0.144  28.841 -0.1948  0.2821  0.0402
35601W        W42051   4.531   7.725  23.827  0.0659  0.0081  0.0651
35602W        W42052  14.941   4.876  15.750 -0.1688  0.3287 -0.0046
35603W        W42053   7.922   0.825  15.281 -0.0731 -0.2481 -0.0370
35604W        W42054  21.039   4.106  19.282 -0.0889  0.0367  0.0370
35605W        W42055  15.233   3.413   6.716  0.1861 -0.1609  0.0348
35606W        W42056   6.469   7.758  27.239 -0.2647 -0.0238 -0.0890
35607W        W42057  18.423   5.278  10.177  0.1731  0.1825  0.0811
35608W        W42058   2.039   6.486   2.550 -0.2201  0.0967 -0.0622
35609W        W42059   8.070   4.679  11.324 -0.1420 -0.1878  0.4374
35610W        W42060  11.626   5.081   7.724 -0.2860  0.0466 -0.0636
35611W        W42061  14.558   6.352  33.008 -0.2867 -0.0042  0.3559
35612W        W42062   2.717   7.237  22.694  0.0889 -0.0174  0.0921
35613W        W42063   0.157   6.799   9.359  0.0541 -0.3405  0.0491
35614W        W42064  16.452   7.329  30.254  0.2763 -0.1769  0.2099
35615W        W42065   2.077   6.390   9.539  0.1495  0.0947  0.1204
35616W        W42066   0.523   6.365   2.899 -0.0592 -0.2346  0.0161
35617W        W42067   9.947   6.306  12.657 -0.1595 -0.0561 -0.2552
35618W        W42068   2.820   1.345  32.536  0.1408  0.3120 -0.0739
35619W        W42069  11.765   3.564  24.256 -0.3416  0.1335 -0.0089
35620W        W42070   3.215   4.147   6.367  0.0601  0.2284  0.0798
35621W        W42071  12.320   4.804  18.811 -0.1374 -0.1051 -0.1208
35622W        W42072  15.002   5.309   2.277 -0.0867 -0.0580 -0.2043
35623W        W42073   0.135   1.120  27.939 -0.0413  0.2122 -0.2141
35624W        W42074  17.132   3.802  24.042  0.0744  0.0508  0.0672
35625W        W42075   1.851   7.590  29.036 -0.0457 -0.0531 -0.5711
35626W        W42076  13.591   0.716   0.621 -0.1227  0.1201 -0.0810
35627W        W42077  11.236   2.639  18.317  0.1808  0.0216 -0.0106
35628W        W42078   4.148   1.041   1.721 -0.1815 -0.0567 -0.0210
35629W        W42079  20.992   0.172   3.076  0.1321  0.1814  0.0253
35630W        W42080  20.780   0.350   8.974  0.0144  0.1006 -0.1653
35631W        W42081   9.881   4.622  23.096 -0.3346  0.1254  0.0348
35632W        W42082  14.939   0.940  21.829 -0.0134 -0.1157  0.1265
35633W        W42083  19.401   0.378   4.766  0.0440  0.1738  0.1908
35634W        W42084   0.197   1.405   3.781  0.2577 -0.1856 -0.0308
35635W        W42085   3.180   5.833  26.629  0.1863 -0.0787 -0.2033
35636W        W42086   4.903   1.902  25.211 -0.0583 -0.0716  0.1708
35637W        W42087   0.688   6.143   1.193  0.0378  0.0489 -0.1392
35638W        W42088   4.791   5.499   2.961  0.0341  0.2766  0.0881
35639W        W42089  11.188   3.893  21.202 -0.1465 -0.2233 -0.1310
35640W        W42090  20.267   4.771   4.342  0.2500 -0.0771  0.3684
35641W        W42091   4.748   0.321  15.079  0.0235  0.0056 -0.1838
35642W        W42092  14.441   4.994  26.580 -0.0239  0.1274 -0.1501
35643W        W42093  17.489   1.390  20.527 -0.1598  0.0190 -0.1296
35644W        W42094  21.196   4.320  25.053 -0.2091  0.1016  0.0119
35645W        W42095  12.835   4.778  10.186 -0.0601  0.2166  0.1984
35646W        W42096  23.803   6.371  23.807 -0.0570  0.0633 -0.0231
35647W        W42097  16.615   7.513  19.366 -0.2610 -0.0493  0.2292
35648W        W42098   9.079   1.350  14.740  0.0535  0.1318  0.1433
35649W        W42099  23.228   7.611  26.495 -0.2014 -0.1768 -0.0498
35650W        W42100   9.818   7.069  26.223  0.2417  0.2183 -0.2970
35651W        W42101   3.201   1.129   4.341  0.4130 -0.2151  0.1664
35652W        W42102   9.335   7.041  23.606  0.0926  0.0844 -0.1192
35653W        W42103  24.841   5.130  16.106 -0.1736 -0.0168  0.3621
35654W        W42104  18.293   2.996  32.317 -0.0034 -0.1501  0.3283
35655W        W42105  16.730   7.197  15.804 -0.1114 -0.0301  0.0626
35656W        W42106   4.806   2.737  16.374  0.3720 -0.0361  0.1367
35657W        W42107  13.846   1.516  29.054  0.1135  0.0294  0.2145
35658W        W42108  18.414   5.765  11.143 -0.2328 -0.0491  0.0222
35659W        W42109  14.809   2.406   4.333 -0.1856  0.0957 -0.0249
35660W        W42110   0.655   1.029  10.396 -0.1643 -0.1519  0.0335
35661W        W42111   4.587   1.605  24.993  0.1606 -0.0023 -0.0223
35662W        W42112  17.942   1.252  20.244 -0.0933 -0.2918  0.0305
35663W        W42113  24.352   4.107  13.287  0.0949  0.0860  0.0651
35664W        W42114  10.400   2.871  31.081  0.0204 -0.0032  0.0035
35665W        W42115  13.517   7.673  22.090  0.2021 -0.1010  0.0502
35666W        W42116   2.771   5.785  27.998 -0.0363 -0.0693 -0.0478
35667W        W42117  23.249   2.617  31.657  0.2009 -0.2933  0.1315
35668W        W42118   1.018   6.180  26.223  0.0700  0.1855  0.0148
35669W        W42119   6.088   5.861  17.001 -0.2117  0.1803 -0.0083
35670W        W42120  10.930   3.509   7.934  0.2070  0.1930  0.0698
35671W        W42121  22.850   7.615  13.069  0.2143  0.0293  0.0353
35672W        W42122  23.063   2.071   3.041  0.5226 -0.0825  0.1465
35673W        W42123   6.702   7.789   1.984  0.4613  0.2917 -0.1230
35674W        W42124  19.413   7.770   4.393 -0.2883 -0.0203  0.0453
35675W        W42125  21.079   2.520  26.492  0.1252 -0.1006  0.0923
35676W        W42126   4.378   4.727  16.966 -0.2611 -0.3445  0.0516
35677W        W42127  13.744   4.888  18.794 -0.1540 -0.2593 -0.2632
35678W        W42128  21.404   0.136   8.366 -0.0543 -0.0342  0.2297
35679W        W42129   7.649   3.823  28.278  0.1163  0.0864  0.2826
35680W        W42130   6.370   1.437  12.701 -0.1984  0.0906 -0.3394
35681W        W42131  14.373   0.300   7.322  0.1707  0.1388  0.1529
35682W        W42132  12.216   5.306  18.803 -0.0195  0.1239 -0.1383
35683W        W42133   6.937   0.911  27.365 -0.1916  0.0164 -0.0502
35684W        W42134  13.465   0.552  15.265 -0.2404 -0.0810 -0.1061
35685W        W42135  16.980   4.655   1.017 -0.0387  0.1966 -0.3067
35686W        W42136  24.717   1.743  26.158  0.5561 -0.0540 -0.0913
35687W        W42137   0.445   6.016  11.376  0.1837 -0.0474  0.2050
35688W        W42138  10.407   7.354   5.882 -0.2058 -0.1462  0.2685
35689W        W42139  19.113   0.023  27.308  0.1098  0.1265  0.2328
35690W        W42140  16.444   6.422   3.630 -0.1102  0.1406  0.1107
35691W        W42141   2.403   4.671   6.462  0.0554  0.0427  0.2517
35692W        W42142  23.391   0.714  25.935 -0.0011 -0.0252  0.0866
35693W        W42143  21.073   0.904   6.585 -0.4484  0.1523  0.1221
35694W        W42144  17.106   0.589  20.237  0.0708 -0.1410 -0.3934
35695W        W42145  17.060   7.698  30.393 -0.0118  0.0506  0.0533
35696W        W42146  22.600   2.563  21.872 -0.3576 -0.0862 -0.1712
35697W        W42147  10.670   1.753  18.383  0.1335 -0.2729  0.0158
35698W        W42148   2.109   0.378   6.905 -0.1883  0.1389  0.0222
35699W        W42149   7.995   3.460  28.471 -0.0161  0.1381 -0.1362
35700W        W42150  16.849   4.741  30.326  0.2981  0.0942 -0.1144
35701W        W42151   4.213   4.572   2.060 -0.3045  0.1424  0.3706
35702W        W42152   1.569   2.567  31.284 -0.0858  0.3546 -0.0459
35703W        W42153  24.150   0.686  28.487 -0.1274 -0.0963 -0.2462
35704W        W42154   9.513   0.108   7.412 -0.4059 -0.0944 -0.0628
35705W        W42155  19.794   6.808  17.934 -0.2345 -0.2595 -0.0312
35706W        W42156  17.649   3.415   3.563 -0.2301 -0.0944 -0.0355
35707W        W42157  17.045   6.291   1.336 -0.0256 -0.2766 -0.4144
35708W        W42158  20.144   5.846  31.845  0.0478 -0.0805 -0.0353
35709W        W42159   3.351   6.166   7.946 -0.2223  0.1317 -0.1710
35710W        W42160   4.106   6.777  12.323 -0.2006 -0.0407  0.0310
35711W        W42161   4.375   6.295  30.363 -0.1328  0.3407  0.1034
35712W        W42162   1.711   2.797  16.418  0.0250 -0.2398  0.2088
35713W        W42163  21.465   0.491  30.147  0.2624 -0.3931  0.1922
35714W        W42164  15.916   3.440   1.531 -0.2543 -0.0620 -0.1855
35715W        W42165  13.850   2.102   2.629  0.0784  0.0070 -0.1694
35716W        W42166  16.046   2.023   7.233  0.1001  0.1006 -0.1306
35717W        W42167  22.914   5.356   7.168 -0.0672  0.0260  0.3876
35718W        W42168  20.725   4.423  22.588 -0.0053 -0.1198 -0.2292
35719W        W42169  17.053   3.380  16.087 -0.2905 -0.1825  0.0635
35720W        W42170   9.340   1.692  25.882  0.3777 -0.0666 -0.1550
35721W        W42171  14.946   1.872  29.225  0.1409 -0.0431  0.4632
35722W        W42172  20.380   2.057  30.848  0.2095  0.0416  0.2071
35723W        W42173  22.534   5.463  22.516 -0.1650  0.1709 -0.2752
35724W        W42174   5.101   0.004   2.367 -0.1087  0.0086 -0.1380
35725W        W42175  13.232   5.202  27.475 -0.1368 -0.0767  0.2647
35726W        W42176   4.887   0.615   1.826  0.1490  0.0907 -0.0776
35727W        W42177   0.825   0.350  32.482  0.2974  0.1042  0.0669
35728W        W42178  22.252   4.858  30.268  0.1606  0.0487 -0.0241
35729W        W42179   2.390   2.549  27.161 -0.1526  0.0497  0.1157
35730W        W42180  24.505   0.387   5.368 -0.0593  0.1996  0.0327
35731W        W42181  11.581   2.632   2.981  0.0590 -0.1179 -0.1453
35732W        W42182   9.349   6.932  28.038 -0.0244 -0.1834 -0.3328
35733W        W42183  23.698   0.417   7.726  0.0667 -0.0371 -0.1026
35734W        W42184   5.209   3.481  16.425  0.0481 -0.2533 -0.1485
35735W        W42185   9.463   3.213  23.798 -0.1591  0.3505  0.0295
35736W        W42186  23.225   7.537   0.158  0.0734  0.2961 -0.0484
35737W        W42187  24.769   5.692  29.537  0.2216  0.0281  0.2531
35738W        W42188   1.692   3.874   5.138  0.0460  0.1311  0.1753
35739W        W42189   4.561   7.172  11.584  0.0178  0.2314 -0.0018
35740W        W42190  23.731   4.620  27.070  0.0629  0.3063  0.0788
35741W        W42191  19.977   4.925   1.654  0.0637  0.3985  0.2268
35742W        W42192   3.527   5.290  13.602  0.1354  0.1970 -0.0829
35743W        W42193   9.207   5.768   4.526  0.1796 -0.0189  0.0854
35744W        W42194   3.831   7.380  10.510  0.1117  0.2824  0.0795
35745W        W42195   1.441   5.331  14.568 -0.2497 -0.2169  0.2139
35746W        W42196   2.294   6.646  14.873  0.0010 -0.0039  0.0894
35747W        W42197   0.305   2.638  32.486  0.0363  0.0186  0.0052
35748W        W42198  23.867   6.463  28.997  0.5824  0.1923 -0.1367
35749W        W42199  18.090   2.246   0.815 -0.2090 -0.3409 -0.0609
35750W        W42200  12.822   4.544  18.870 -0.1352  0.1851 -0.2377
35751W        W42201   8.271   4.476  32.860 -0.0366 -0.0054  0.0811
35752W        W42202  23.632   3.923  27.092  0.0066  0.2960  0.0120
35753W        W42203  21.087   5.566  27.080  0.2574 -0.2194 -0.1493
35754W        W42204  13.735   0.799  21.927 -0.0029  0.1136 -0.0278
35755W        W42205   1.645   7.215  11.827 -0.0188  0.1778  0.0499
35756W        W42206  14.458   7.366  22.275  0.1827 -0.3950 -0.1420
35757W        W42207  17.344   2.858   8.041  0.4244  0.2511  0.1725
35758W        W42208  18.193   7.186  29.594  0.1110  0.0194 -0.0229
35759W        W42209  14.704   3.270   1.075  0.1025  0.0201  0.0937
35760W        W42210  20.993   0.776   7.062 -0.0049 -0.3371  0.0581
35761W        W42211  24.154   7.530   8.971  0.2426  0.0540 -0.2419
35762W        W42212   5.364   6.106  17.410 -0.1956  0.1070 -0.0473
35763W        W42213  24.345   7.748  22.324  0.2054  0.1904  0.1057
35764W        W42214   9.927   3.009  21.442 -0.1756 -0.1563 -0.0933
35765W        W42215  19.410   0.255   3.030 -0.0661  0.1814  0.0086
35766W        W42216   3.545   4.416  16.808  0.0998 -0.1393  0.1202
35767W        W42217   2.113   3.641  21.891  0.3773  0.1790 -0.1420
35768W        W42218  15.351   5.592   2.995 -0.1485 -0.2766 -0.0943
35769W        W42219   2.061   2.155  26.491 -0.1153 -0.1060  0.0802
35770W        W42220   4.479   4.266  10.687  0.2799 -0.4169 -0.0933
35771W        W42221  24.829   2.432   1.557  0.0452  0.1864  0.0643
35772W        W42222  23.863   1.917  23.111 -0.0643 -0.0755 -0.0427
35773W        W42223  13.141   1.606   0.934 -0.1136  0.0301 -0.1901
35774W        W42224  14.606   7.314   3.263  0.3191  0.2492  0.0019
35775W        W42225   8.408   6.842  15.197 -0.0312  0.0522  0.2668
35776W        W42226  24.138   3.766  15.196 -0.4165 -0.4192 -0.0585
35777W        W42227   9.682   5.307  26.587  0.0460  0.0189 -0.0492
35778W        W42228  11.540   7.754   4.182 -0.1726  0.2294  0.1229
35779W        W42229   7.101   0.085  26.220 -0.0405  0.0114  0.3759
35780W        W42230  11.135   1.291   9.127 -0.0261  0.1355  0.0455
35781W        W42231  10.536   3.839   9.965  0.0755 -0.1544  0.1522
35782W        W42232  24.164   4.379  11.892  0.2585 -0.3252 -0.3018
35783W        W42233   4.375   2.260   9.870 -0.3128 -0.0552  0.3568
35784W        W42234  18.433   4.869  28.604  0.0896  0.0749 -0.1967
35785W        W42235   8.371   0.193   2.281  0.1051  0.2474  0.0641
35786W        W42236  14.588   2.583  26.808  0.0682  0.0834 -0.1275
35787W        W42237  24.205   4.708  24.055 -0.1466 -0.0358  0.0818
35788W        W42238  11.707   4.353  22.739 -0.0111  0.1123 -0.3376
35789W        W42239  19.959   1.708   2.887  0.0878  0.0244  0.1556
35790W        W42240  16.471   4.862  14.672 -0.1083 -0.0734 -0.1154
35791W        W42241   7.721   6.673   1.263  0.1023 -0.1708  0.0598
35792W        W42242  15.513   3.607  27.380  0.2636 -0.0759  0.0428
35793W        W42243   3.821   6.879   7.761  0.0048  0.0996 -0.2868
35794W        W42244   3.338   5.948   9.109 -0.0572  0.0737 -0.3723
35795W        W42245  12.358   0.627  21.557 -0.2835  0.0337 -0.2094
35796W        W42246   1.199   2.900  24.442 -0.1757 -0.1978 -0.3148
35797W        W42247   8.328   4.150  25.756  0.3076 -0.1745  0.0840
35798W        W42248  13.874   3.977  30.280 -0.0230  0.1500 -0.2555
35799W        W42249  17.488   3.218   1.930  0.5153  0.0484 -0.2249
35800W        W42250  17.754   4.841  22.956 -0.1468 -0.1779 -0.1773
35801W        W42251   5.712   5.384  32.386  0.0189  0.0025  0.0936
35802W        W42252  17.801   2.894   2.675  0.1758 -0.0056  0.2149
35803W        W42253   8.400   4.768  24.371 -0.1067  0.3924 -0.0423
35804W        W42254   8.719   4.100  30.085  0.1634 -0.0472  0.1302
35805W        W42255   6.547   1.006  23.842  0.0805 -0.0374 -0.0714
35806W        W42256   9.915   3.268   7.859  0.2034  0.0614  0.0348
35807W        W42257   5.060   6.129  22.101 -0.0615 -0.2829  0.1329
35808W        W42258   4.048   1.057   8.886 -0.1814 -0.0025 -0.1909
35809W        W42259  20.193   2.870  29.879 -0.0438 -0.1053  0.2255
35810W        W42260   6.166   1.945  22.804 -0.0400  0.0580  0.0848
35811W        W42261   9.345   6.157   7.772 -0.2361 -0.0836  0.1538
35812W        W42262  11.015   0.694   9.968  0.0933  0.0263  0.0886
35813W        W42263  18.173   7.490   5.344  0.1524 -0.0470  0.1589
35814W        W42264  17.709   5.094   9.324  0.1201 -0.1520 -0.2252
35815W        W42265   3.891   1.704   6.853  0.0591 -0.0045 -0.0234
35816W        W42266  17.329   0.611   9.873  0.0120  0.4565 -0.3121
35817W        W42267  20.273   0.292  25.903 -0.2250 -0.0709  0.0112
35818W        W42268  16.368   3.995   4.502  0.3387 -0.1463  0.0169
35819W        W42269  19.258   4.167   8.349  0.0672 -0.0021 -0.1310
35820W        W42270  19.219   1.164  10.549  0.1532  0.0060 -0.0015
35821W        W42271  14.068   7.270  16.473  0.2849  0.1288 -0.0521
35822W        W42272  22.140   5.370  13.319  0.1924 -0.3047  0.1333
35823W        W42273  18.783   0.808  26.122  0.2065 -0.0169  0.1735
35824W        W42274  10.384   4.666   7.389  0.3120 -0.0233 -0.4114
35825W        W42275   2.033   4.722  17.599  0.0850  0.1761 -0.2285
35826W        W42276  22.950   3.853   7.397 -0.1948  0.2345 -0.1927
35827W        W42277  14.133   0.608  17.733 -0.0253  0.0737  0.1518
35828W        W42278  24.331   6.013  26.636  0.1895 -0.1591 -0.3432
35829W        W42279  20.808   4.717  20.331  0.0533  0.1299 -0.0558
35830W        W42280  17.641   6.933  23.801  0.0747  0.0379  0.2846
35831W        W42281   9.399   1.355   9.149 -0.2941  0.2443  0.0879
35832W        W42282  10.940   2.907  28.483  0.1492 -0.2238  0.2632
35833W        W42283   8.369   7.665  32.091 -0.3650 -0.1944 -0.0447
35834W        W42284   6.924   3.971  24.937 -0.1030  0.2516  0.1348
35835W        W42285  16.600   4.127  29.112  0.1114  0.0586 -0.2320
35836W        W42286   7.402   5.860   2.497 -0.0779  0.1081 -0.0566
35837W        W42287  17.901   7.314  18.086 -0.4694  0.4289 -0.1485
35838W        W42288  21.086   3.498  10.050 -0.3849  0.2838  0.0339
35839W        W42289  12.260   1.597  10.899  0.1436 -0.0315  0.0601
35840W        W42290  22.509   7.195   0.174  0.0938  0.1356 -0.2217
35841W        W42291  15.523   6.515  21.285 -0.1931 -0.1721  0.4879
35842W        W42292   8.961   4.772  29.984 -0.1651 -0.1196 -0.0845
35843W        W42293  23.376   6.078  28.870  0.0384  0.0393  0.1296
35844W        W42294  18.099   6.962  18.539  0.2996  0.2713  0.1424
35845W        W42295  16.978   0.450  21.716  0.1172  0.0643  0.0375
35846W        W42296  13.042   3.535  20.410  0.0437  0.0175  0.1570
35847W        W42297  14.605   2.910  22.168 -0.0127  0.1042  0.0366
35848W        W42298  19.049   3.826  21.354  0.0655 -0.2584 -0.0811
35849W        W42299  17.661   3.539  18.809  0.1707  0.2335  0.0730
35850W        W42300   9.165   1.991   1.406  0.1089 -0.1455  0.1477
35851W        W42301  16.116   2.418  27.660  0.0546 -0.1472 -0.1294
35852W        W42302  19.166   6.682  23.293 -0.1457  0.0589 -0.1881
35853W        W42303  13.383   7.505   8.823 -0.0277  0.1504 -0.1905
35854W        W42304  16.698   7.321   5.036 -0.1600  0.0574  0.0681
35855W        W42305  10.022   7.103   3.737 -0.0380  0.0753 -0.0312
35856W        W42306   6.411   1.523  23.656 -0.1056 -0.0592 -0.1566
35857W        W42307   1.540   1.316   8.435 -0.3377  0.0480  0.1920
35858W        W42308   0.787   4.380  23.259 -0.6297  0.1654 -0.0255
35859W        W42309  13.477   5.354   3.604  0.2651  0.0467 -0.1195
35860W        W42310  22.546   2.363  21.098  0.1904  0.2544  0.1364
35861W        W42311  12.375   6.432  18.219 -0.1705  0.2330  0.2213
35862W        W42312  15.076   1.299  25.958  0.2442 -0.0466 -0.2372
35863W        W42313  13.883   0.059   5.294 -0.2032  0.1978  0.1119
35864W        W42314  16.131   1.514   2.120 -0.2829 -0.0230 -0.0651
35865W        W42315   8.878   1.808  29.606  0.0598  0.0987 -0.1021
35866W        W42316  16.979   2.274   0.198  0.0274  0.1758 -0.0057
35867W        W42317  13.543   3.106   0.610 -0.0023 -0.1281  0.3012
35868W        W42318   6.061   7.181  27.788  0.0765  0.1936 -0.1752
35869W        W42319   2.687   7.434   0.136 -0.1147  0.2136 -0.3012
35870W        W42320   0.305   7.287  24.739 -0.0354 -0.3634  0.1819
35871W        W42321   1.640   4.921   2.039 -0.1033  0.0753 -0.3517
35872W        W42322   3.415   0.191  17.654 -0.1855  0.0311 -0.1718
35873W        W42323   4.229   0.102  26.842  0.2002 -0.3625  0.0864
35874W        W42324   4.274   4.712   3.029 -0.1865 -0.0367  0.0093
35875W        W42325   1.954   0.296   7.405  0.0946  0.0785  0.2720
35876W        W42326  22.982   4.400  28.176 -0.0916 -0.0425 -0.2733
35877W        W42327   1.493   4.371  31.039 -0.1658 -0.1531 -0.2113
35878W        W42328  21.387   0.990   1.674 -0.0848  0.0632  0.4116
35879W        W42329  12.388   3.922  31.351 -0.3224 -0.2052 -0.1927
35880W        W42330  20.721   0.452  26.143  0.1358 -0.0734 -0.0359
35881W        W42331  13.754   0.608  32.504  0.4118 -0.1904 -0.2426
35882W        W42332  19.523   5.688  27.713  0.1026  0.2075  0.1083
35883W        W42333   0.437   2.988  31.896 -0.0673  0.0147 -0.0043
35884W        W42334   8.143   7.552  10.719  0.0105 -0.1182  0.1007
35885W        W42335   6.963   4.378   1.239  0.3355  0.1512  0.1950
35886W        W42336   3.798   2.014  12.997 -0.2940 -0.2363  0.1377
35887W        W42337  16.404   5.333  29.461  0.1685  0.0895 -0.1462
35888W        W42338  21.421   3.147  18.085  0.0697 -0.3441 -0.0165
35889W        W42339   6.447   0.902  12.695 -0.0943  0.1527 -0.1555
35890W        W42340   6.603   7.701   0.008 -0.0590  0.1405  0.1659
35891W        W42341  12.850   4.506  21.123  0.0908 -0.3623 -0.1821
35892W        W42342  16.927   4.306  30.504 -0.0798  0.0702 -0.1166
35893W        W42343  11.327   1.569  19.096  0.0697  0.0814  0.0512
35894W        W42344  18.254   6.563   1.239  0.1595  0.0739  0.0792
35895W        W42345  16.913   6.719   8.223 -0.0888  0.1110 -0.1222
35896W        W42346   4.543   7.503   8.747  0.1278  0.0798  0.0874
35897W        W42347  22.774   2.829  14.361  0.0721 -0.1409 -0.1681
35898W        W42348  10.383   4.914  11.441  0.0543  0.0608  0.0346
35899W        W42349   6.585   4.611  16.213 -0.4252 -0.1324  0.2939
35900W        W42350  17.503   4.958  19.353 -0.1976 -0.1795 -0.0590
35901W        W42351  13.558   3.584   3.342 -0.0729 -0.1734 -0.3251
35902W        W42352   7.305   6.991  31.202  0.2687 -0.0925 -0.0131
35903W        W42353  16.923   5.577  26.817 -0.1381  0.1777 -0.1759
35904W        W42354   0.775   7.599  25.414  0.1380 -0.1676  0.0911
35905W        W42355  18.071   1.969   5.153 -0.1670 -0.1608 -0.0464
35906W        W42356  20.024   1.322  17.851  0.0144  0.1300 -0.0312
35907ION     NA42357  21.826   0.609  26.489 -0.0384  0.2675  0.0031
35908ION     NA42358  10.640   2.953  20.145 -0.0514 -0.7832  0.0732
35909ION     NA42359  18.787   4.834   3.843  0.4054  0.1422  0.3641
35910ION     NA42360  18.559   0.934  15.925  0.3440 -0.1365  0.0126
35911ION     NA42361   0.733   3.203  30.491 -0.2647 -0.0481  0.3247
35912ION     NA42362  13.368   5.485  31.720 -0.0322  0.0001 -0.1757
35913ION     NA42363   6.847   7.403  25.333  0.1822 -0.1738 -0.2957
35914ION     NA42364  24.839   5.362  30.238 -0.1234  0.4783 -0.3649
35915ION     NA42365  18.901   6.379  16.378  0.0037 -0.0395  0.2840
35916ION     NA42366  13.961   4.580   2.090  0.2202  0.0287 -0.0133
35917ION     NA42367  15.490   3.805   6.719  0.4535 -0.2998  0.1663
35918ION     NA42368   0.146   6.648  25.566 -0.3097  0.1572 -0.1249
35919ION     NA42369  14.031   7.729  20.634 -0.1533  0.3939 -0.0226
35920ION     NA42370  20.593   4.914  26.461  0.4613  0.0540  0.0275
35921ION     NA42371  19.090   4.421  10.439 -0.3704  0.2422 -0.0833
35922ION     NA42372  10.607   4.695  24.688  0.4556 -0.1643 -0.2571
35923ION     NA42373   2.890   5.946   8.829  0.5316  0.0793  0.5707
35924ION     NA42374   0.807   0.885  25.070  0.0412  0.1672  0.1944
35925ION     NA42375  20.560   3.203  22.530 -0.0910 -0.2400  0.0756
35926ION     NA42376   0.577   5.367  31.204  0.3810 -0.0117 -0.0605
35927ION     NA42377   3.546   4.917   8.552 -0.1877  0.2614  0.2550
35928ION     NA42378  19.460   1.129  28.929  0.2529  0.0496 -0.1879
35929ION     NA42379  16.287   7.013   4.482  0.2464  0.0611 -0.3491
35930ION     NA42380   6.388   3.985   5.253 -0.1809 -0.2067  0.1734
35931ION     NA42381   3.014   7.055  31.243 -0.3114  0.0479 -0.3461
35932ION     NA42382  20.247   4.100  29.485  0.2741  0.4108 -0.7522
35933ION     NA42383  21.999   2.656   9.659 -0.0084  0.2126  0.2785
35934ION     NA42384   6.094   3.447  31.648  0.1028 -0.1520  0.3130
35935ION     NA42385   7.131   5.156   3.362 -0.1272  0.0633  0.2205
35936ION     NA42386  15.350   5.006  18.511  0.1730  0.0057  0.5628
35937ION     NA42387   1.873   2.550   1.578  0.1656 -0.1005 -0.0258
35938ION     NA42388  17.121   3.484  23.063 -0.1492  0.0100  0.1123
35939ION     NA42389   2.979   6.056   7.653  0.1530 -0.3025  0.1073
35940ION     NA42390   7.138   4.538  28.483 -0.2309 -0.0109 -0.0361
35941ION     NA42391   8.762   1.513  23.356  0.0750 -0.1598 -0.0757
35942ION     NA42392   9.525   3.681  25.632 -0.3800 -0.1146 -0.3718
35943ION     NA42393  15.972   6.848  23.190 -0.1595 -0.0225  0.3015
35944ION     NA42394  18.211   0.731   0.908 -0.3501 -0.0477  0.0408
35945ION     NA42395  13.027   5.777   6.862  0.4961 -0.0266  0.2175
35946ION     NA42396  23.625   3.762  10.343  0.0100  0.0482  0.3759
35947ION     NA42397  17.887   2.084  32.100  0.1395 -0.4783  0.4340
35948ION     NA42398  15.999   0.239  23.999  0.1193 -0.1807  0.7594
35949ION     NA42399   5.412   5.133  32.594 -0.0418 -0.0974 -0.2566
35950ION     NA42400  12.615   7.281   8.429  0.1369 -0.2034  0.0635
35951ION     NA42401   2.517   1.852   4.409 -0.1351 -0.1695  0.4611
35952ION     NA42402   9.686   5.688   0.659 -0.1590  0.0507  0.1708
35953ION     NA42403   4.389   6.906   3.402  0.0623 -0.0564  0.3457
35954ION     NA42404  22.421   7.593  24.799  0.4842  0.1229  0.0629
35955ION     NA42405   0.279   5.849   0.549 -0.3049 -0.0063 -0.3093
35956ION     NA42406  20.151   2.453  23.268 -0.1526 -0.5138  0.2334
35957ION     NA42407   9.794   0.012  25.784  0.0626 -0.2088 -0.4530
35958ION     NA42408  15.861   1.613   0.905 -0.0359 -0.0541  0.1356
35959ION     NA42409  13.642   4.099  19.065 -0.1109 -0.1428 -0.0534
35960ION     NA42410   5.586   7.597  16.905 -0.3227 -0.1931  0.2919
35961ION     NA42411   4.481   7.053  13.246  0.1480  0.2351  0.2668
35962ION     NA42412  19.576   7.639  25.403 -0.0250  0.6040  0.1844
35963ION     NA42413   8.756   4.719  10.431 -0.0877 -0.2046  0.2443
35964ION     NA42414  21.884   0.410  30.213 -0.0010  0.0225 -0.2626
35965ION     NA42415   5.365   2.268   1.502  0.0165 -0.1067 -0.0776
35966ION     NA42416   6.402   2.965   7.729 -0.4078  0.1692  0.4224
35967ION     NA42417  17.000   3.536  27.800  0.0012 -0.3034 -0.2717
35968ION     NA42418  18.945   3.993  23.453  0.2676  0.0106  0.1413
35969ION     NA42419  23.055   6.317   7.277  0.2173 -0.1075 -0.0900
35970ION     NA42420  16.795   1.290   8.260 -0.5049 -0.4263 -0.2628
35971ION     NA42421   1.707   4.646   1.070 -0.2250  0.0640 -0.2815
35972ION     NA42422   7.358   4.125  12.474 -0.0212 -0.0064  0.1298
35973ION     NA42423  12.137   1.434  28.808  0.0330 -0.0901 -0.3415
35974ION     NA42424   1.669   0.212  10.969 -0.2060 -0.5031  0.0030
35975ION     NA42425  22.944   5.487   4.442 -0.0969  0.0180  0.3003
35976ION     NA42426   7.260   3.947  10.386  0.0857  0.4395  0.0278
35977ION     NA42427  16.807   6.973  32.055  0.0990  0.1492  0.1453
35978ION     NA42428   8.836   5.153   6.124  0.1417 -0.5064  0.0315
35979ION     NA42429   0.659   5.145  29.013 -0.3208  0.0174 -0.0952
35980ION     NA42430   7.829   4.264   2.649  0.0124 -0.0577 -0.0819
35981ION     NA42431   0.305   0.727  22.375 -0.1998  0.1689  0.0292
35982ION     NA42432   7.132   5.681  33.002  0.4901  0.1241 -0.2176
35983ION     NA42433  17.742   5.716   1.301 -0.4116  0.1531 -0.3086
35984ION     NA42434  20.380   7.025  28.396 -0.2071 -0.1239 -0.2303
35985ION     NA42435  23.470   7.197  29.211  0.5814  0.2892  0.2440
35986ION     NA42436   6.112   4.288  10.488  0.4537  0.3449 -0.1478
35987ION     NA42437   3.898   1.736   1.287  0.5559 -0.1788  0.1679
35988ION     NA42438  11.811   2.308   6.611 -0.1733 -0.0987 -0.1862
35989ION     NA42439  10.167   0.053  12.441  0.0691 -0.0429 -0.5739
35990ION     NA42440  19.883   6.507   9.654 -0.3720  0.4563 -0.2715
35991ION     NA42441  16.621   6.221  23.022  0.5064 -0.0796 -0.3114
35992ION     NA42442  16.300   5.228  22.786 -0.1484  0.4321 -0.4426
35993ION     NA42443  13.800   3.069   7.770  0.1083 -0.0086 -0.3381
35994ION     NA42444   8.928   7.466   7.296  0.0610  0.1230  0.1674
35995ION     NA42445  17.032   0.816  31.399  0.1685  0.2823 -0.0465
35996ION     NA42446   7.691   1.576   3.229  0.1141  0.0760  0.0491
35997ION     NA42447  24.074   2.911   2.604 -0.1373 -0.0192 -0.2643
35998ION     NA42448  18.695   1.276   6.746 -0.0690  0.1770 -0.0698
35999ION     NA42449  23.642   3.747  21.654 -0.0388 -0.1623  0.2569
36000ION     NA42450  22.586   6.510   8.061 -0.4056 -0.3649  0.3419
36001ION     NA42451  24.735   7.315  27.474 -0.0658  0.2918 -0.3356
36002ION     NA42452  16.878   5.236  17.428 -0.0412 -0.0055 -0.1972
36003ION     NA42453   5.795   0.447  31.150 -0.4670 -0.3159  0.0794
36004ION     NA42454  14.749   6.046  19.887 -0.1143 -0.2025  0.1170
36005ION     NA42455  11.241   1.414  25.651  0.0488 -0.1443  0.0506
36006ION     NA42456  16.431   2.794  17.905 -0.0486  0.3180  0.0988
36007ION     NA42457  16.592   6.669  21.274 -0.1084  0.0711 -0.0747
36008ION     NA42458   8.427   0.514  14.591  0.2883 -0.2895  0.1932
36009ION     NA42459   2.142   6.653   7.029 -0.6516 -0.0234  0.2149
36010ION     NA42460  18.720   5.907  29.564 -0.1249  0.0446 -0.0574
36011ION     NA42461  16.084   7.365  24.033  0.2478  0.2596 -0.1172
36012ION     NA42462   8.481   2.499   4.559  0.1396  0.6320  0.0447
36013ION     NA42463  12.103   7.303  29.127 -0.0545  0.0613 -0.2493
36014ION     NA42464   0.384   4.118  21.516 -0.3229 -0.0387  0.0197
36015ION     NA42465  21.365   3.525   7.716 -0.1021  0.6376  0.2113
36016ION     NA42466  21.353   5.587  21.242 -0.3635 -0.0873 -0.0509
36017ION     NA42467  13.880   2.295  22.300 -0.1702 -0.3531 -0.1749
36018ION     NA42468   6.604   2.058  22.782 -0.0282  0.3044  0.0089
36019ION     NA42469  18.011   5.269  20.299 -0.1531 -0.0467  0.2989
36020ION     NA42470  23.636   3.667   2.936 -0.6013  0.3067 -0.0155
36021ION     NA42471  23.600   5.337  21.243  0.0895  0.1728 -0.0238
36022ION     NA42472   5.801   2.631  13.051 -0.1319  0.0674 -0.0435
36023ION     NA42473  17.173   4.086  18.134 -0.1912  0.2722 -0.1162
36024ION     NA42474   9.015   1.744   2.981 -0.2406 -0.0251  0.2273
36025ION     NA42475  17.284   0.228  22.482 -0.0275 -0.5797  0.0013
36026ION     NA42476  24.953   4.843  29.321 -0.0680  0.3085  0.6039
36027ION     NA42477  23.123   6.018  31.395 -0.0039 -0.2079  0.4016
36028ION     NA42478  12.563   4.095  24.380 -0.7178  0.3155  0.4230
36029ION     NA42479  10.385   6.340  20.792 -0.0749 -0.0289  0.1176
36030ION     NA42480  12.733   6.391   0.445 -0.0767  0.0077 -0.1107
36031ION     NA42481   5.635   3.441   3.091  0.0566  0.2423 -0.2503
36032ION     NA42482  15.195   1.929  31.198 -0.4910 -0.1257 -0.0360
36033ION     NA42483   9.272   0.580  22.459  0.3021  0.0458 -0.0499
36034ION     NA42484  23.843   6.110   2.803  0.2778 -0.0790  0.0851
36035ION     NA42485   4.032   3.534  25.871  0.0372  0.0621 -0.2304
36036ION     NA42486  14.041   4.672  22.093  0.0083 -0.2355  0.0189
36037ION     NA42487  21.001   4.085  20.755  0.2795 -0.2457 -0.0010
36038ION     NA42488  20.360   7.743  18.348  0.1851  0.1595  0.7228
36039ION     NA42489  10.761   6.736   2.700  0.3223  0.4100 -0.0848
36040ION     NA42490   3.294   5.461  32.482  0.1298  0.2909 -0.1553
36041ION     NA42491   9.089   5.012   7.237 -0.1737  0.0220 -0.4640
36042ION     NA42492   2.635   6.896  32.517  0.2652 -0.2546  0.7444
36043ION     NA42493  10.493   4.252   1.300  0.0906 -0.4237 -0.1081
36044ION     NA42494  19.760   2.410  29.215 -0.4244 -0.0992  0.0662
36045ION     NA42495  19.659   6.342  16.152  0.1579  0.2073  0.1305
36046ION     NA42496   0.062   7.056  11.417  0.4966  0.3638  0.0180
36047ION     NA42497   1.174   0.351  15.746  0.0183  0.5870  0.3127
36048ION     NA42498  12.689   2.605   4.350 -0.4537 -0.2919  0.3377
36049ION     NA42499  23.013   5.498   1.065  0.3096  0.1185 -0.3917
36050ION     NA42500  19.771   6.020  22.905  0.4029  0.0828 -0.5294
36051ION     NA42501  10.376   5.314   4.304 -0.1021  0.4594 -0.1171
36052ION     NA42502  23.107   2.280  10.295 -0.2828  0.2388  0.0859
36053ION     NA42503  24.751   0.589   1.659  0.3251 -0.1227  0.2238
36054ION     NA42504   7.810   0.393  10.629  0.5301 -0.1374  0.2424
36055ION     NA42505  14.727   5.524   7.496 -0.2054 -0.2927  0.2438
36056ION     NA42506   4.912   1.719  28.372  0.5299  0.4758 -0.0826
36057ION     NA42507  13.352   5.316   1.394  0.1149 -0.3134  0.1459
36058ION     NA42508   9.561   7.374  30.014 -0.0066  0.3355  0.0765
36059ION     NA42509   0.436   5.834  12.534  0.0042 -0.4345 -0.0638
36060ION     NA42510  12.772   1.478  26.194 -0.3491 -0.0513 -0.1887
36061ION     NA42511   2.661   1.108  30.183 -0.6078 -0.0129 -0.0915
36062ION     NA42512  12.735   7.554   6.394  0.3651  0.2389 -0.6719
36063ION     NA42513   3.354   1.929  30.518  0.0902 -0.2176  0.3088
36064ION     NA42514  14.129   3.939   7.424 -0.3029  0.0872 -0.0579
36065ION     NA42515  18.282   3.547  32.037  0.0333  0.3526  0.5321
36066ION     NA42516   1.892   1.789  30.028  0.0103  0.2667 -0.2165
36067ION     NA42517  22.538   1.497  31.418 -0.0526 -0.0301 -0.0385
36068ION     NA42518  10.243   6.958  27.562  0.1186  0.2354 -0.0228
36069ION     NA42519  24.357   0.944  27.496 -0.0976 -0.5192 -0.4030
36070ION     NA42520   8.795   6.171  28.886 -0.4127  0.0578  0.2277
36071ION     NA42521  24.911   7.746   6.961  0.1966  0.2498  0.1647
36072ION     NA42522  19.439   6.910  23.609 -0.1807  0.2128  0.2716
36073ION     NA42523  20.282   6.265  18.749  0.3332  0.3474 -0.3099
36074ION     NA42524   6.170   6.326   9.372  0.3198  0.1671 -0.3786
36075ION     NA42525  19.895   5.161   4.743  0.2164  0.3826 -0.3337
36076ION     NA42526  11.524   1.295   8.372 -0.0383  0.1924 -0.0671
36077ION     NA42527   6.587   0.513   4.594  0.2703  0.0935 -0.4705
36078ION     NA42528  11.947   1.620  24.465  0.7211  0.1115 -0.2012
36079ION     NA42529   9.377   7.670  21.562 -0.3438 -0.0853 -0.2947
36080ION     NA42530  17.724   4.886  24.058  0.0463 -0.3255 -0.3710
36081ION     NA42531   5.989   3.178  32.494 -0.1038  0.3699  0.4462
36082ION     NA42532  23.715   2.521  12.885  0.2605  0.0484 -0.4932
36083ION     NA42533  23.154   1.994  29.464  0.3393  0.1295 -0.1289
36084ION     NA42534   6.248   6.714  28.991  0.0945 -0.0179  0.1776
36085ION     NA42535  24.947   3.403  29.006  0.4740 -0.2893 -0.0300
36086ION     NA42536  23.694   7.373  32.584  0.0529  0.2386  0.7493
36087ION     NA42537  20.948   4.034   0.444 -0.1126  0.3334 -0.5177
36088ION     NA42538  12.617   2.264  22.122  0.1877 -0.0185  0.3958
36089ION     NA42539  17.876   0.283  25.350  0.1813  0.1864 -0.3776
36090ION     NA42540  20.471   0.747   0.002  0.0793 -0.1622  0.2072
36091ION     NA42541  20.566   1.136   1.447 -0.3703 -0.1032  0.1689
36092ION     NA42542  15.520   5.343  23.119 -0.3883  0.1868  0.3982
36093ION     NA42543   4.494   0.324  17.588  0.4003  0.1547  0.0733
36094ION     NA42544  10.156   7.030   6.671 -0.3963 -0.1257  0.1318
36095ION     NA42545   5.637   4.113  15.037  0.0441 -0.0378 -0.3936
36096ION     NA42546  18.669   1.446   4.189  0.2161 -0.1805 -0.1328
36097ION     NA42547  24.486   0.258  32.904  0.1439  0.1980 -0.1315
36098ION     NA42548   7.523   6.948  10.841  0.2596  0.2716 -0.3130
36099ION     NA42549  16.874   5.618   8.987 -0.2106 -0.1109  0.2170
36100ION     NA42550   5.574   6.617   6.904  0.0428 -0.5440  0.7551
36101ION     NA42551   6.366   4.818  15.914 -0.2266 -0.2945  0.3804
36102ION     CL42552  23.454   4.753  24.198 -0.0400  0.2654 -0.1842
36103ION     CL42553   8.785   1.889  23.776 -0.0942 -0.9032 -0.2557
36104ION     CL42554  18.160   4.157  32.075 -0.0773 -0.5670 -0.2286
36105ION     CL42555  12.927   6.193   2.092  0.3305  0.1599  0.0004
36106ION     CL42556   7.808   0.581  31.654  0.0839  0.4416  0.5264
36107ION     CL42557   0.079   3.775   3.830  0.0124  0.0789 -0.1588
36108ION     CL42558  17.401   7.403  28.770 -0.2267  0.0340 -0.2169
36109ION     CL42559  22.737   6.663   7.713 -0.3515  0.2064  0.4321
36110ION     CL42560   7.716   3.437  13.041 -0.3372 -0.0790  0.0034
36111ION     CL42561  19.815   2.910  29.714 -0.3364  0.4068 -0.2576
36112ION     CL42562   2.812   6.723  29.745 -0.3193  0.0932  0.1339
36113ION     CL42563  17.425   3.970  19.583 -0.0500  0.2702 -0.1163
36114ION     CL42564  13.524   0.694   0.186 -0.4180  0.4524  0.0089
36115ION     CL42565  11.583   5.960  23.694 -0.4626  0.0240 -0.0083
36116ION     CL42566  24.004   6.133  31.006 -0.0284  0.3004 -0.3924
36117ION     CL42567  11.438   1.658  26.359 -0.2055  0.0873 -0.2145
36118ION     CL42568  20.126   4.675  29.399 -0.1090 -0.0190  0.0620
36119ION     CL42569   8.748   1.005  11.072 -0.4151 -0.2631  0.1832
36120ION     CL42570   1.084   0.857   8.364  0.2534  0.0232 -0.2970
36121ION     CL42571  13.232   3.953   9.500  0.0756  0.0741 -0.2339
36122ION     CL42572  14.990   0.875  17.046 -0.3823  0.2586  0.1109
36123ION     CL42573  21.841   0.571   9.461 -0.2014 -0.1036 -0.2571
36124ION     CL42574  17.001   4.674  18.312  0.1074  0.4280 -0.4753
36125ION     CL42575   3.530   4.668   3.333  0.3407 -0.2029  0.1518
36126ION     CL42576   9.264   2.728   8.749 -0.0676 -0.1498 -0.0586
36127ION     CL42577  20.742   0.850  21.959 -0.1770 -0.1109 -0.1693
36128ION     CL42578   0.174   4.554  14.211  0.0541 -0.2427  0.2887
36129ION     CL42579   6.324   2.270  23.030 -0.0629 -0.2210  0.4749
36130ION     CL42580  19.887   5.702  30.585 -0.3808  0.0127 -0.2747
36131ION     CL42581   1.396   1.154   4.118  0.1139  0.3106 -0.1065
36132ION     CL42582  12.156   7.468   6.720  0.0825 -0.0736  0.0903
36133ION     CL42583   6.171   0.790   2.881  0.0886  0.3496 -0.2826
36134ION     CL42584   9.049   0.366  11.401 -0.1625  0.0290 -0.5967
36135ION     CL42585  13.937   4.616  23.287 -0.2530 -0.2518 -0.2786
36136ION     CL42586  12.769   5.301  24.279  0.0239  0.2984 -0.1149
36137ION     CL42587  22.741   4.014  26.758 -0.0380  0.0793  0.4129
36138ION     CL42588  12.621   5.208  20.413  0.2550 -0.2678  0.1651
36139ION     CL42589  24.959   7.387   8.665  0.2566 -0.0434  0.2600
36140ION     CL42590   4.152   3.818  15.009 -0.0504 -0.2070 -0.2393
36141ION     CL42591  11.302   1.577  11.006  0.2037  0.1688  0.2910
36142ION     CL42592   7.790   4.223  25.525 -0.3600  0.1774  0.0019
36143ION     CL42593  14.250   3.347  25.556  0.1971  0.0263  0.0083
36144ION     CL42594  13.810   2.630  23.486 -0.0732 -0.0266 -0.1273
36145ION     CL42595  18.964   3.283  16.392 -0.2926  0.0810  0.0178
36146ION     CL42596   3.507   0.864   7.794  0.0021  0.4901 -0.1171
36147ION     CL42597  11.715   0.532  30.117 -0.5158 -0.1084  0.0234
36148ION     CL42598  18.164   5.118   5.432 -0.0715  0.1074  0.0847
36149ION     CL42599  10.531   3.986   1.775 -0.0646 -0.2611 -0.1651
36150ION     CL42600   7.875   3.038  12.093 -0.3159 -0.5614  0.1304
36151ION     CL42601   3.600   5.669  32.968 -0.1600 -0.2116  0.1677
36152ION     CL42602  12.418   0.666  24.077 -0.1091 -0.0665  0.1200
36153ION     CL42603  23.495   5.483  29.536  0.3083  0.0465  0.1707
36154ION     CL42604  12.286   0.396  18.381  0.2222 -0.6090  0.0571
36155ION     CL42605  10.158   5.218  29.684  0.0105  0.0468  0.2196
36156ION     CL42606   2.740   4.143  29.215 -0.2180  0.1358  0.0925
36157ION     CL42607  14.938   3.948   2.378  0.5406 -0.1375 -0.1061
36158ION     CL42608  19.644   2.993   0.329 -0.0900 -0.0553  0.0131
36159ION     CL42609  15.645   6.512  22.205 -0.1146 -0.1200 -0.0768
36160ION     CL42610  19.282   5.126  28.232 -0.0604 -0.2198 -0.1015
36161ION     CL42611  24.267   5.593  24.460 -0.0220 -0.2284  0.0766
36162ION     CL42612   9.972   3.026   1.018  0.5337 -0.1586  0.1721
36163ION     CL42613  14.442   7.255   5.862 -0.5566 -0.0525  0.0795
36164ION     CL42614  14.958   2.285  31.732 -0.3269 -0.0012  0.0553
36165ION     CL42615  13.310   2.481  22.000 -0.0332 -0.2115  0.1494
36166ION     CL42616  20.187   1.901  21.488 -0.1769 -0.3688  0.0178
36167ION     CL42617   8.977   3.796   0.851 -0.1836  0.0326 -0.1318
36168ION     CL42618  12.937   7.745   8.720  0.0369 -0.1948  0.5385
36169ION     CL42619  11.460   6.219   1.679 -0.1156  0.2067  0.2900
36170ION     CL42620   6.113   2.239  11.830  0.3087  0.1700  0.1190
36171ION     CL42621   3.813   5.534  12.358  0.3017 -0.0440  0.2530
36172ION     CL42622   6.979   0.624   4.700  0.3539 -0.0887  0.2898
36173ION     CL42623  15.636   5.591   9.170 -0.0903  0.2931 -0.2508
36174ION     CL42624  16.823   6.181  16.230 -0.5242  0.3610  0.0483
36175ION     CL42625  20.683   4.630  26.731  0.2263 -0.0860 -0.0029
36176ION     CL42626  19.231   4.084  21.060  0.1870  0.0054 -0.2086
36177ION     CL42627   1.040   2.279  22.807  0.4160 -0.0246 -0.0781
36178ION     CL42628  17.619   1.807  32.550 -0.4326  0.0085 -0.0677
36179ION     CL42629  10.755   2.186  30.556  0.1732 -0.1007 -0.1043
36180ION     CL42630   3.074   6.393  17.435 -0.5467 -0.0428  0.2386
36181ION     CL42631   3.254   7.368  32.405  0.2957  0.1698 -0.3508
36182ION     CL42632  12.696   2.966   4.283 -0.7019 -0.3843 -0.2162
36183ION     CL42633   5.565   6.186  12.787 -0.0980 -0.0026  0.0683
36184ION     CL42634   9.143   3.447   8.549 -0.1076 -0.3210 -0.1641
36185ION     CL42635  19.506   6.343  28.286  0.4011 -0.1810  0.3497
36186ION     CL42636  23.420   2.128  10.224 -0.1038  0.0750  0.1696
36187ION     CL42637  12.529   6.823  18.249  0.0671  0.1048  0.1907
36188ION     CL42638  23.629   7.172  21.077  0.5850  0.1539  0.2457
36189ION     CL42639   9.671   5.408  28.303  0.0326  0.0244 -0.0100
36190ION     CL42640  22.862   3.727  22.122  0.2169  0.0877  0.0385
36191ION     CL42641  18.464   4.663  30.815 -0.3200 -0.3039 -0.0889
36192ION     CL42642  18.558   0.756   1.144  0.4488  0.2252  0.0871
36193ION     CL42643  11.283   1.929  32.326  0.1819  0.0252  0.1518
36194ION     CL42644  16.355   0.211  23.943 -0.0221 -0.2796 -0.2154
36195ION     CL42645  19.236   3.469   6.348  0.3406 -0.3611 -0.1305
36196ION     CL42646   7.318   1.096   1.687  0.0240 -0.0295  0.1249
36197ION     CL42647  19.212   4.241   5.922  0.2002 -0.2582 -0.0224
36198ION     CL42648  19.316   3.011   8.809  0.6945  0.0044  0.3901
36199ION     CL42649  15.491   5.215  31.486 -0.4306 -0.4069  0.0446
36200ION     CL42650   9.237   2.911  26.285  0.0678  0.5095 -0.3450
36201ION     CL42651  17.280   6.926  32.339 -0.4433 -0.2114  0.3071
36202ION     CL42652  22.931   2.458  28.984 -0.2175 -0.1973  0.2650
36203ION     CL42653  13.999   2.162  21.069  0.0522  0.3374 -0.4996
36204ION     CL42654   0.645   6.068  26.827 -0.0411  0.4214 -0.0716
36205ION     CL42655  12.925   2.021   0.935  0.0096 -0.3508 -0.1023
36206ION     CL42656  16.452   1.561   8.714 -0.1308  0.1298  0.2989
36207ION     CL42657  22.334   1.418   5.454 -0.0520 -0.0508  0.0805
36208ION     CL42658  20.934   0.648  10.571  0.4160 -0.0284  0.3935
36209ION     CL42659   5.876   1.051  23.535  0.2516 -0.2626  0.2087
36210ION     CL42660   5.412   5.619   8.787  0.1700  0.6142 -0.3008
36211ION     CL42661  21.706   0.399   6.525  0.0248 -0.0956  0.5730
36212ION     CL42662  13.052   4.242   5.922 -0.3228 -0.0399  0.3545
36213ION     CL42663  13.310   1.310   1.202 -0.5058  0.1501 -0.1944
36214ION     CL42664   4.748   6.727  17.424  0.0401 -0.1142  0.2943
36215ION     CL42665   6.446   2.818  14.564  0.1450  0.3790 -0.2045
36216ION     CL42666   5.043   2.242   0.876  0.1416  0.5661  0.2639
36217ION     CL42667  21.442   1.403   4.730  0.2829 -0.1835  0.1818
36218ION     CL42668  23.725   7.626  22.574  0.0988  0.1523 -0.2974
36219ION     CL42669   4.706   3.122  26.499  0.4350  0.0311  0.0472
36220ION     CL42670  15.713   3.984   6.509 -0.1214  0.0095 -0.2880
36221ION     CL42671   6.874   0.307   9.716  0.0324  0.2135 -0.0135
36222ION     CL42672  10.108   6.719   6.329 -0.0129  0.2254 -0.2477
36223ION     CL42673   3.484   6.908  30.767 -0.0480 -0.1923  0.1954
36224ION     CL42674   4.585   0.111  27.107  0.0872  0.1323  0.2614
36225ION     CL42675   8.095   4.493  24.548  0.0475 -0.2298  0.0097
36226ION     CL42676  19.970   1.774  23.658 -0.0503  0.4637  0.2776
36227ION     CL42677  14.393   4.477   0.477 -0.0555  0.3268 -0.1185
36228ION     CL42678  21.160   4.436   9.013 -0.3826  0.0744  0.1396
36229ION     CL42679  19.114   3.296  25.349  0.2298  0.0706  0.3335
36230ION     CL42680  14.150   1.424   1.542  0.5242 -0.2437 -0.1245
36231ION     CL42681   8.866   1.668  12.830 -0.1253  0.2785 -0.1937
36232ION     CL42682  17.196   7.449   2.548 -0.3711  0.0344  0.1812
36233ION     CL42683  22.617   1.723   8.289  0.0256 -0.3381 -0.1432
36234ION     CL42684   9.301   4.290  10.189 -0.0224  0.1299 -0.2055
36235ION     CL42685  24.316   5.150   2.402  0.4227 -0.0870 -0.2477
36236ION     CL42686  13.412   1.110  29.349  0.0022  0.0821  0.1806
36237ION     CL42687  16.339   4.477  27.553 -0.1273 -0.0679  0.1474
36238ION     CL42688  18.724   4.238  22.248 -0.3447  0.1494  0.2342
36239ION     CL42689  24.856   4.375  10.472 -0.0643 -0.0774 -0.4669
36240ION     CL42690   1.948   5.515  28.129  0.0889  0.1346  0.1798
36241ION     CL42691   8.525   0.172  32.451  0.2252 -0.3798  0.0384
36242ION     CL42692  22.830   0.710   4.041  0.0174  0.2126  0.6182
36243ION     CL42693   4.519   3.450   5.655 -0.0959  0.3631 -0.0023
36244ION     CL42694  21.315   7.686   4.474  0.2520  0.2537 -0.0989
36245ION     CL42695  16.471   6.560  31.730  0.0070 -0.0511 -0.6206
36246ION     CL42696   5.740   2.780  15.429 -0.4765  0.2951  0.2885
36247DOPC   NC342697  14.677   4.354  14.437 -0.0891  0.3340 -0.1945
36247DOPC   PO442698  14.404   4.529  14.661 -0.0975 -0.0911  0.0690
36247DOPC   GL142699  14.123   4.225  14.508  0.0331 -0.0251 -0.2036
36247DOPC   GL242700  14.210   4.319  14.265 -0.2327  0.1639 -0.0101
36247DOPC   C1A42701  13.806   3.966  14.442 -0.0884 -0.0611 -0.1281
36247DOPC   D2A42702  13.498   3.984  14.020 -0.1790  0.1207 -0.2931
36247DOPC   C3A42703  13.369   4.295  13.664  0.2549  0.1082 -0.1620
36247DOPC   C4A42704  13.011   4.268  13.316  0.0770  0.0381 -0.0638
36247DOPC   C1B42705  13.795   4.415  14.058 -0.0787 -0.3097  0.2059
36247DOPC   D2B42706  13.355   4.602  14.034  0.0469  0.0240 -0.2187
36247DOPC   C3B42707  12.927   4.512  13.900 -0.2234 -0.2858  0.1511
36247DOPC   C4B42708  12.536   4.282  13.798 -0.2999 -0.1842  0.1055
36248DOPC   NC342709  13.813   2.716  14.872 -0.1175 -0.0013 -0.0958
36248DOPC   PO442710  13.925   3.005  15.110  0.0524  0.0497 -0.1497
36248DOPC   GL142711  14.002   3.259  14.678 -0.2019 -0.1404 -0.0966
36248DOPC   GL242712  14.231   3.123  14.643 -0.4422 -0.0475 -0.2945
36248DOPC   C1A42713  13.774   2.999  14.416 -0.0573 -0.0426 -0.0287
36248DOPC   D2A42714  13.528   2.631  14.159 -0.1582 -0.2053 -0.1829
36248DOPC   C3A42715  13.172   2.444  13.916  0.0088 -0.2688  0.1545
36248DOPC   C4A42716  12.736   2.295  13.726 -0.3110 -0.1313 -0.0506
36248DOPC   C1B42717  14.350   3.213  14.227  0.0995  0.2197 -0.0452
36248DOPC   D2B42718  14.490   3.101  13.815 -0.0218  0.2832 -0.0129
36248DOPC   C3B42719  14.367   2.865  13.481  0.2199  0.1148  0.0423
36248DOPC   C4B42720  14.011   2.797  13.122 -0.1974  0.3638 -0.1693
36249DOPC   NC342721   0.550   2.991  21.190  0.1145 -0.2025  0.0916
36249DOPC   PO442722   0.308   3.304  21.144 -0.0264 -0.1736  0.1264
36249DOPC   GL142723   0.374   3.375  20.783  0.2193 -0.0903 -0.1466
36249DOPC   GL242724   0.262   3.610  20.698 -0.0209 -0.3601  0.2078
36249DOPC   C1A42725   0.566   2.986  20.663 -0.0328 -0.0359 -0.2022
36249DOPC   D2A42726   0.715   2.536  20.573 -0.1365 -0.0404  0.2276
36249DOPC   C3A42727   1.062   2.561  20.371 -0.1402 -0.2501  0.0946
36249DOPC   C4A42728   1.408   2.523  19.983 -0.2929  0.1439  0.0500
36249DOPC   C1B42729   0.002   3.641  20.382 -0.0856  0.0230 -0.1641
36249DOPC   D2B42730  -0.062   3.438  19.936  0.2038 -0.0760 -0.1349
36249DOPC   C3B42731  -0.245   3.808  19.744  0.0685 -0.0565 -0.0174
36249DOPC   C4B42732  -0.074   4.292  19.565  0.0431  0.0085 -0.2806
36250DOPC   NC342733   5.820   7.094  22.555  0.0984  0.2651  0.1891
36250DOPC   PO442734   5.390   7.124  22.436 -0.2452 -0.0364  0.3448
36250DOPC   GL142735   5.376   7.256  22.063  0.0003 -0.1334  0.1442
36250DOPC   GL242736   5.194   7.463  22.039  0.1004  0.0434 -0.1256
36250DOPC   C1A42737   5.537   7.466  21.667  0.1136 -0.2044 -0.2688
36250DOPC   D2A42738   5.733   7.649  21.218 -0.0132 -0.3009 -0.0286
36250DOPC   C3A42739   5.641   7.633  20.780 -0.0674 -0.0381 -0.0508
36250DOPC   C4A42740   5.603   7.688  20.294  0.0555 -0.3776  0.1001
36250DOPC   C1B42741   5.127   7.813  21.740  0.0085 -0.0795 -0.0468
36250DOPC   D2B42742   4.853   8.104  21.418 -0.1300  0.2518 -0.0453
36250DOPC   C3B42743   5.113   8.412  21.230  0.0151  0.1079  0.1477
36250DOPC   C4B42744   5.601   8.590  21.268  0.0773  0.0889 -0.0507
36251DOPC   NC342745   4.115   0.066  22.441  0.2213  0.2789 -0.1954
36251DOPC   PO442746   4.026  -0.280  22.611  0.1071  0.1877 -0.0814
36251DOPC   GL142747   3.826  -0.476  22.332 -0.5385 -0.2724 -0.2059
36251DOPC   GL242748   4.015  -0.687  22.294 -0.2408 -0.0331 -0.1644
36251DOPC   C1A42749   3.504  -0.529  22.121 -0.2921  0.3103  0.0246
36251DOPC   D2A42750   3.207  -0.501  21.799 -0.2480  0.2429 -0.0230
36251DOPC   C3A42751   3.259  -0.606  21.334  0.1703 -0.0380  0.1858
36251DOPC   C4A42752   3.392  -0.510  20.859  0.1942 -0.1156  0.3224
36251DOPC   C1B42753   4.294  -0.788  22.007 -0.2298 -0.2804  0.0095
36251DOPC   D2B42754   4.582  -0.955  21.630 -0.1022  0.0194 -0.0689
36251DOPC   C3B42755   4.797  -1.110  21.280  0.0783 -0.1091 -0.0407
36251DOPC   C4B42756   5.023  -0.954  20.870  0.1614 -0.0599 -0.0635
36252DOPC   NC342757   9.702   5.500  20.784  0.0528 -0.1693 -0.0824
36252DOPC   PO442758   9.408   5.339  20.954 -0.0086 -0.1640 -0.2300
36252DOPC   GL142759   9.123   5.099  20.630  0.2238 -0.0606 -0.3514
36252DOPC   GL242760   9.012   5.369  20.624 -0.0382  0.0608 -0.1475
36252DOPC   C1A42761   8.796   4.958  20.452  0.1618  0.3738 -0.1123
36252DOPC   D2A42762   8.623   4.662  20.111 -0.0707 -0.0842  0.2040
36252DOPC   C3A42763   8.253   4.656  19.825  0.0684  0.0875  0.0941
36252DOPC   C4A42764   7.893   4.767  19.477 -0.0798 -0.1402 -0.1337
36252DOPC   C1B42765   8.700   5.525  20.322  0.0059 -0.2160  0.0503
36252DOPC   D2B42766   8.459   5.395  19.912 -0.1155  0.2268  0.0875
36252DOPC   C3B42767   8.075   5.267  19.627 -0.1196  0.2116  0.2941
36252DOPC   C4B42768   7.599   5.224  19.415 -0.1123 -0.0954 -0.1839
36253DOPC   NC342769   2.802   6.790  22.840 -0.1735 -0.2154  0.1108
36253DOPC   PO442770   3.000   6.878  22.509  0.1531  0.0531  0.0910
36253DOPC   GL142771   2.810   6.891  22.096 -0.0567  0.4104 -0.0950
36253DOPC   GL242772   2.861   6.536  22.117 -0.0440 -0.0673  0.1031
36253DOPC   C1A42773   2.994   6.808  21.721 -0.0066 -0.0916  0.3240
36253DOPC   D2A42774   2.943   6.728  21.208  0.1533 -0.2425 -0.2839
36253DOPC   C3A42775   2.933   7.072  20.817  0.0745  0.2244  0.0670
36253DOPC   C4A42776   3.069   7.440  20.518 -0.2912  0.1152 -0.4525
36253DOPC   C1B42777   2.724   6.436  21.694 -0.3283  0.1997  0.0668
36253DOPC   D2B42778   2.679   6.272  21.189 -0.3547  0.1043 -0.2293
36253DOPC   C3B42779   2.856   6.385  20.795 -0.0065  0.0818 -0.1279
36253DOPC   C4B42780   3.095   6.238  20.357  0.0406  0.1021 -0.0272
36254DOPC   NC342781  24.146   0.314  19.905 -0.0826  0.0252 -0.1990
36254DOPC   PO442782  23.791   0.240  19.858 -0.2686  0.1611  0.1585
36254DOPC   GL142783  23.658   0.062  19.480 -0.1039  0.2322 -0.0011
36254DOPC   GL242784  23.478   0.155  19.417  0.1779  0.1079  0.0527
36254DOPC   C1A42785  23.908   0.031  19.156 -0.1115 -0.2576  0.2243
36254DOPC   D2A42786  24.129   0.042  18.655  0.1877 -0.0277 -0.1551
36254DOPC   C3A42787  24.544  -0.010  18.462  0.0168  0.1094 -0.2854
36254DOPC   C4A42788  24.929   0.041  18.204 -0.0352 -0.0399  0.3251
36254DOPC   C1B42789  23.476   0.312  18.987 -0.1503 -0.1430 -0.0160
36254DOPC   D2B42790  23.706   0.294  18.591  0.3096 -0.4640 -0.1360
36254DOPC   C3B42791  24.004   0.391  18.309  0.1807  0.1939 -0.0272
36254DOPC   C4B42792  24.189   0.573  17.889 -0.3998 -0.1554 -0.0247
36255DOPC   NC342793  12.035   2.191  17.279  0.0403 -0.0490 -0.0358
36255DOPC   PO442794  11.862   2.326  17.578 -0.1846 -0.0036  0.2499
36255DOPC   GL142795  11.472   2.419  17.347 -0.2720  0.3637 -0.1428
36255DOPC   GL242796  11.428   2.663  17.540  0.0301  0.1312  0.0663
36255DOPC   C1A42797  11.279   2.295  16.984 -0.1488 -0.1384  0.0693
36255DOPC   D2A42798  10.930   2.267  16.615  0.1104 -0.2367  0.0880
36255DOPC   C3A42799  10.603   2.189  16.309 -0.0108  0.0691  0.3153
36255DOPC   C4A42800  10.300   2.052  15.878  0.0646  0.0682 -0.0669
36255DOPC   C1B42801  11.039   2.691  17.380  0.1961  0.0017 -0.0278
36255DOPC   D2B42802  10.695   2.954  17.110  0.1420 -0.0814 -0.0133
36255DOPC   C3B42803  10.289   2.754  17.042  0.1099 -0.0188 -0.0020
36255DOPC   C4B42804   9.870   2.405  16.980  0.1131 -0.0643 -0.3528
36256DOPC   NC342805  13.455   7.075  15.925  0.1551 -0.2631 -0.1727
36256DOPC   PO442806  13.394   7.261  15.570  0.0468  0.0072  0.0650
36256DOPC   GL142807  13.078   7.240  15.246  0.0113  0.1090  0.0037
36256DOPC   GL242808  12.978   6.991  15.528 -0.1033  0.0268  0.1487
36256DOPC   C1A42809  12.842   7.513  14.936 -0.0963 -0.0940 -0.5120
36256DOPC   D2A42810  12.408   7.759  14.871 -0.1756 -0.1145 -0.1248
36256DOPC   C3A42811  12.022   7.996  15.007  0.0571  0.1137  0.4143
36256DOPC   C4A42812  11.624   8.145  15.125  0.3642  0.0798 -0.4227
36256DOPC   C1B42813  12.557   6.853  15.404  0.0054  0.0842  0.0966
36256DOPC   D2B42814  12.098   6.995  15.325  0.0345  0.0534 -0.1408
36256DOPC   C3B42815  11.813   7.037  14.992  0.1310  0.1678  0.0790
36256DOPC   C4B42816  11.743   7.173  14.557  0.1759  0.2321 -0.0334
36257DOPC   NC342817  23.277   0.324  19.791 -0.0680 -0.0379  0.1322
36257DOPC   PO442818  23.100   0.041  19.594 -0.2787 -0.0826 -0.0728
36257DOPC   GL142819  23.087  -0.018  19.194 -0.4912  0.2017  0.1782
36257DOPC   GL242820  23.030   0.254  19.160  0.0796  0.0130 -0.1911
36257DOPC   C1A42821  23.447  -0.196  18.983 -0.0761  0.0712 -0.3049
36257DOPC   D2A42822  23.733  -0.237  18.533 -0.1481  0.1126 -0.3186
36257DOPC   C3A42823  23.879  -0.065  18.171 -0.2257  0.1436 -0.2728
36257DOPC   C4A42824  23.956   0.013  17.691 -0.0671 -0.1559  0.2079
36257DOPC   C1B42825  22.969   0.479  18.784 -0.0184  0.2107  0.0838
36257DOPC   D2B42826  23.011   0.549  18.298 -0.0057 -0.4694 -0.1853
36257DOPC   C3B42827  23.216   0.686  17.964  0.0905  0.1436 -0.0938
36257DOPC   C4B42828  23.279   0.676  17.499 -0.1428  0.1226 -0.1227
36258DOPC   NC342829  12.720   1.773  17.449 -0.0035 -0.0050  0.2408
36258DOPC   PO442830  12.424   1.899  17.209 -0.1931  0.0552  0.1575
36258DOPC   GL142831  12.303   1.814  16.801 -0.0894 -0.1516 -0.1950
36258DOPC   GL242832  12.218   2.099  16.860 -0.2994 -0.3463  0.1103
36258DOPC   C1A42833  11.880   1.709  16.707  0.0933 -0.2062 -0.0185
36258DOPC   D2A42834  11.526   1.488  16.441 -0.1600 -0.1383  0.0276
36258DOPC   C3A42835  11.228   1.178  16.304  0.0812  0.0351 -0.1263
36258DOPC   C4A42836  11.098   0.753  16.037 -0.1172  0.0884  0.0321
36258DOPC   C1B42837  11.764   2.226  16.807 -0.1521  0.2374  0.3241
36258DOPC   D2B42838  11.400   2.446  16.524 -0.1751 -0.2347 -0.1854
36258DOPC   C3B42839  11.059   2.684  16.317 -0.0160  0.0855 -0.2918
36258DOPC   C4B42840  10.707   2.804  16.002 -0.1620  0.0344  0.2824
36259DOPC   NC342841  10.906   2.577  18.879  0.0902 -0.1348 -0.1183
36259DOPC   PO442842  10.610   2.849  18.711  0.0833 -0.3583 -0.0532
36259DOPC   GL142843  10.626   3.042  18.320 -0.1734 -0.0438 -0.2117
36259DOPC   GL242844  10.504   3.237  18.455 -0.1448 -0.1870  0.0792
36259DOPC   C1A42845  10.454   2.781  18.046 -0.1724  0.1495  0.0651
36259DOPC   D2A42846  10.093   2.479  17.823  0.2581 -0.0830 -0.2463
36259DOPC   C3A42847  10.166   2.284  17.468  0.2299  0.2930 -0.0017
36259DOPC   C4A42848  10.192   2.044  17.079 -0.0984  0.1707  0.0814
36259DOPC   C1B42849  10.118   3.471  18.319  0.0776 -0.1298 -0.1282
36259DOPC   D2B42850   9.808   3.608  17.995  0.1465  0.1295  0.2832
36259DOPC   C3B42851   9.628   4.010  17.907  0.3121 -0.1720 -0.1315
36259DOPC   C4B42852   9.224   4.306  17.936  0.3281 -0.1722  0.0834
36260DOPC   NC342853  24.645   5.259  20.796  0.0162 -0.0629  0.2074
36260DOPC   PO442854  24.265   5.216  20.694 -0.2703 -0.1279 -0.0176
36260DOPC   GL142855  24.428   5.232  20.290  0.3193  0.1169  0.1843
36260DOPC   GL242856  24.764   5.197  20.352 -0.3298  0.1501  0.2566
36260DOPC   C1A42857  24.509   5.482  19.913 -0.3853 -0.2088 -0.0448
36260DOPC   D2A42858  24.545   5.525  19.445 -0.0036  0.0262  0.0229
36260DOPC   C3A42859  24.733   5.546  18.993  0.3364 -0.2302  0.1416
36260DOPC   C4A42860  24.942   5.439  18.478 -0.1888 -0.0160 -0.1281
36260DOPC   C1B42861  24.965   5.266  19.984 -0.0312  0.2457  0.0463
36260DOPC   D2B42862  25.022   5.404  19.505 -0.1769 -0.0658 -0.0726
36260DOPC   C3B42863  25.312   5.076  19.437  0.3452  0.2901  0.0847
36260DOPC   C4B42864  25.752   4.995  19.374 -0.0934 -0.2256  0.3047
36261DOPC   NC342865  22.028   5.202  18.993  0.0522 -0.0333  0.1036
36261DOPC   PO442866  21.781   5.108  18.726  0.0738 -0.0728  0.1844
36261DOPC   GL142867  21.867   5.084  18.366  0.3522  0.2015  0.0424
36261DOPC   GL242868  22.174   5.060  18.375  0.2108  0.0502  0.1873
36261DOPC   C1A42869  22.001   5.367  18.072  0.2379  0.0444  0.1574
36261DOPC   D2A42870  22.274   5.708  17.897 -0.0199  0.0103  0.1901
36261DOPC   C3A42871  22.428   5.791  17.530 -0.1165  0.3396  0.0371
36261DOPC   C4A42872  22.853   5.757  17.209  0.1293 -0.1097  0.0823
36261DOPC   C1B42873  22.487   5.124  18.097 -0.1063 -0.1811  0.0908
36261DOPC   D2B42874  22.948   5.306  17.979  0.0973  0.1925  0.1387
36261DOPC   C3B42875  23.300   5.067  17.820 -0.0885 -0.2588  0.0467
36261DOPC   C4B42876  23.533   4.701  17.651  0.1678  0.0515  0.1690
36262DOPC   NC342877  23.403   1.050  19.718  0.1551  0.2721 -0.0379
36262DOPC   PO442878  23.597   0.719  19.731 -0.0954  0.4537 -0.0944
36262DOPC   GL142879  23.860   0.510  19.484  0.0299  0.3263 -0.1541
36262DOPC   GL242880  23.766   0.531  19.235  0.2003  0.1279  0.3588
36262DOPC   C1A42881  24.296   0.406  19.403 -0.1116 -0.3269  0.4123
36262DOPC   D2A42882  24.780   0.160  19.448 -0.1899  0.4194  0.0049
36262DOPC   C3A42883  24.954  -0.097  19.072 -0.4591 -0.3716 -0.1197
36262DOPC   C4A42884  25.012  -0.264  18.575  0.0972  0.0514  0.0895
36262DOPC   C1B42885  24.106   0.531  18.933 -0.1195  0.1558 -0.1467
36262DOPC   D2B42886  24.440   0.484  18.537  0.0212 -0.1080 -0.1574
36262DOPC   C3B42887  24.608   0.857  18.243  0.4349 -0.0221 -0.1828
36262DOPC   C4B42888  24.879   1.308  17.996  0.0021 -0.1239 -0.5203
36263DOPC   NC342889  22.184   1.605  20.011 -0.2750 -0.3214 -0.0879
36263DOPC   PO442890  22.287   1.251  19.893 -0.2262 -0.0479  0.0062
36263DOPC   GL142891  22.599   1.276  19.598 -0.0215 -0.3028  0.2830
36263DOPC   GL242892  22.393   1.383  19.382  0.1965 -0.1192  0.2030
36263DOPC   C1A42893  22.958   1.047  19.491  0.2586  0.4013  0.0863
36263DOPC   D2A42894  23.239   0.748  19.142  0.2263  0.2008  0.4084
36263DOPC   C3A42895  23.662   0.753  18.819  0.0530 -0.4208 -0.0860
36263DOPC   C4A42896  24.011   0.858  18.533  0.2561  0.1547 -0.1821
36263DOPC   C1B42897  22.526   1.440  18.911 -0.2898  0.0008  0.0556
36263DOPC   D2B42898  22.928   1.418  18.561  0.2987  0.0109 -0.1744
36263DOPC   C3B42899  23.140   1.143  18.199  0.1775  0.1733 -0.1766
36263DOPC   C4B42900  23.139   1.120  17.714  0.0358  0.0233  0.1886
36264DOPC   NC342901  21.070   3.303  17.742  0.1396 -0.0753 -0.0924
36264DOPC   PO442902  21.161   3.704  17.850  0.2036  0.2863 -0.1134
36264DOPC   GL142903  21.452   3.809  17.642  0.3674  0.1279 -0.0938
36264DOPC   GL242904  21.482   3.482  17.641  0.2420 -0.0326 -0.1247
36264DOPC   C1A42905  21.613   3.892  17.273 -0.0383  0.0109 -0.3357
36264DOPC   D2A42906  21.871   3.937  16.807 -0.2439 -0.4118  0.1011
36264DOPC   C3A42907  22.119   4.023  16.398 -0.0529  0.1392 -0.1390
36264DOPC   C4A42908  22.581   4.240  16.389  0.0030  0.2186  0.0749
36264DOPC   C1B42909  21.902   3.479  17.433  0.1317  0.2253 -0.1697
36264DOPC   D2B42910  22.259   3.565  17.124 -0.4716 -0.1982  0.0203
36264DOPC   C3B42911  22.451   3.813  16.818  0.0248 -0.1308 -0.0975
36264DOPC   C4B42912  22.879   3.990  16.909  0.3267 -0.0339  0.0506
36265DOPC   NC342913  17.924   2.890  14.709  0.0362 -0.1003 -0.4096
36265DOPC   PO442914  17.583   2.774  14.478  0.3089  0.0862  0.1299
36265DOPC   GL142915  17.417   2.830  14.056  0.0920 -0.1060  0.1208
36265DOPC   GL242916  17.272   2.551  14.035 -0.0764  0.0182 -0.2844
36265DOPC   C1A42917  17.485   2.780  13.593  0.0500  0.0377  0.0605
36265DOPC   D2A42918  17.448   2.697  13.089 -0.2048 -0.0379 -0.1444
36265DOPC   C3A42919  17.533   2.376  12.742  0.0955 -0.1594 -0.0370
36265DOPC   C4A42920  17.718   2.015  12.424 -0.4796 -0.3607  0.0748
36265DOPC   C1B42921  17.130   2.449  13.681 -0.0340  0.4935  0.2574
36265DOPC   D2B42922  16.751   2.565  13.360  0.0715  0.1109 -0.1115
36265DOPC   C3B42923  16.644   2.561  12.900  0.1634 -0.0226 -0.0814
36265DOPC   C4B42924  16.475   2.309  12.479  0.3857  0.3098  0.3041
36266DOPC   NC342925  13.291   5.707  16.382 -0.1097 -0.0866 -0.4027
36266DOPC   PO442926  13.439   5.539  16.039  0.0904  0.2679  0.0133
36266DOPC   GL142927  13.073   5.482  15.753 -0.3585 -0.2503  0.1908
36266DOPC   GL242928  12.941   5.569  15.917 -0.1173  0.0380 -0.2717
36266DOPC   C1A42929  12.956   5.484  15.323 -0.0268  0.0115  0.0487
36266DOPC   D2A42930  12.495   5.501  15.167 -0.2136  0.1362 -0.0188
36266DOPC   C3A42931  12.203   5.866  15.212  0.0104  0.0088 -0.4189
36266DOPC   C4A42932  11.785   5.996  15.036  0.1173 -0.0318  0.2685
36266DOPC   C1B42933  12.605   5.354  15.758  0.0663 -0.0000  0.0489
36266DOPC   D2B42934  12.245   5.202  15.580  0.1832 -0.0506  0.1380
36266DOPC   C3B42935  11.869   5.107  15.396  0.1775 -0.3276  0.0215
36266DOPC   C4B42936  11.383   4.974  15.196  0.0849 -0.1339 -0.0796
36267DOPC   NC342937  17.890   5.305  15.394 -0.1118 -0.2616 -0.2012
36267DOPC   PO442938  17.979   5.020  15.153 -0.0623 -0.2821  0.0027
36267DOPC   GL142939  18.192   4.927  14.782  0.0146  0.0819 -0.0825
36267DOPC   GL242940  18.478   5.056  14.883  0.0619  0.3469 -0.1628
36267DOPC   C1A42941  18.301   5.034  14.448  0.2338  0.0333  0.2385
36267DOPC   D2A42942  18.593   5.085  14.055  0.0003  0.0155  0.1469
36267DOPC   C3A42943  18.600   5.130  13.593  0.1439 -0.0866  0.0161
36267DOPC   C4A42944  18.678   4.805  13.258  0.1785 -0.2351 -0.0290
36267DOPC   C1B42945  18.836   5.197  14.568  0.2005  0.1972 -0.1748
36267DOPC   D2B42946  19.124   5.528  14.347 -0.1608 -0.1199  0.0337
36267DOPC   C3B42947  19.218   5.811  13.980 -0.0171 -0.1558 -0.0419
36267DOPC   C4B42948  19.339   6.230  13.769 -0.0319  0.0176 -0.1185
36268DOPC   NC342949  10.102   7.037  20.146 -0.0680  0.1750  0.0216
36268DOPC   PO442950   9.825   7.291  20.275 -0.0159 -0.4505 -0.3281
36268DOPC   GL142951   9.565   7.458  20.105  0.1449 -0.0835 -0.0957
36268DOPC   GL242952   9.614   7.313  19.862  0.0153 -0.2817 -0.2501
36268DOPC   C1A42953   9.146   7.475  20.246  0.0826  0.1281  0.1129
36268DOPC   D2A42954   8.665   7.379  20.162  0.1669  0.0478 -0.2849
36268DOPC   C3A42955   8.383   7.621  19.909  0.2854  0.1533  0.1277
36268DOPC   C4A42956   8.105   7.792  19.604  0.2901 -0.0311  0.0660
36268DOPC   C1B42957   9.302   7.675  19.695  0.0425 -0.0947  0.0293
36268DOPC   D2B42958   8.967   7.952  19.417 -0.2034  0.0513 -0.1355
36268DOPC   C3B42959   8.745   8.022  18.941 -0.2063  0.1514 -0.1453
36268DOPC   C4B42960   8.775   7.903  18.381  0.0694 -0.0526 -0.0535
36269DOPC   NC342961   1.138   6.943  22.472  0.0473  0.1999 -0.1546
36269DOPC   PO442962   1.344   6.846  22.184  0.1590  0.5942  0.0324
36269DOPC   GL142963   1.715   6.871  21.908 -0.1125  0.0860  0.1371
36269DOPC   GL242964   1.919   6.941  22.054  0.1385  0.2212  0.0262
36269DOPC   C1A42965   1.885   6.829  21.466 -0.2980 -0.2773 -0.2251
36269DOPC   D2A42966   2.040   6.891  21.005  0.2042 -0.0128  0.2389
36269DOPC   C3A42967   1.817   6.900  20.568  0.2817 -0.3301 -0.1481
36269DOPC   C4A42968   1.833   6.899  20.056  0.1379  0.0879  0.0312
36269DOPC   C1B42969   2.157   7.174  21.809 -0.0488  0.2358 -0.1217
36269DOPC   D2B42970   2.343   7.478  21.511  0.0532  0.2275  0.4177
36269DOPC   C3B42971   2.354   7.569  21.024 -0.2961 -0.0058 -0.0775
36269DOPC   C4B42972   2.573   7.578  20.617 -0.0695  0.0135  0.1012
36270DOPC   NC342973  11.474   7.749  18.734  0.1078 -0.1607 -0.1429
36270DOPC   PO442974  11.368   7.954  18.392  0.0474  0.0825  0.0107
36270DOPC   GL142975  11.311   7.781  17.993 -0.1200 -0.3442 -0.0489
36270DOPC   GL242976  11.426   8.071  17.933  0.4283 -0.1927 -0.0081
36270DOPC   C1A42977  11.146   7.423  17.780 -0.0444  0.0595  0.1068
36270DOPC   D2A42978  10.794   7.145  17.630 -0.0312 -0.1652 -0.1103
36270DOPC   C3A42979  10.444   7.070  17.356 -0.0538 -0.4061 -0.2338
36270DOPC   C4A42980  10.091   7.233  17.045 -0.2701 -0.0196 -0.1779
36270DOPC   C1B42981  11.102   8.369  17.779 -0.0619 -0.0225  0.0004
36270DOPC   D2B42982  10.677   8.550  17.676  0.0470  0.1581  0.1257
36270DOPC   C3B42983  10.226   8.557  17.490  0.2000  0.0371 -0.1742
36270DOPC   C4B42984   9.782   8.438  17.312  0.0368 -0.2106  0.2504
36271DOPC   NC342985   9.799   2.827  20.735 -0.1845 -0.0813 -0.0721
36271DOPC   PO442986  10.024   2.762  20.410 -0.4036  0.0114 -0.0777
36271DOPC   GL142987   9.674   2.654  20.166  0.0363  0.2722 -0.0419
36271DOPC   GL242988   9.536   2.763  20.358 -0.0706 -0.3573  0.0522
36271DOPC   C1A42989   9.448   2.419  19.897  0.0532 -0.0145  0.1023
36271DOPC   D2A42990   9.162   2.442  19.486  0.0905  0.3595 -0.1281
36271DOPC   C3A42991   9.259   2.625  19.053  0.0110  0.1682  0.2055
36271DOPC   C4A42992   9.446   3.050  18.970  0.0922 -0.1131 -0.2339
36271DOPC   C1B42993   9.190   2.634  20.238 -0.1742 -0.1564  0.4044
36271DOPC   D2B42994   8.839   2.333  20.007  0.0273  0.1308  0.0548
36271DOPC   C3B42995   8.396   2.287  19.852 -0.2558  0.1669 -0.3601
36271DOPC   C4B42996   8.119   2.015  19.646 -0.0383 -0.3633 -0.0777
36272DOPC   NC342997  18.095   0.831  15.251  0.2173  0.3069  0.0959
36272DOPC   PO442998  17.770   1.062  15.136 -0.1919  0.3288 -0.1117
36272DOPC   GL142999  17.837   1.181  14.726  0.1717  0.2787 -0.1301
36272DOPC   GL243000  18.084   1.319  14.776 -0.0030 -0.2053 -0.0747
36272DOPC   C1A43001  17.673   1.117  14.430 -0.1079  0.0380  0.0899
36272DOPC   D2A43002  17.610   0.833  14.000  0.0054 -0.0371 -0.2539
36272DOPC   C3A43003  17.750   0.734  13.559  0.1353  0.2108 -0.0357
36272DOPC   C4A43004  17.797   0.556  13.056  0.2954  0.1123  0.0222
36272DOPC   C1B43005  18.474   1.270  14.499  0.0006  0.4266  0.2622
36272DOPC   D2B43006  18.906   1.060  14.325  0.1176  0.1735  0.1623
36272DOPC   C3B43007  19.326   1.020  14.064  0.2156  0.1532  0.0864
36272DOPC   C4B43008  19.784   1.148  13.877 -0.0231 -0.0058 -0.0476
36273DOPC   NC343009  21.280   7.453  18.717 -0.1279  0.0719 -0.2791
36273DOPC   PO443010  21.338   7.598  18.364  0.0469  0.1832 -0.2043
36273DOPC   GL143011  21.578   7.390  18.145  0.2129 -0.1875  0.0540
36273DOPC   GL243012  21.472   7.517  17.937 -0.0394  0.3207  0.3224
36273DOPC   C1A43013  21.968   7.600  18.109 -0.0005  0.1107  0.2841
36273DOPC   D2A43014  22.295   7.969  17.932  0.1705  0.2548 -0.1049
36273DOPC   C3A43015  22.536   7.915  17.513  0.2607 -0.1240 -0.1849
36273DOPC   C4A43016  22.562   7.583  17.102  0.0810  0.1389  0.0694
36273DOPC   C1B43017  21.709   7.888  17.845  0.0076 -0.0280  0.1861
36273DOPC   D2B43018  21.983   8.041  17.437  0.1831 -0.2446  0.0279
36273DOPC   C3B43019  22.254   7.991  17.079 -0.2026  0.3104  0.0473
36273DOPC   C4B43020  22.448   7.787  16.657  0.1300 -0.1021 -0.0354
36274DOPC   NC343021  20.046   0.732  17.003 -0.0783 -0.4581 -0.0619
36274DOPC   PO443022  20.357   0.758  17.279 -0.3135 -0.2739 -0.0982
36274DOPC   GL143023  20.542   0.980  16.983 -0.1485 -0.2145 -0.0200
36274DOPC   GL243024  20.823   0.781  17.027  0.1665 -0.3668  0.0274
36274DOPC   C1A43025  20.505   1.113  16.643 -0.0325  0.0665 -0.0307
36274DOPC   D2A43026  20.533   0.896  16.204 -0.1119  0.0104  0.0788
36274DOPC   C3A43027  20.983   0.814  16.077  0.1216  0.0081  0.2903
36274DOPC   C4A43028  21.352   1.009  15.847  0.3075  0.0886 -0.0715
36274DOPC   C1B43029  21.221   0.537  17.016 -0.0683 -0.0072  0.1700
36274DOPC   D2B43030  21.741   0.491  17.090 -0.0292 -0.0195 -0.3846
36274DOPC   C3B43031  22.084   0.671  16.892 -0.1693 -0.1559  0.1494
36274DOPC   C4B43032  22.266   0.995  16.576  0.1618  0.2566 -0.4229
36275DOPC   NC343033   0.573   1.577  22.303  0.3639 -0.0888 -0.1090
36275DOPC   PO443034   0.511   1.684  21.928 -0.1629 -0.0248 -0.2005
36275DOPC   GL143035   0.889   1.861  21.696  0.0456  0.2273 -0.0710
36275DOPC   GL243036   0.977   1.631  21.643 -0.1322 -0.2216  0.0908
36275DOPC   C1A43037   0.761   1.820  21.237 -0.0318 -0.2134 -0.0713
36275DOPC   D2A43038   0.514   1.481  20.989 -0.0355  0.1715  0.0492
36275DOPC   C3A43039   0.492   1.482  20.587 -0.2541  0.2027 -0.0350
36275DOPC   C4A43040   0.498   1.396  20.077  0.0576  0.0322  0.1573
36275DOPC   C1B43041   1.367   1.552  21.462  0.1677  0.2876 -0.1758
36275DOPC   D2B43042   1.824   1.485  21.134  0.1129  0.0206 -0.2840
36275DOPC   C3B43043   2.248   1.505  21.157  0.1256  0.2804  0.1933
36275DOPC   C4B43044   2.746   1.541  21.078  0.0632 -0.1630 -0.0106
36276DOPC   NC343045  14.844   2.337  14.017  0.0940  0.0204 -0.0313
36276DOPC   PO443046  15.024   2.209  14.356  0.0545 -0.0152  0.1727
36276DOPC   GL143047  15.235   2.044  14.031 -0.1467 -0.0890  0.0640
36276DOPC   GL243048  15.126   1.772  14.038 -0.0511 -0.0841 -0.3166
36276DOPC   C1A43049  15.383   2.300  13.636 -0.0478  0.3840 -0.0356
36276DOPC   D2A43050  15.469   2.624  13.249  0.0027  0.1279 -0.1307
36276DOPC   C3A43051  15.557   2.818  12.824  0.1657  0.1979 -0.0785
36276DOPC   C4A43052  15.819   2.999  12.472 -0.2949 -0.0739 -0.2549
36276DOPC   C1B43053  15.151   1.709  13.592  0.0783 -0.0478  0.2669
36276DOPC   D2B43054  15.114   1.489  13.129  0.2400  0.1352 -0.2172
36276DOPC   C3B43055  15.499   1.570  12.904  0.0271 -0.1611  0.3553
36276DOPC   C4B43056  15.678   2.040  12.885 -0.0071 -0.0856 -0.1150
36277DOPC   NC343057   9.261   2.178  21.091  0.0653  0.3204  0.1883
36277DOPC   PO443058   9.105   2.091  21.426  0.1594 -0.0680 -0.2236
36277DOPC   GL143059   8.693   2.056  21.190  0.2943  0.0406 -0.5146
36277DOPC   GL243060   8.630   2.236  21.401  0.0148 -0.1288  0.2628
36277DOPC   C1A43061   8.670   2.293  20.847  0.4541  0.1731  0.2105
36277DOPC   D2A43062   8.528   2.239  20.372 -0.0689  0.1122 -0.1207
36277DOPC   C3A43063   8.142   2.143  20.270  0.0758  0.1855  0.2593
36277DOPC   C4A43064   7.757   1.880  20.179 -0.0280  0.0124 -0.0832
36277DOPC   C1B43065   8.246   2.330  21.191  0.0784  0.1789  0.0141
36277DOPC   D2B43066   7.906   2.210  20.834 -0.0573 -0.3410  0.2258
36277DOPC   C3B43067   7.718   1.884  20.698  0.1667 -0.2824 -0.0268
36277DOPC   C4B43068   7.316   2.031  20.432  0.1313  0.2110  0.1385
36278DOPC   NC343069  17.038   5.314  14.120 -0.1808 -0.2416  0.0604
36278DOPC   PO443070  16.682   5.307  14.220  0.1366  0.0323 -0.2808
36278DOPC   GL143071  16.658   5.455  13.880  0.0069  0.0670  0.1371
36278DOPC   GL243072  16.471   5.177  13.810 -0.1532 -0.0616 -0.0063
36278DOPC   C1A43073  16.769   5.555  13.421 -0.3078 -0.0568 -0.0690
36278DOPC   D2A43074  17.014   5.678  12.976 -0.1744  0.1330  0.1977
36278DOPC   C3A43075  16.684   5.355  12.836 -0.2138 -0.2210  0.2384
36278DOPC   C4A43076  16.350   5.069  12.722  0.0377 -0.1537 -0.1541
36278DOPC   C1B43077  16.711   4.829  13.656 -0.1588 -0.1229  0.0053
36278DOPC   D2B43078  16.925   4.470  13.469  0.1495  0.0968  0.0994
36278DOPC   C3B43079  16.981   4.552  13.031 -0.1599 -0.3173 -0.0099
36278DOPC   C4B43080  16.736   4.725  12.663  0.0917  0.2597  0.1108
36279DOPC   NC343081  19.992   3.352  16.600  0.0865 -0.3322  0.1249
36279DOPC   PO443082  19.726   3.399  16.356  0.2246 -0.2227  0.1877
36279DOPC   GL143083  19.902   3.622  16.013 -0.5569  0.3343  0.0214
36279DOPC   GL243084  20.159   3.463  16.175 -0.1601 -0.2917 -0.2278
36279DOPC   C1A43085  20.019   3.586  15.523  0.0252 -0.1583  0.0537
36279DOPC   D2A43086  20.335   3.714  15.131  0.0935 -0.2116  0.0621
36279DOPC   C3A43087  20.688   3.475  14.878  0.1465  0.1738 -0.2533
36279DOPC   C4A43088  20.998   3.242  14.667 -0.1461  0.2394  0.0797
36279DOPC   C1B43089  20.241   3.220  15.878 -0.0910  0.0377  0.0211
36279DOPC   D2B43090  20.060   2.974  15.494 -0.0301 -0.0633 -0.0941
36279DOPC   C3B43091  20.261   2.885  15.081  0.1041 -0.0958 -0.0641
36279DOPC   C4B43092  20.590   2.947  14.744 -0.0707  0.1483  0.0091
36280DOPC   NC343093  16.705   3.923  14.410  0.0800  0.0867  0.0764
36280DOPC   PO443094  17.094   3.914  14.517 -0.1892  0.0929  0.2996
36280DOPC   GL143095  17.291   3.864  14.116 -0.1096 -0.1177 -0.1485
36280DOPC   GL243096  17.037   3.628  14.183  0.2443 -0.1338  0.1438
36280DOPC   C1A43097  17.312   3.773  13.648 -0.1988 -0.3049 -0.0469
36280DOPC   D2A43098  17.325   3.569  13.173 -0.0794  0.3015  0.1073
36280DOPC   C3A43099  17.417   3.744  12.787 -0.3763  0.5047  0.0572
36280DOPC   C4A43100  17.451   3.828  12.327 -0.0628 -0.2188 -0.0256
36280DOPC   C1B43101  16.945   3.536  13.856 -0.1935  0.2898  0.3083
36280DOPC   D2B43102  16.897   3.385  13.411 -0.0056 -0.0023 -0.0464
36280DOPC   C3B43103  16.895   3.609  12.987 -0.0741 -0.2018 -0.0494
36280DOPC   C4B43104  16.962   3.978  12.594 -0.0672  0.4153  0.0022
36281DOPC   NC343105  17.517   4.968  15.023  0.1298  0.1172  0.0432
36281DOPC   PO443106  17.393   4.708  14.781  0.3795 -0.0211  0.2488
36281DOPC   GL143107  17.450   4.598  14.416 -0.2536 -0.0812  0.2408
36281DOPC   GL243108  17.408   4.812  14.286  0.0122 -0.1126  0.1610
36281DOPC   C1A43109  17.598   4.318  14.185  0.2334  0.1607  0.0500
36281DOPC   D2A43110  17.741   4.015  13.836 -0.1312  0.1992 -0.0967
36281DOPC   C3A43111  17.808   4.135  13.397  0.2229 -0.2094 -0.0233
36281DOPC   C4A43112  17.958   4.110  12.962  0.1167  0.0167  0.0958
36281DOPC   C1B43113  17.139   4.719  13.928 -0.1343 -0.1675 -0.1895
36281DOPC   D2B43114  17.244   5.132  13.670 -0.0672  0.0741 -0.0099
36281DOPC   C3B43115  17.701   5.114  13.456  0.1139 -0.0504 -0.0258
36281DOPC   C4B43116  17.848   5.225  13.004 -0.1913 -0.1055 -0.0127
36282DOPC   NC343117   8.870   2.845  21.587  0.2453 -0.0019 -0.0524
36282DOPC   PO443118   8.966   3.019  21.248 -0.1041 -0.1303  0.0645
36282DOPC   GL143119   8.566   3.013  21.119  0.3284 -0.3889  0.1793
36282DOPC   GL243120   8.530   2.682  21.083 -0.1422 -0.0730 -0.3275
36282DOPC   C1A43121   8.447   3.065  20.699  0.2775 -0.0561 -0.0508
36282DOPC   D2A43122   8.198   3.135  20.265 -0.1213 -0.2020 -0.0785
36282DOPC   C3A43123   8.032   3.182  19.768 -0.0506  0.1823 -0.0095
36282DOPC   C4A43124   7.771   3.311  19.348 -0.0431 -0.0631  0.3499
36282DOPC   C1B43125   8.290   2.611  20.675 -0.1413 -0.3615 -0.2633
36282DOPC   D2B43126   8.209   2.652  20.163 -0.0167  0.1173  0.1668
36282DOPC   C3B43127   8.172   2.720  19.648 -0.1665 -0.0991  0.1888
36282DOPC   C4B43128   8.078   2.922  19.264 -0.0026  0.2205  0.0103
36283DOPC   NC343129  19.172   4.520  15.339  0.0299  0.2168 -0.0228
36283DOPC   PO443130  19.401   4.188  15.322 -0.0461  0.1535 -0.1142
36283DOPC   GL143131  19.501   4.029  14.947  0.1125  0.1966  0.0096
36283DOPC   GL243132  19.395   3.702  14.982 -0.1812 -0.0148  0.1494
36283DOPC   C1A43133  19.909   3.972  14.763 -0.1195  0.1407  0.0440
36283DOPC   D2A43134  20.381   3.924  14.655 -0.0465 -0.2376  0.1194
36283DOPC   C3A43135  20.493   3.443  14.362 -0.1697  0.2131  0.0178
36283DOPC   C4A43136  20.262   3.091  14.105  0.0568  0.0630  0.1372
36283DOPC   C1B43137  19.791   3.567  14.997 -0.0805 -0.0886  0.1190
36283DOPC   D2B43138  20.193   3.376  14.754 -0.2551 -0.1663 -0.0148
36283DOPC   C3B43139  20.058   2.917  14.572 -0.0172 -0.2338 -0.2498
36283DOPC   C4B43140  19.765   2.763  14.255 -0.0445  0.0926 -0.0422
36284DOPC   NC343141  17.637   5.663  14.979 -0.3069 -0.0818 -0.1555
36284DOPC   PO443142  17.326   5.845  14.812 -0.0716 -0.1153 -0.1689
36284DOPC   GL143143  17.566   5.986  14.502 -0.0405 -0.0991  0.4047
36284DOPC   GL243144  17.551   6.246  14.515  0.2443 -0.2317  0.0262
36284DOPC   C1A43145  17.824   5.744  14.262  0.0066  0.1113 -0.3483
36284DOPC   D2A43146  18.076   5.453  13.939 -0.2184  0.2529  0.0010
36284DOPC   C3A43147  18.112   4.971  13.772 -0.2443  0.1045 -0.2776
36284DOPC   C4A43148  18.014   4.462  13.710 -0.0971 -0.0225 -0.1929
36284DOPC   C1B43149  17.719   6.298  14.139 -0.0235 -0.0354 -0.2662
36284DOPC   D2B43150  17.913   6.406  13.723  0.0536  0.0484  0.0372
36284DOPC   C3B43151  17.909   6.462  13.263  0.0061 -0.0566  0.0425
36284DOPC   C4B43152  17.957   6.184  12.870  0.1610  0.3605  0.0580
36285DOPC   NC343153   2.444   6.566  22.343  0.0448 -0.0183  0.1154
36285DOPC   PO443154   2.493   6.148  22.334 -0.1206 -0.1866 -0.1400
36285DOPC   GL143155   2.560   6.115  21.984  0.2064  0.0542 -0.2161
36285DOPC   GL243156   2.302   6.115  21.887 -0.0964  0.1454  0.3715
36285DOPC   C1A43157   2.881   5.986  21.631 -0.0192  0.0168 -0.0824
36285DOPC   D2A43158   3.100   5.840  21.191 -0.0563 -0.1942  0.2160
36285DOPC   C3A43159   3.101   5.787  20.709  0.0192 -0.0777  0.1335
36285DOPC   C4A43160   2.929   5.750  20.221  0.2002  0.3080 -0.2070
36285DOPC   C1B43161   2.345   6.040  21.449 -0.0499  0.1039  0.2451
36285DOPC   D2B43162   2.204   6.022  20.973  0.1048 -0.0371 -0.2316
36285DOPC   C3B43163   2.307   6.389  20.730 -0.0109 -0.0505  0.0207
36285DOPC   C4B43164   2.316   6.707  20.300 -0.0578  0.1341  0.0206
36286DOPC   NC343165  13.648   0.687  15.957  0.0389 -0.1050  0.1696
36286DOPC   PO443166  13.335   0.474  15.845  0.1545 -0.0915 -0.0612
36286DOPC   GL143167  13.130   0.282  15.471  0.1497 -0.0616  0.0450
36286DOPC   GL243168  12.860   0.269  15.639 -0.0504  0.1760  0.1392
36286DOPC   C1A43169  12.989   0.498  15.053  0.0993 -0.1534 -0.0465
36286DOPC   D2A43170  12.822   0.745  14.685 -0.0152 -0.3277 -0.0322
36286DOPC   C3A43171  12.700   0.694  14.233 -0.0820 -0.0060 -0.1719
36286DOPC   C4A43172  12.740   0.452  13.801  0.2386 -0.1608  0.0403
36286DOPC   C1B43173  12.493   0.020  15.609 -0.2702  0.3882 -0.0789
36286DOPC   D2B43174  12.199  -0.302  15.487  0.0989  0.4814 -0.0927
36286DOPC   C3B43175  11.949  -0.281  15.115 -0.1032  0.1412  0.0658
36286DOPC   C4B43176  11.733  -0.151  14.665 -0.1309 -0.0303  0.0576
36287DOPC   NC343177  10.790   1.511  19.302 -0.1210  0.0766  0.0504
36287DOPC   PO443178  10.697   1.730  18.989 -0.0761 -0.2288 -0.0267
36287DOPC   GL143179  10.303   1.893  19.019 -0.1490 -0.1285  0.0454
36287DOPC   GL243180  10.231   1.697  18.820 -0.0749 -0.2976  0.2109
36287DOPC   C1A43181   9.992   2.166  18.966 -0.0842  0.1043  0.0015
36287DOPC   D2A43182   9.764   2.635  18.910  0.0384 -0.1886  0.0361
36287DOPC   C3A43183   9.632   2.874  18.546 -0.1047  0.1745  0.2855
36287DOPC   C4A43184   9.481   3.110  18.114 -0.1959  0.1167  0.2303
36287DOPC   C1B43185   9.832   1.608  18.873 -0.1155 -0.1409  0.1940
36287DOPC   D2B43186   9.349   1.642  18.704 -0.0349  0.0521  0.1624
36287DOPC   C3B43187   8.891   1.557  18.575  0.1705  0.0391  0.3035
36287DOPC   C4B43188   8.405   1.619  18.385 -0.1908  0.2036 -0.1730
36288DOPC   NC343189  21.553   6.648  17.827  0.0177 -0.1345 -0.0661
36288DOPC   PO443190  21.773   6.985  17.917  0.2188  0.1396  0.0748
36288DOPC   GL143191  21.958   6.803  17.638  0.0747 -0.1156 -0.1469
36288DOPC   GL243192  21.743   6.838  17.454 -0.2932 -0.2183  0.6244
36288DOPC   C1A43193  22.304   6.543  17.527  0.2707 -0.2911  0.0310
36288DOPC   D2A43194  22.675   6.221  17.413  0.2690  0.0228  0.0717
36288DOPC   C3A43195  22.910   6.598  17.199 -0.1185  0.1371 -0.1294
36288DOPC   C4A43196  22.885   7.136  17.272  0.0824  0.1009  0.2097
36288DOPC   C1B43197  21.940   6.607  17.163  0.0884 -0.1399  0.0715
36288DOPC   D2B43198  22.073   6.468  16.714  0.1676  0.1252  0.1386
36288DOPC   C3B43199  22.551   6.590  16.553  0.1599  0.2836  0.0733
36288DOPC   C4B43200  22.939   6.747  16.700  0.0299 -0.1101  0.0191
36289DOPC   NC343201   1.307   2.265  22.359 -0.0713 -0.0424 -0.0146
36289DOPC   PO443202   1.463   1.889  22.311  0.0428 -0.2334 -0.0754
36289DOPC   GL143203   1.467   1.736  21.939  0.2364  0.0164  0.2652
36289DOPC   GL243204   1.374   1.889  21.745 -0.0211 -0.0967 -0.1280
36289DOPC   C1A43205   1.756   1.431  21.699  0.1561  0.0833 -0.1627
36289DOPC   D2A43206   2.098   1.160  21.499 -0.0756 -0.1705  0.1140
36289DOPC   C3A43207   2.543   1.212  21.495  0.0995  0.0185  0.2362
36289DOPC   C4A43208   2.954   1.038  21.408  0.3498  0.1925  0.1691
36289DOPC   C1B43209   1.385   2.080  21.313  0.0596  0.1684  0.0401
36289DOPC   D2B43210   1.413   2.226  20.809 -0.0268  0.1449  0.0622
36289DOPC   C3B43211   1.695   2.226  20.410  0.1065 -0.1317  0.1743
36289DOPC   C4B43212   2.150   2.374  20.225  0.0938  0.0243 -0.1700
36290DOPC   NC343213  10.777   0.621  19.390 -0.0270 -0.1768  0.0379
36290DOPC   PO443214  10.949   0.692  19.017  0.0179  0.2844 -0.0301
36290DOPC   GL143215  10.798   0.619  18.639 -0.3258  0.4787 -0.1340
36290DOPC   GL243216  10.993   0.473  18.496  0.2037  0.0981  0.1542
36290DOPC   C1A43217  10.451   0.609  18.440 -0.1471  0.0674 -0.0409
36290DOPC   D2A43218  10.025   0.776  18.533 -0.0040 -0.0867 -0.0794
36290DOPC   C3A43219  10.052   1.193  18.425 -0.0247  0.1337 -0.1299
36290DOPC   C4A43220  10.128   1.607  18.309  0.1132 -0.1750  0.0282
36290DOPC   C1B43221  10.763   0.480  18.114 -0.1003 -0.0435  0.1751
36290DOPC   D2B43222  10.291   0.635  17.969  0.0951  0.1588  0.3584
36290DOPC   C3B43223   9.911   0.451  17.737  0.2119 -0.2355 -0.0010
36290DOPC   C4B43224   9.455   0.485  17.864 -0.1157  0.0275  0.1779
36291DOPC   NC343225  10.349   3.895  19.850 -0.0952 -0.0786 -0.0417
36291DOPC   PO443226  10.392   4.031  19.477  0.3321 -0.1646  0.0060
36291DOPC   GL143227  10.031   4.256  19.274  0.0060 -0.2132 -0.0907
36291DOPC   GL243228   9.850   4.119  19.413 -0.2492  0.2705 -0.0531
36291DOPC   C1A43229   9.893   3.963  18.973  0.2643 -0.1314  0.1071
36291DOPC   D2A43230   9.791   3.810  18.527 -0.2386 -0.1043  0.0772
36291DOPC   C3A43231   9.606   3.440  18.509  0.3758  0.2295  0.1187
36291DOPC   C4A43232   9.203   3.143  18.492 -0.4908 -0.2828  0.1025
36291DOPC   C1B43233   9.495   3.869  19.282 -0.0092  0.2584 -0.0731
36291DOPC   D2B43234   9.040   3.687  19.213 -0.0724  0.2312  0.1247
36291DOPC   C3B43235   9.012   3.328  18.986 -0.2101 -0.1553  0.1183
36291DOPC   C4B43236   8.865   2.864  18.837  0.1591 -0.1425 -0.2524
36292DOPC   NC343237  23.394   5.950  20.519 -0.2285  0.1026  0.1166
36292DOPC   PO443238  23.685   6.215  20.311  0.1138 -0.0135 -0.1350
36292DOPC   GL143239  23.970   6.154  20.035 -0.1915  0.4738 -0.3807
36292DOPC   GL243240  23.798   6.160  19.716  0.1939  0.2288  0.2143
36292DOPC   C1A43241  24.431   6.088  20.015  0.1411  0.1792  0.1705
36292DOPC   D2A43242  24.847   5.888  19.710  0.4288  0.2777  0.2138
36292DOPC   C3A43243  24.950   5.889  19.254  0.0153 -0.0225 -0.0413
36292DOPC   C4A43244  25.199   5.822  18.812  0.0547  0.0222 -0.0935
36292DOPC   C1B43245  23.986   6.099  19.282  0.3190  0.2499  0.1803
36292DOPC   D2B43246  24.223   5.954  18.922 -0.0808  0.0174  0.1336
36292DOPC   C3B43247  24.598   5.935  18.750  0.2426  0.0969  0.0976
36292DOPC   C4B43248  24.960   5.982  18.396 -0.1771  0.0740  0.1453
36293DOPC   NC343249  16.024   2.152  14.843 -0.1799 -0.3597 -0.3192
36293DOPC   PO443250  16.082   2.201  14.462  0.2288  0.0774 -0.0786
36293DOPC   GL143251  15.954   1.949  14.105 -0.0644  0.1234  0.3310
36293DOPC   GL243252  15.825   2.210  13.969 -0.1524 -0.1533  0.0641
36293DOPC   C1A43253  16.114   1.728  13.858 -0.3536  0.1233  0.2474
36293DOPC   D2A43254  15.969   1.849  13.331 -0.0061 -0.1476 -0.0867
36293DOPC   C3A43255  15.836   2.285  13.301 -0.0607 -0.3296  0.0699
36293DOPC   C4A43256  15.860   2.569  13.676 -0.1481  0.0736 -0.0162
36293DOPC   C1B43257  16.193   2.163  13.665 -0.2542  0.0569 -0.0812
36293DOPC   D2B43258  16.495   2.155  13.323  0.1364  0.0875  0.1867
36293DOPC   C3B43259  16.181   2.129  12.920 -0.0316 -0.1518  0.0327
36293DOPC   C4B43260  15.924   2.053  12.496  0.1364  0.1073  0.0472
36294DOPC   NC343261  14.368   2.735  15.281 -0.1039 -0.0536 -0.1333
36294DOPC   PO443262  14.146   2.905  15.585  0.0297 -0.2349 -0.0236
36294DOPC   GL143263  13.841   2.710  15.449  0.1046 -0.1098  0.0545
36294DOPC   GL243264  13.941   2.502  15.295  0.1276  0.4016 -0.0601
36294DOPC   C1A43265  13.411   2.764  15.488 -0.1276  0.0270 -0.1611
36294DOPC   D2A43266  12.950   2.817  15.312 -0.1395  0.3182  0.2073
36294DOPC   C3A43267  12.797   3.108  15.000 -0.0182 -0.0755  0.2236
36294DOPC   C4A43268  12.423   3.268  14.733  0.2394  0.1260 -0.0234
36294DOPC   C1B43269  13.634   2.319  15.146 -0.2822  0.1274 -0.0031
36294DOPC   D2B43270  13.215   2.463  14.964  0.0627 -0.1446  0.3496
36294DOPC   C3B43271  12.911   2.699  14.762  0.2777 -0.1091  0.2954
36294DOPC   C4B43272  12.723   3.063  14.442  0.0325  0.6275  0.0171
36295DOPC   NC343273  12.624   1.391  16.163  0.2003  0.2436 -0.2711
36295DOPC   PO443274  12.998   1.489  16.035 -0.0088  0.1413 -0.0716
36295DOPC   GL143275  12.832   1.694  15.797 -0.4077 -0.0406 -0.0293
36295DOPC   GL243276  12.980   1.973  15.851  0.4441 -0.0177  0.4670
36295DOPC   C1A43277  12.600   1.592  15.444 -0.0777  0.0664 -0.0199
36295DOPC   D2A43278  12.276   1.499  15.142 -0.0282  0.1967 -0.0026
36295DOPC   C3A43279  12.329   1.225  14.762  0.0544  0.1607  0.0620
36295DOPC   C4A43280  12.363   1.109  14.271  0.0625  0.1972 -0.1555
36295DOPC   C1B43281  12.652   2.168  15.622  0.3100 -0.0492 -0.2761
36295DOPC   D2B43282  12.652   2.370  15.168 -0.0535  0.2658 -0.0949
36295DOPC   C3B43283  12.640   2.133  14.737  0.0450 -0.1527  0.0975
36295DOPC   C4B43284  12.796   1.734  14.470  0.0307 -0.0509  0.0216
36296DOPC   NC343285   2.685   5.224  21.974 -0.2398 -0.2248 -0.0599
36296DOPC   PO443286   2.956   5.265  22.265  0.0407 -0.0558 -0.0654
36296DOPC   GL143287   3.216   5.336  21.994 -0.2059  0.3299  0.0256
36296DOPC   GL243288   3.191   5.645  21.994  0.0478  0.3087  0.0562
36296DOPC   C1A43289   3.219   5.369  21.571 -0.1412  0.1108  0.2198
36296DOPC   D2A43290   3.037   5.275  21.064 -0.1067  0.1207  0.1026
36296DOPC   C3A43291   3.302   5.285  20.695  0.1558 -0.1712  0.0122
36296DOPC   C4A43292   3.533   5.600  20.335 -0.0458  0.2370 -0.0105
36296DOPC   C1B43293   3.365   5.876  21.674  0.1663 -0.0268  0.2076
36296DOPC   D2B43294   3.670   5.951  21.249  0.1345 -0.0828 -0.3270
36296DOPC   C3B43295   3.629   5.833  20.785  0.1488  0.1535 -0.2277
36296DOPC   C4B43296   3.802   5.365  20.723  0.0911  0.1563  0.1396
36297DOPC   NC343297   9.491   7.104  20.589  0.0023  0.1477  0.2326
36297DOPC   PO443298   9.286   7.220  20.923 -0.1094  0.1101  0.0661
36297DOPC   GL143299   8.900   6.999  20.861 -0.0928 -0.0958 -0.3594
36297DOPC   GL243300   9.008   6.706  20.820 -0.5072  0.3112 -0.3359
36297DOPC   C1A43301   8.503   7.124  20.983 -0.0159  0.1230 -0.0402
36297DOPC   D2A43302   8.111   7.414  21.096 -0.1743 -0.1012  0.0480
36297DOPC   C3A43303   7.768   7.433  20.854  0.0354  0.1498  0.1151
36297DOPC   C4A43304   7.444   7.411  20.468  0.1926  0.3650 -0.0192
36297DOPC   C1B43305   8.875   6.482  20.473  0.0435 -0.0613 -0.1097
36297DOPC   D2B43306   8.421   6.465  20.246  0.0105  0.0661 -0.2187
36297DOPC   C3B43307   8.099   6.428  19.828  0.0533  0.0228 -0.0915
36297DOPC   C4B43308   8.068   6.252  19.337  0.0288 -0.0607 -0.0393
36298DOPC   NC343309  22.913   6.928  19.457 -0.2471 -0.0444  0.2538
36298DOPC   PO443310  23.245   6.985  19.676 -0.0354  0.0337  0.0558
36298DOPC   GL143311  23.624   6.791  19.507  0.0512  0.2021  0.4622
36298DOPC   GL243312  23.403   6.583  19.431  0.0407 -0.0859 -0.4287
36298DOPC   C1A43313  23.865   6.791  19.140  0.1191  0.2372 -0.0998
36298DOPC   D2A43314  24.109   6.882  18.795  0.2795  0.0597  0.0306
36298DOPC   C3A43315  23.749   6.957  18.535 -0.5332  0.1461 -0.1008
36298DOPC   C4A43316  23.944   6.996  18.123  0.4022  0.0511 -0.1461
36298DOPC   C1B43317  23.567   6.306  19.149  0.4028 -0.0469  0.1014
36298DOPC   D2B43318  23.827   6.215  18.726  0.2117  0.2216  0.1947
36298DOPC   C3B43319  23.918   6.500  18.302 -0.0042 -0.0656  0.1270
36298DOPC   C4B43320  24.225   6.580  18.032 -0.2054  0.0391 -0.0911
36299DOPC   NC343321  10.770   5.013  19.201 -0.1536  0.2725  0.0922
36299DOPC   PO443322  10.667   5.049  19.592  0.2201 -0.0980  0.4498
36299DOPC   GL143323  10.250   4.934  19.811  0.0651 -0.1812  0.2129
36299DOPC   GL243324  10.183   5.078  19.544  0.0563  0.2496  0.0055
36299DOPC   C1A43325   9.859   4.971  19.987  0.0102 -0.4310  0.4130
36299DOPC   D2A43326   9.458   5.207  20.145  0.0242  0.4070 -0.2703
36299DOPC   C3A43327   9.009   5.139  20.070  0.2307 -0.0367  0.3069
36299DOPC   C4A43328   8.618   4.942  19.671  0.1464  0.1199  0.1168
36299DOPC   C1B43329   9.786   5.055  19.469 -0.1427 -0.0239  0.1848
36299DOPC   D2B43330   9.422   5.151  19.236  0.0157  0.1672  0.3193
36299DOPC   C3B43331   8.989   5.212  19.205 -0.3220 -0.0967  0.1058
36299DOPC   C4B43332   8.570   5.304  19.235  0.3003  0.0279  0.2059
36300DOPC   NC343333  13.052   2.606  16.649  0.0358  0.2103 -0.0632
36300DOPC   PO443334  12.684   2.515  16.568  0.2203 -0.1291 -0.0584
36300DOPC   GL143335  12.473   2.641  16.240  0.1450 -0.0710 -0.1462
36300DOPC   GL243336  12.445   2.349  16.111 -0.1684 -0.0383  0.0533
36300DOPC   C1A43337  12.139   2.680  15.913 -0.2351  0.0098 -0.0152
36300DOPC   D2A43338  11.744   2.744  15.603  0.3444 -0.0795 -0.2030
36300DOPC   C3A43339  11.803   2.848  15.179  0.0858 -0.1931  0.0034
36300DOPC   C4A43340  12.028   2.883  14.745  0.0051  0.0781  0.2618
36300DOPC   C1B43341  12.133   2.159  15.816  0.0258 -0.0473  0.2392
36300DOPC   D2B43342  11.748   2.115  15.451 -0.0189  0.2130  0.3715
36300DOPC   C3B43343  11.376   2.344  15.428 -0.1014  0.1257  0.3207
36300DOPC   C4B43344  11.081   2.639  15.176  0.0299  0.2627  0.0009
36301DOPC   NC343345   2.855   2.140  22.573  0.1595  0.4490 -0.0084
36301DOPC   PO443346   2.945   1.729  22.472 -0.0243  0.3236 -0.1051
36301DOPC   GL143347   2.904   1.724  22.089 -0.2472  0.0338 -0.0169
36301DOPC   GL243348   2.960   2.078  22.110 -0.1722  0.1794  0.1290
36301DOPC   C1A43349   2.715   1.719  21.692 -0.2691 -0.2267 -0.0471
36301DOPC   D2A43350   2.552   1.956  21.254  0.0921  0.0732  0.1661
36301DOPC   C3A43351   2.568   1.886  20.799  0.2311  0.0642  0.2412
36301DOPC   C4A43352   2.678   1.736  20.374  0.0958  0.0566  0.0461
36301DOPC   C1B43353   3.185   2.375  21.976 -0.1309 -0.1705 -0.0786
36301DOPC   D2B43354   3.430   2.542  21.619 -0.0966 -0.0272 -0.0477
36301DOPC   C3B43355   3.668   2.747  21.283  0.0885  0.0779 -0.1343
36301DOPC   C4B43356   3.879   3.178  21.225  0.0314  0.0845  0.2238
36302DOPC   NC343357   6.413   7.720  22.619  0.4702  0.2755  0.0397
36302DOPC   PO443358   6.438   8.086  22.511  0.0212 -0.1524 -0.0963
36302DOPC   GL143359   6.293   8.221  22.181 -0.2691 -0.1955 -0.3693
36302DOPC   GL243360   5.986   8.275  22.149 -0.1872  0.2461 -0.0994
36302DOPC   C1A43361   6.395   8.119  21.809 -0.2459  0.0923  0.0768
36302DOPC   D2A43362   6.492   8.173  21.296 -0.2059 -0.0568 -0.1894
36302DOPC   C3A43363   6.344   8.022  20.861  0.1022 -0.0895  0.4120
36302DOPC   C4A43364   6.501   8.131  20.399 -0.2520 -0.0365  0.2717
36302DOPC   C1B43365   5.935   8.457  21.700 -0.2158 -0.1474 -0.2953
36302DOPC   D2B43366   6.145   8.605  21.279 -0.0424  0.1947  0.1480
36302DOPC   C3B43367   6.216   8.534  20.818 -0.0323  0.0288  0.3453
36302DOPC   C4B43368   6.153   8.470  20.326 -0.0862 -0.1473  0.0310
36303DOPC   NC343369   0.776   1.268  21.384  0.2807 -0.0950  0.0982
36303DOPC   PO443370   0.881   0.947  21.558  0.3526  0.2439 -0.2031
36303DOPC   GL143371   1.191   0.901  21.222 -0.0264  0.0728  0.1322
36303DOPC   GL243372   1.107   0.612  21.269  0.4775 -0.3348 -0.2235
36303DOPC   C1A43373   1.419   1.014  20.881  0.0117 -0.0165 -0.0159
36303DOPC   D2A43374   1.740   0.830  20.519 -0.0988  0.1188 -0.1682
36303DOPC   C3A43375   2.213   0.966  20.411  0.0090 -0.1859 -0.0613
36303DOPC   C4A43376   2.653   1.059  20.347  0.2060 -0.0898  0.0059
36303DOPC   C1B43377   1.207   0.446  20.892  0.0192 -0.2415  0.0759
36303DOPC   D2B43378   1.270   0.276  20.461 -0.1342  0.1355 -0.2043
36303DOPC   C3B43379   1.414   0.549  20.179 -0.0162  0.1533 -0.0164
36303DOPC   C4B43380   1.610   0.709  19.752 -0.0573  0.0308 -0.0167
36304DOPC   NC343381  15.603   6.559  14.633  0.2594 -0.0305  0.3154
36304DOPC   PO443382  15.583   6.261  14.330 -0.4315 -0.0227  0.0519
36304DOPC   GL143383  15.784   6.250  13.958  0.5113 -0.0340  0.2394
36304DOPC   GL243384  16.005   6.364  13.994  0.1277 -0.0728 -0.0970
36304DOPC   C1A43385  15.420   6.379  13.669  0.1686  0.0067  0.2116
36304DOPC   D2A43386  15.161   6.773  13.476  0.1009 -0.3353  0.0011
36304DOPC   C3A43387  15.590   6.726  13.336 -0.0709 -0.2107 -0.0813
36304DOPC   C4A43388  15.848   6.716  12.899  0.1232 -0.1413  0.1317
36304DOPC   C1B43389  16.340   6.329  13.722 -0.1427 -0.0271  0.2924
36304DOPC   D2B43390  16.495   6.500  13.269 -0.3169  0.3232 -0.0564
36304DOPC   C3B43391  16.230   6.394  12.942  0.2440 -0.0010  0.0885
36304DOPC   C4B43392  15.905   6.268  12.636  0.2448 -0.2819  0.0472
36305DOPC   NC343393  15.461   3.436  14.459 -0.1740 -0.1932 -0.0025
36305DOPC   PO443394  15.140   3.610  14.408  0.0698 -0.1321 -0.3459
36305DOPC   GL143395  15.045   3.824  14.067 -0.1946 -0.1261 -0.1902
36305DOPC   GL243396  15.023   4.114  14.224 -0.2839 -0.0941 -0.1272
36305DOPC   C1A43397  14.917   3.956  13.701 -0.2461 -0.3629 -0.1127
36305DOPC   D2A43398  14.655   4.098  13.341 -0.0550 -0.1641 -0.5193
36305DOPC   C3A43399  14.270   4.283  13.139 -0.0887 -0.0185 -0.0528
36305DOPC   C4A43400  14.210   4.677  12.950 -0.3404  0.0884  0.1354
36305DOPC   C1B43401  15.010   4.369  13.912 -0.2419  0.2863 -0.0034
36305DOPC   D2B43402  14.996   4.527  13.428  0.1888  0.1676  0.1888
36305DOPC   C3B43403  14.737   4.497  13.044 -0.1481 -0.0413  0.1221
36305DOPC   C4B43404  14.609   4.568  12.580  0.1239 -0.2701  0.2332
36306DOPC   NC343405  23.031   5.175  20.049  0.1017 -0.1279 -0.1343
36306DOPC   PO443406  23.326   5.104  19.867 -0.0816 -0.1389  0.0251
36306DOPC   GL143407  23.603   5.106  19.565  0.0642  0.3381 -0.4315
36306DOPC   GL243408  23.498   5.265  19.402  0.1464  0.0025 -0.3905
36306DOPC   C1A43409  24.013   5.105  19.395  0.2034  0.3059  0.1785
36306DOPC   D2A43410  24.450   5.092  19.190  0.0336 -0.2607  0.2025
36306DOPC   C3A43411  24.900   5.029  19.091 -0.1159 -0.0480  0.0563
36306DOPC   C4A43412  25.235   5.380  19.067  0.2613 -0.0657  0.0820
36306DOPC   C1B43413  23.732   5.227  18.998  0.1048 -0.0290 -0.0561
36306DOPC   D2B43414  23.880   5.245  18.499  0.1587  0.0232 -0.3249
36306DOPC   C3B43415  24.259   5.078  18.298 -0.3107  0.0015  0.0214
36306DOPC   C4B43416  24.725   5.187  18.108 -0.0943  0.2567  0.0717
36307DOPC   NC343417  22.205   2.554  18.936  0.0818 -0.2424 -0.2274
36307DOPC   PO443418  21.967   2.769  18.663  0.0012 -0.0830  0.1833
36307DOPC   GL143419  22.148   3.029  18.286 -0.0989 -0.1447 -0.5396
36307DOPC   GL243420  21.875   2.975  18.126 -0.0936  0.0556 -0.2539
36307DOPC   C1A43421  22.255   2.834  17.929  0.2161  0.0333  0.1628
36307DOPC   D2A43422  22.383   2.625  17.583  0.2972 -0.2472  0.0223
36307DOPC   C3A43423  22.637   2.445  17.285  0.3174  0.1861  0.0190
36307DOPC   C4A43424  22.815   2.251  16.910 -0.3223 -0.0202 -0.1442
36307DOPC   C1B43425  21.821   3.342  17.903  0.1273  0.0842 -0.2007
36307DOPC   D2B43426  21.731   3.784  17.985 -0.3709 -0.2608 -0.1410
36307DOPC   C3B43427  21.937   4.023  17.680  0.0337  0.0343 -0.1190
36307DOPC   C4B43428  22.159   4.076  17.261  0.3846 -0.1143 -0.3487
36308DOPC   NC343429   6.727   3.182  22.250  0.0516  0.0624 -0.1714
36308DOPC   PO443430   6.941   3.513  22.123  0.0015 -0.0434  0.1057
36308DOPC   GL143431   6.890   3.425  21.789 -0.1503  0.0895  0.1200
36308DOPC   GL243432   6.718   3.193  21.799  0.4512  0.0203  0.1945
36308DOPC   C1A43433   6.875   3.437  21.409  0.1266  0.0939  0.0287
36308DOPC   D2A43434   7.067   3.664  20.966 -0.0990  0.2583  0.1493
36308DOPC   C3A43435   6.873   3.969  20.715 -0.0095  0.0495  0.0034
36308DOPC   C4A43436   6.634   4.163  20.285 -0.0747  0.1551  0.0458
36308DOPC   C1B43437   6.600   2.892  21.486  0.0190 -0.1091  0.1308
36308DOPC   D2B43438   6.307   2.733  21.056 -0.0191  0.3143  0.0217
36308DOPC   C3B43439   6.586   2.698  20.713 -0.1236  0.2473  0.1306
36308DOPC   C4B43440   6.805   2.486  20.292 -0.0329 -0.3847  0.1315
36309DOPC   NC343441   9.400   0.628  20.026  0.0742 -0.3167  0.0593
36309DOPC   PO443442   9.675   0.481  20.252  0.0713 -0.0350 -0.0348
36309DOPC   GL143443   9.349   0.191  20.384 -0.4944  0.0544 -0.2128
36309DOPC   GL243444   9.356   0.093  20.149  0.0810 -0.3108  0.1154
36309DOPC   C1A43445   8.915   0.049  20.543 -0.1139 -0.2692  0.2208
36309DOPC   D2A43446   8.433  -0.021  20.554 -0.2652  0.1779 -0.3503
36309DOPC   C3A43447   8.208  -0.419  20.540 -0.1213 -0.4129  0.3787
36309DOPC   C4A43448   7.862  -0.756  20.538  0.0855 -0.0730  0.1591
36309DOPC   C1B43449   8.905   0.171  20.009 -0.0250  0.2704 -0.3380
36309DOPC   D2B43450   8.517   0.368  19.790 -0.1897 -0.0604  0.0869
36309DOPC   C3B43451   8.425   0.870  19.669 -0.0540  0.0954 -0.0998
36309DOPC   C4B43452   8.210   1.291  19.558  0.1367  0.1461 -0.3571
36310DOPC   NC343453   3.288   0.835  22.688 -0.0814  0.2045 -0.2538
36310DOPC   PO443454   3.032   1.088  22.547 -0.0261 -0.0892 -0.0939
36310DOPC   GL143455   3.134   1.035  22.145  0.3402  0.1231  0.0073
36310DOPC   GL243456   3.326   0.799  22.179  0.4385 -0.0190  0.0602
36310DOPC   C1A43457   3.059   1.280  21.782  0.1835 -0.2298 -0.0072
36310DOPC   D2A43458   3.111   1.530  21.412 -0.0125  0.0870  0.2525
36310DOPC   C3A43459   3.182   1.372  20.977  0.2568 -0.0126  0.3016
36310DOPC   C4A43460   3.027   1.325  20.534  0.2161  0.0601 -0.2554
36310DOPC   C1B43461   3.234   0.633  21.743  0.3146 -0.2554  0.3607
36310DOPC   D2B43462   3.327   0.705  21.233  0.0679  0.1208  0.0492
36310DOPC   C3B43463   3.116   0.640  20.821 -0.1348  0.0035  0.0189
36310DOPC   C4B43464   3.055   0.597  20.334  0.0983  0.1439  0.0986
36311DOPC   NC343465   4.768   0.331  22.300 -0.0293 -0.0748  0.0234
36311DOPC   PO443466   4.451   0.428  22.540 -0.1211  0.1208  0.0958
36311DOPC   GL143467   4.157   0.480  22.258  0.0724 -0.1511  0.2121
36311DOPC   GL243468   4.181   0.737  22.211  0.0774  0.1932  0.1730
36311DOPC   C1A43469   4.059   0.251  21.882 -0.2996  0.2450 -0.3093
36311DOPC   D2A43470   4.075  -0.071  21.472 -0.2621  0.0072  0.0738
36311DOPC   C3A43471   3.860  -0.115  21.027 -0.1494  0.2428 -0.1831
36311DOPC   C4A43472   3.625  -0.055  20.615 -0.0840  0.0587 -0.1326
36311DOPC   C1B43473   4.325   0.911  21.802 -0.0912 -0.3569 -0.1821
36311DOPC   D2B43474   4.218   1.031  21.293  0.0077 -0.1919  0.1410
36311DOPC   C3B43475   4.341   1.009  20.842  0.0799  0.0243 -0.1705
36311DOPC   C4B43476   4.493   1.155  20.378 -0.1493  0.0240 -0.2203
36312DOPC   NC343477  13.393   1.751  15.777 -0.2493  0.1007 -0.1316
36312DOPC   PO443478  13.479   1.392  15.855  0.0905  0.2558 -0.2033
36312DOPC   GL143479  13.143   1.276  15.528 -0.0076  0.0367 -0.0837
36312DOPC   GL243480  13.065   1.495  15.412  0.0550  0.1844  0.1870
36312DOPC   C1A43481  13.149   0.957  15.224 -0.0757  0.1868  0.2251
36312DOPC   D2A43482  12.777   1.136  14.995 -0.0852  0.0039  0.0464
36312DOPC   C3A43483  12.828   1.177  14.518  0.1410  0.0113 -0.0350
36312DOPC   C4A43484  12.796   1.303  14.068  0.0752 -0.0449  0.2012
36312DOPC   C1B43485  13.196   1.491  15.040 -0.1493  0.1089  0.0774
36312DOPC   D2B43486  13.232   1.427  14.522  0.2108  0.2566  0.1307
36312DOPC   C3B43487  13.170   1.619  14.056  0.0759  0.2297  0.1141
36312DOPC   C4B43488  13.076   1.947  13.711  0.0401 -0.0673  0.0907
36313DOPC   NC343489   8.887   4.020  21.651 -0.3525 -0.0659 -0.1928
36313DOPC   PO443490   8.618   4.277  21.424  0.0509 -0.0871 -0.1294
36313DOPC   GL143491   8.296   4.207  21.184 -0.0481  0.4990  0.3012
36313DOPC   GL243492   8.546   4.335  21.005 -0.2116  0.0088 -0.0535
36313DOPC   C1A43493   8.004   3.896  20.989  0.1074 -0.0934  0.1058
36313DOPC   D2A43494   7.678   3.836  20.611 -0.0097 -0.1433 -0.2520
36313DOPC   C3A43495   7.249   3.888  20.353 -0.0550  0.2647  0.0102
36313DOPC   C4A43496   6.978   3.980  20.020  0.3113 -0.1201  0.0352
36313DOPC   C1B43497   8.506   4.553  20.611  0.2396  0.0188 -0.1399
36313DOPC   D2B43498   8.274   4.907  20.354 -0.1026 -0.2933 -0.0396
36313DOPC   C3B43499   7.904   5.053  20.128  0.1633  0.1927  0.0065
36313DOPC   C4B43500   7.444   5.069  19.887  0.1058  0.2436 -0.2724
36314DOPC   NC343501  12.413   2.063  16.406 -0.2915 -0.2283 -0.0773
36314DOPC   PO443502  12.614   1.843  16.175  0.1788 -0.1603  0.0177
36314DOPC   GL143503  12.404   1.800  15.786  0.0851 -0.0721  0.0112
36314DOPC   GL243504  12.315   1.561  15.887  0.0286  0.2596  0.2215
36314DOPC   C1A43505  12.262   1.946  15.320  0.1884  0.0871 -0.0196
36314DOPC   D2A43506  11.881   1.786  14.940 -0.1204 -0.0315 -0.1031
36314DOPC   C3A43507  11.623   2.132  14.936 -0.1201 -0.1711 -0.0196
36314DOPC   C4A43508  11.575   2.585  14.746 -0.1103 -0.2575  0.1460
36314DOPC   C1B43509  11.927   1.674  15.614  0.1372  0.0736  0.2602
36314DOPC   D2B43510  11.523   1.713  15.298  0.0346  0.1476 -0.1149
36314DOPC   C3B43511  11.138   1.913  15.477 -0.0999 -0.0245 -0.0187
36314DOPC   C4B43512  10.727   2.079  15.676 -0.1378  0.2596  0.3557
36315DOPC   NC343513   6.497   3.991  22.628 -0.0802 -0.3255 -0.0745
36315DOPC   PO443514   6.184   4.021  22.394 -0.2295 -0.1346  0.0218
36315DOPC   GL143515   5.880   3.874  22.108  0.4363 -0.2459 -0.5270
36315DOPC   GL243516   6.084   3.727  22.022 -0.2784  0.1519 -0.1419
36315DOPC   C1A43517   5.482   3.899  21.839  0.0219  0.0243  0.1616
36315DOPC   D2A43518   5.152   4.136  21.552 -0.0632 -0.1647 -0.1894
36315DOPC   C3A43519   5.258   4.478  21.261 -0.0366 -0.1235 -0.0223
36315DOPC   C4A43520   5.664   4.619  21.039 -0.0949 -0.2120 -0.0225
36315DOPC   C1B43521   5.940   3.771  21.656  0.2776  0.1028 -0.4153
36315DOPC   D2B43522   5.866   3.562  21.313  0.0174  0.0682 -0.2139
36315DOPC   C3B43523   6.147   3.697  20.983  0.2406 -0.1338  0.1605
36315DOPC   C4B43524   6.343   3.848  20.542 -0.2810  0.2882  0.0620
36316DOPC   NC343525   1.958   3.852  22.295 -0.1043 -0.1552 -0.0848
36316DOPC   PO443526   1.655   3.670  22.166  0.1823  0.0252 -0.0244
36316DOPC   GL143527   1.676   3.412  21.795 -0.3601  0.1675 -0.0609
36316DOPC   GL243528   1.719   3.694  21.663 -0.0195 -0.3484  0.2123
36316DOPC   C1A43529   1.537   3.485  21.378 -0.0736  0.0207  0.0566
36316DOPC   D2A43530   1.506   3.602  20.905 -0.1931  0.0754 -0.0008
36316DOPC   C3A43531   1.740   3.644  20.520  0.1645 -0.1523 -0.1198
36316DOPC   C4A43532   2.058   3.624  20.134  0.0213 -0.1230  0.2729
36316DOPC   C1B43533   2.059   3.556  21.396  0.1332 -0.3150  0.0577
36316DOPC   D2B43534   2.053   3.310  20.965  0.1147 -0.0765 -0.0044
36316DOPC   C3B43535   2.163   3.228  20.527  0.0167 -0.1769 -0.1612
36316DOPC   C4B43536   2.381   2.983  20.166 -0.1006 -0.0288  0.2197
36317DOPC   NC343537  21.480   5.819  18.646  0.2093  0.0529  0.1525
36317DOPC   PO443538  21.610   6.139  18.464 -0.0492 -0.0371 -0.1389
36317DOPC   GL143539  21.836   6.272  18.069 -0.2432 -0.1965  0.3055
36317DOPC   GL243540  21.620   6.157  17.898  0.0231 -0.0781 -0.0711
36317DOPC   C1A43541  22.213   6.163  17.905  0.0100  0.1967  0.1831
36317DOPC   D2A43542  22.730   5.990  17.912  0.2138 -0.1278  0.1847
36317DOPC   C3A43543  22.865   5.691  17.695 -0.3477  0.3123  0.2509
36317DOPC   C4A43544  23.173   5.340  17.408 -0.2325 -0.2694  0.2365
36317DOPC   C1B43545  21.659   5.744  17.808 -0.3449 -0.0236 -0.0426
36317DOPC   D2B43546  21.985   5.554  17.570  0.1651 -0.1442  0.1572
36317DOPC   C3B43547  22.127   5.593  17.173 -0.2653 -0.1411 -0.0089
36317DOPC   C4B43548  22.413   5.675  16.830 -0.5720  0.2357 -0.2301
36318DOPC   NC343549  12.864   1.562  16.497 -0.3747 -0.0171 -0.3285
36318DOPC   PO443550  12.522   1.443  16.636 -0.1431 -0.1326  0.2458
36318DOPC   GL143551  12.251   1.621  16.391  0.1806  0.0086  0.0757
36318DOPC   GL243552  12.157   1.402  16.261  0.0531  0.1974  0.0516
36318DOPC   C1A43553  11.893   1.854  16.209  0.1629 -0.0597  0.0005
36318DOPC   D2A43554  11.449   1.997  16.324  0.1231  0.1615  0.0879
36318DOPC   C3A43555  11.118   2.177  16.012  0.2065  0.0144 -0.1715
36318DOPC   C4A43556  11.035   2.545  15.697  0.0289 -0.0752 -0.0104
36318DOPC   C1B43557  11.756   1.414  16.041 -0.0808 -0.0350 -0.0839
36318DOPC   D2B43558  11.342   1.206  15.827  0.2072  0.0109 -0.2200
36318DOPC   C3B43559  11.044   1.305  15.533  0.1767  0.3508  0.0758
36318DOPC   C4B43560  10.804   1.339  15.123  0.1617  0.0667 -0.2239
36319DOPC   NC343561   5.697   3.973  22.488 -0.1421 -0.0859 -0.5012
36319DOPC   PO443562   5.286   4.016  22.446 -0.0012 -0.2836 -0.4500
36319DOPC   GL143563   5.060   4.281  22.237 -0.2254 -0.0027 -0.1340
36319DOPC   GL243564   5.133   4.114  22.004  0.3732 -0.1617 -0.2618
36319DOPC   C1A43565   5.072   4.678  22.198 -0.1782  0.1966  0.2967
36319DOPC   D2A43566   4.993   5.042  21.908  0.0106 -0.4234 -0.2534
36319DOPC   C3A43567   4.496   4.969  21.830 -0.0709 -0.1810  0.2585
36319DOPC   C4A43568   4.102   4.976  21.564  0.2561  0.0064 -0.1107
36319DOPC   C1B43569   4.974   3.768  21.822  0.0656  0.3494 -0.3027
36319DOPC   D2B43570   4.716   3.475  21.508  0.0407  0.1567  0.1506
36319DOPC   C3B43571   4.990   3.290  21.139 -0.2577  0.0613 -0.0098
36319DOPC   C4B43572   5.175   3.205  20.708  0.2075 -0.1315 -0.1250
36320DOPC   NC343573   1.448   5.851  22.102  0.0333  0.0510  0.0129
36320DOPC   PO443574   1.388   5.632  21.770 -0.0340  0.0656 -0.1037
36320DOPC   GL143575   1.444   5.606  21.394 -0.1496  0.0103 -0.3382
36320DOPC   GL243576   1.383   5.877  21.270  0.0709 -0.3717 -0.0622
36320DOPC   C1A43577   1.704   5.313  21.100  0.1489 -0.0851 -0.0830
36320DOPC   D2A43578   2.131   5.086  20.906  0.2716 -0.3243 -0.0626
36320DOPC   C3A43579   2.409   5.003  20.527  0.1490 -0.1497  0.0231
36320DOPC   C4A43580   2.496   4.761  20.104  0.0766  0.1432 -0.2994
36320DOPC   C1B43581   1.695   5.927  20.986  0.2094 -0.0771  0.1383
36320DOPC   D2B43582   1.990   5.833  20.601 -0.2154 -0.0026  0.4666
36320DOPC   C3B43583   2.020   6.186  20.201  0.1933  0.1460 -0.1973
36320DOPC   C4B43584   2.178   6.443  19.763 -0.2605 -0.0294 -0.0162
36321DOPC   NC343585   5.010   6.478  22.455 -0.0934  0.1651 -0.1520
36321DOPC   PO443586   4.784   6.198  22.612 -0.0569 -0.2400  0.1832
36321DOPC   GL143587   4.673   5.977  22.260  0.1702 -0.1018 -0.0001
36321DOPC   GL243588   4.486   6.249  22.192  0.1035  0.0793  0.1196
36321DOPC   C1A43589   4.727   5.872  21.833 -0.0813  0.1187  0.0208
36321DOPC   D2A43590   4.920   5.460  21.549  0.2050 -0.1460 -0.1073
36321DOPC   C3A43591   5.128   5.605  21.096 -0.2815 -0.1855  0.0042
36321DOPC   C4A43592   5.547   5.606  20.843  0.0627  0.0087 -0.0569
36321DOPC   C1B43593   4.240   6.408  21.795 -0.1565 -0.2089 -0.0635
36321DOPC   D2B43594   4.274   6.506  21.292 -0.0123  0.0772  0.3370
36321DOPC   C3B43595   4.587   6.286  21.036 -0.0245  0.1045 -0.0221
36321DOPC   C4B43596   5.062   6.181  20.933  0.0497 -0.2810  0.0511
36322DOPA   PO443597  10.560   1.915  19.454  0.0447 -0.1327 -0.1146
36322DOPA   GL143598  10.160   1.847  19.417  0.2873  0.4609  0.0328
36322DOPA   GL243599  10.004   2.111  19.409  0.3131  0.1501 -0.1138
36322DOPA   C1A43600   9.727   1.733  19.407  0.1893  0.3376  0.0886
36322DOPA   D2A43601   9.313   1.630  19.207 -0.2109 -0.0172  0.0880
36322DOPA   C3A43602   8.856   1.595  19.093  0.0818 -0.4602  0.1504
36322DOPA   C4A43603   8.443   1.426  18.844 -0.2094  0.1719 -0.1791
36322DOPA   C1B43604   9.616   2.284  19.290  0.0014  0.0196 -0.2212
36322DOPA   D2B43605   9.159   2.113  19.108  0.1840  0.0390  0.4306
36322DOPA   C3B43606   8.809   2.399  19.078  0.1493  0.4958  0.1738
36322DOPA   C4B43607   8.392   2.681  19.000  0.0017 -0.0801  0.1637
36323DOPA   PO443608  10.536   0.159  19.541 -0.1834  0.0496  0.0704
36323DOPA   GL143609  10.546  -0.020  19.113  0.3699 -0.4147  0.3292
36323DOPA   GL243610  10.241   0.013  19.108 -0.0798 -0.2326 -0.3531
36323DOPA   C1A43611  10.506   0.178  18.742 -0.1019 -0.1212 -0.2608
36323DOPA   D2A43612  10.413   0.076  18.236  0.0682 -0.0462  0.0512
36323DOPA   C3A43613  10.095  -0.010  17.925 -0.2056 -0.0011 -0.2998
36323DOPA   C4A43614   9.904  -0.270  17.495  0.3228  0.0273  0.1482
36323DOPA   C1B43615  10.015   0.277  18.710 -0.0499 -0.1538  0.0582
36323DOPA   D2B43616   9.825   0.423  18.220 -0.0046  0.1808 -0.3820
36323DOPA   C3B43617   9.658   0.810  18.149 -0.1446  0.1183 -0.2532
36323DOPA   C4B43618   9.260   1.028  18.437 -0.1587  0.1105 -0.0462
36324DOPA   PO443619  23.049   1.831  19.767 -0.2135 -0.1371  0.0684
36324DOPA   GL143620  23.386   1.815  19.494  0.0077 -0.2583 -0.0545
36324DOPA   GL243621  23.423   2.127  19.518  0.1724  0.0331 -0.0871
36324DOPA   C1A43622  23.488   1.845  19.069 -0.1111 -0.4661  0.0049
36324DOPA   D2A43623  23.623   1.851  18.546  0.0570  0.0384 -0.0571
36324DOPA   C3A43624  23.488   1.893  18.111 -0.2395 -0.0371  0.0146
36324DOPA   C4A43625  23.378   1.825  17.647 -0.0823  0.0565 -0.1481
36324DOPA   C1B43626  23.852   2.046  19.392  0.0354  0.1219 -0.1331
36324DOPA   D2B43627  24.269   1.906  19.234 -0.1101 -0.0626 -0.0527
36324DOPA   C3B43628  24.655   2.008  19.012  0.2555  0.1773  0.2387
36324DOPA   C4B43629  25.052   2.130  18.771  0.0061  0.2196 -0.1431
36325DOPA   PO443630  14.718   0.699  14.667  0.1073 -0.0552 -0.1291
36325DOPA   GL143631  14.699   0.897  14.237 -0.0447 -0.1597  0.2308
36325DOPA   GL243632  14.864   0.602  14.130 -0.0520  0.0242 -0.4016
36325DOPA   C1A43633  14.392   1.134  13.920 -0.0747 -0.1884 -0.4326
36325DOPA   D2A43634  14.274   1.405  13.545  0.1335 -0.0371 -0.1688
36325DOPA   C3A43635  14.042   1.537  13.145  0.1714 -0.1820  0.2391
36325DOPA   C4A43636  13.827   1.650  12.784 -0.0471 -0.1599  0.4681
36325DOPA   C1B43637  14.499   0.401  13.884 -0.2095  0.0475  0.1899
36325DOPA   D2B43638  14.202   0.264  13.608 -0.1732  0.2031 -0.2234
36325DOPA   C3B43639  14.209   0.433  13.173 -0.1253 -0.0332 -0.1610
36325DOPA   C4B43640  14.250   0.654  12.720 -0.2031 -0.0225 -0.0200
36326DOPA   PO443641  20.761   6.390  17.205 -0.3488  0.0140  0.1557
36326DOPA   GL143642  20.835   6.487  16.828  0.4400 -0.3297  0.1389
36326DOPA   GL243643  21.128   6.455  16.862 -0.2555 -0.0824  0.1950
36326DOPA   C1A43644  20.871   6.367  16.359  0.0665  0.0766 -0.0571
36326DOPA   D2A43645  21.086   6.527  15.916  0.3870  0.0159 -0.2754
36326DOPA   C3A43646  21.577   6.608  16.024 -0.0988 -0.1730 -0.1482
36326DOPA   C4A43647  22.059   6.316  16.132  0.4231 -0.0130 -0.0480
36326DOPA   C1B43648  21.107   6.892  16.717 -0.2063 -0.0019 -0.0554
36326DOPA   D2B43649  21.012   7.359  16.617 -0.1447  0.2390  0.1369
36326DOPA   C3B43650  21.289   7.445  16.199  0.0115  0.2377  0.2318
36326DOPA   C4B43651  21.543   7.631  15.847 -0.2185  0.1231  0.0586
36327DOPA   PO443652   8.114   7.369  21.835 -0.0719 -0.2761  0.0264
36327DOPA   GL143653   7.967   7.174  21.540  0.2148  0.1351  0.0138
36327DOPA   GL243654   7.646   7.143  21.720  0.0802 -0.0866  0.0864
36327DOPA   C1A43655   7.775   7.038  21.088 -0.1578 -0.0323 -0.0407
36327DOPA   D2A43656   7.365   7.035  20.863 -0.0099 -0.0236  0.0267
36327DOPA   C3A43657   7.004   7.261  20.604  0.0967 -0.3318  0.0706
36327DOPA   C4A43658   7.008   7.682  20.302  0.0388 -0.0520  0.0804
36327DOPA   C1B43659   7.472   7.335  21.409  0.2340  0.1387  0.2200
36327DOPA   D2B43660   7.284   7.532  20.967 -0.0970  0.1075  0.1000
36327DOPA   C3B43661   7.057   7.829  21.259 -0.0726 -0.1136  0.2495
36327DOPA   C4B43662   6.831   8.033  21.640  0.1901  0.1553 -0.0009
36328DOPA   PO443663  16.400   0.964  14.620  0.4054 -0.1743 -0.1053
36328DOPA   GL143664  16.321   1.013  14.207 -0.1002  0.1764 -0.0055
36328DOPA   GL243665  16.314   0.700  14.143  0.0029 -0.2194  0.2235
36328DOPA   C1A43666  16.401   1.218  13.849 -0.0044 -0.2681  0.3195
36328DOPA   D2A43667  16.351   1.493  13.487  0.1872  0.1552 -0.0391
36328DOPA   C3A43668  16.506   1.720  13.111 -0.0411  0.0230 -0.0629
36328DOPA   C4A43669  16.758   2.075  12.810 -0.0396  0.6561  0.3530
36328DOPA   C1B43670  16.698   0.434  13.964 -0.0945 -0.0898  0.1959
36328DOPA   D2B43671  16.968   0.173  13.688 -0.0927 -0.0079 -0.1278
36328DOPA   C3B43672  17.378   0.007  13.473  0.0811  0.0617  0.0474
36328DOPA   C4B43673  17.796   0.219  13.553  0.2086  0.1055  0.0966
36329DOPA   PO443674   0.329   4.266  21.113 -0.0353 -0.0212 -0.0954
36329DOPA   GL143675   0.694   4.206  20.907 -0.1054  0.4607  0.0634
36329DOPA   GL243676   0.766   4.501  20.953 -0.0248 -0.1968  0.4329
36329DOPA   C1A43677   0.583   4.008  20.511  0.0268 -0.1123  0.0541
36329DOPA   D2A43678   0.664   3.836  20.081 -0.3114 -0.1026 -0.2554
36329DOPA   C3A43679   1.025   3.816  19.741  0.2379 -0.1491  0.0503
36329DOPA   C4A43680   1.341   3.748  19.376  0.1809  0.0126  0.0167
36329DOPA   C1B43681   1.145   4.611  20.779 -0.5413 -0.1671 -0.3791
36329DOPA   D2B43682   1.487   4.481  20.477  0.2089  0.0630 -0.4978
36329DOPA   C3B43683   1.520   4.059  20.232 -0.1307  0.1804  0.0326
36329DOPA   C4B43684   1.598   3.683  19.865  0.2237  0.3235 -0.1605
36330DOPA   PO443685  14.296   2.287  15.042 -0.0102  0.0268 -0.3025
36330DOPA   GL143686  13.945   2.209  14.795  0.0043  0.6684 -0.0929
36330DOPA   GL243687  14.057   2.209  14.630 -0.0153 -0.1424  0.0713
36330DOPA   C1A43688  13.586   2.348  14.593 -0.0499  0.1114  0.1536
36330DOPA   D2A43689  13.131   2.527  14.399 -0.0711  0.0545  0.0324
36330DOPA   C3A43690  12.718   2.511  14.325 -0.2086  0.0622  0.0507
36330DOPA   C4A43691  12.414   2.191  14.219  0.2599  0.1415 -0.1674
36330DOPA   C1B43692  13.964   2.530  14.365 -0.3598  0.3112 -0.0454
36330DOPA   D2B43693  13.983   2.848  13.985 -0.0250  0.3353 -0.2545
36330DOPA   C3B43694  13.906   3.026  13.595 -0.1219 -0.2634  0.0481
36330DOPA   C4B43695  13.505   3.152  13.346  0.1859  0.0315 -0.0554
36331DOPA   PO443696  18.115   5.552  15.018 -0.0110  0.2440  0.1192
36331DOPA   GL143697  18.353   5.427  14.726 -0.3639 -0.2062  0.0278
36331DOPA   GL243698  18.585   5.553  14.945  0.4328 -0.2085  0.4822
36331DOPA   C1A43699  18.493   5.492  14.317 -0.1094  0.1823  0.1960
36331DOPA   D2A43700  18.829   5.519  13.909  0.0277  0.0639 -0.3691
36331DOPA   C3A43701  19.186   5.257  13.842 -0.1276  0.1208  0.0335
36331DOPA   C4A43702  19.433   4.886  13.987  0.3421  0.1454 -0.1277
36331DOPA   C1B43703  18.815   5.736  14.601  0.0412  0.1271  0.0979
36331DOPA   D2B43704  18.812   5.953  14.186 -0.1836 -0.0068 -0.0379
36331DOPA   C3B43705  18.812   6.009  13.714 -0.0700 -0.1068 -0.0031
36331DOPA   C4B43706  18.943   6.111  13.298 -0.1274  0.0695  0.2022
36332DOPA   PO443707  12.211   6.946  17.301  0.0976 -0.1026 -0.0830
36332DOPA   GL143708  11.945   6.717  17.066  0.1750  0.2749  0.0572
36332DOPA   GL243709  11.802   6.976  16.986 -0.2803 -0.3452 -0.1153
36332DOPA   C1A43710  11.720   6.393  17.187  0.0671  0.3026  0.0561
36332DOPA   D2A43711  11.237   6.157  17.202 -0.1252 -0.1694  0.1720
36332DOPA   C3A43712  11.026   5.751  17.228 -0.1138 -0.1500  0.0276
36332DOPA   C4A43713  10.684   5.455  17.116  0.1586 -0.1173 -0.0174
36332DOPA   C1B43714  11.479   6.704  16.857  0.2739 -0.0578  0.1813
36332DOPA   D2B43715  11.081   6.444  16.814  0.2864 -0.1624  0.0395
36332DOPA   C3B43716  10.686   6.613  16.524  0.0740  0.2251 -0.3931
36332DOPA   C4B43717  10.200   6.800  16.461 -0.0058 -0.2302 -0.0093
36333DOPA   PO443718  10.557   2.757  19.214 -0.0432  0.2498  0.0820
36333DOPA   GL143719  10.274   2.790  19.013 -0.1928 -0.4507  0.0886
36333DOPA   GL243720  10.261   2.515  18.838  0.2318 -0.1880 -0.2013
36333DOPA   C1A43721   9.943   2.998  19.253  0.0130  0.0603 -0.2765
36333DOPA   D2A43722   9.586   2.747  19.539 -0.2833 -0.0108 -0.2502
36333DOPA   C3A43723   9.391   2.977  19.832  0.2224 -0.1928  0.2187
36333DOPA   C4A43724   9.528   3.179  20.241  0.0610 -0.2400  0.2252
36333DOPA   C1B43725  10.049   2.552  18.439  0.0016 -0.2337  0.0378
36333DOPA   D2B43726   9.656   2.464  18.180 -0.2908  0.2467  0.1669
36333DOPA   C3B43727   9.343   2.221  17.912 -0.0314 -0.0071  0.1835
36333DOPA   C4B43728   9.152   1.841  17.831  0.0752  0.0935  0.1559
36334DOPA   PO443729   3.117   2.928  22.621 -0.2194 -0.0410  0.0288
36334DOPA   GL143730   3.195   2.944  22.248 -0.0260  0.1922 -0.3035
36334DOPA   GL243731   2.978   2.757  22.162 -0.0648 -0.0048 -0.1512
36334DOPA   C1A43732   3.597   2.940  21.949 -0.1035 -0.0686  0.1237
36334DOPA   D2A43733   4.088   3.082  21.726 -0.0228 -0.3309  0.1347
36334DOPA   C3A43734   4.210   3.450  21.468  0.0434 -0.2058 -0.1643
36334DOPA   C4A43735   4.420   3.797  21.174 -0.0312 -0.0747 -0.3491
36334DOPA   C1B43736   3.045   2.870  21.729 -0.1758  0.0257  0.1734
36334DOPA   D2B43737   3.028   2.876  21.222 -0.1876 -0.0975 -0.0893
36334DOPA   C3B43738   3.119   2.745  20.755 -0.0375  0.1658 -0.1767
36334DOPA   C4B43739   2.963   2.704  20.279 -0.0978  0.3430  0.0201
36335DOPA   PO443740  11.084   5.291  18.903  0.0859  0.0324  0.3680
36335DOPA   GL143741  11.033   5.332  18.407  0.1803  0.0538  0.4520
36335DOPA   GL243742  10.884   5.167  18.552 -0.1600  0.1956  0.0519
36335DOPA   C1A43743  10.819   5.563  18.182 -0.3383  0.1394  0.0108
36335DOPA   D2A43744  10.398   5.684  18.072  0.2270  0.0193 -0.0069
36335DOPA   C3A43745  10.059   5.573  17.764  0.1545 -0.0351 -0.0829
36335DOPA   C4A43746   9.668   5.491  17.459 -0.0861  0.0487 -0.0921
36335DOPA   C1B43747  10.595   4.922  18.213  0.2059 -0.0507  0.0769
36335DOPA   D2B43748  10.243   4.725  17.905 -0.4148 -0.0140  0.0693
36335DOPA   C3B43749   9.963   4.738  17.558  0.2427  0.1631  0.4710
36335DOPA   C4B43750   9.523   4.721  17.273 -0.3061 -0.1485 -0.0403
36336DOPA   PO443751  19.005   1.218  16.337 -0.4082 -0.2361 -0.1238
36336DOPA   GL143752  19.324   1.168  16.146  0.2692 -0.0425 -0.3505
36336DOPA   GL243753  19.402   1.070  15.887  0.2612 -0.0257  0.1439
36336DOPA   C1A43754  19.707   1.371  16.105  0.1206  0.2810 -0.1467
36336DOPA   D2A43755  20.159   1.662  16.175  0.1453  0.0549 -0.2737
36336DOPA   C3A43756  20.531   1.423  16.166  0.1309  0.0056  0.0705
36336DOPA   C4A43757  20.921   1.279  16.129  0.1435 -0.0542 -0.0521
36336DOPA   C1B43758  19.701   1.148  15.580 -0.1056  0.0858 -0.3688
36336DOPA   D2B43759  20.012   1.226  15.281 -0.0568  0.4574 -0.0917
36336DOPA   C3B43760  20.357   0.916  15.175 -0.2678 -0.2011  0.1904
36336DOPA   C4B43761  20.369   0.413  15.257 -0.0869 -0.0869 -0.1970
36337DOPA   PO443762  22.976   6.047  19.838  0.0849 -0.2422  0.0915
36337DOPA   GL143763  23.116   6.042  19.436  0.2766 -0.0923  0.0627
36337DOPA   GL243764  23.329   6.181  19.546  0.1630  0.2988  0.3089
36337DOPA   C1A43765  23.224   5.983  18.980 -0.2309  0.1547 -0.0955
36337DOPA   D2A43766  23.380   5.963  18.565 -0.1071  0.2229  0.0709
36337DOPA   C3A43767  23.632   6.084  18.142 -0.2924 -0.1938  0.0712
36337DOPA   C4A43768  23.821   6.343  17.742 -0.0382 -0.2597 -0.0849
36337DOPA   C1B43769  23.605   5.848  19.409  0.3016 -0.0301 -0.2093
36337DOPA   D2B43770  24.004   5.571  19.308  0.0354  0.4244  0.1792
36337DOPA   C3B43771  24.195   5.459  18.908 -0.3742 -0.0901 -0.0913
36337DOPA   C4B43772  24.413   5.518  18.487  0.0028 -0.0979 -0.0580
36338DOPA   PO443773   0.200   6.461  21.280 -0.0459  0.1370 -0.3704
36338DOPA   GL143774   0.236   6.371  20.850  0.0062  0.3886 -0.3701
36338DOPA   GL243775   0.319   6.650  20.800  0.0720 -0.1422  0.3036
36338DOPA   C1A43776   0.247   5.995  20.551 -0.0331 -0.2845  0.3651
36338DOPA   D2A43777  -0.033   5.708  20.247 -0.0860  0.0540  0.0956
36338DOPA   C3A43778   0.329   5.569  19.925 -0.0445  0.0418 -0.1720
36338DOPA   C4A43779   0.701   5.418  19.585 -0.0708  0.0616  0.0456
36338DOPA   C1B43780   0.713   6.878  20.749  0.0244  0.2624  0.2627
36338DOPA   D2B43781   0.889   7.108  20.344 -0.2338  0.1163 -0.3202
36338DOPA   C3B43782   1.143   7.276  20.052  0.1489 -0.0826  0.2865
36338DOPA   C4B43783   1.506   7.387  19.765 -0.1792 -0.0080  0.0177
36339DOPA   PO443784  22.185   4.790  19.281  0.0637 -0.1221  0.1429
36339DOPA   GL143785  22.408   4.841  18.927 -0.2736 -0.0250  0.1849
36339DOPA   GL243786  22.248   4.904  18.751  0.0118  0.0025  0.6696
36339DOPA   C1A43787  22.853   4.756  18.892 -0.1898  0.0000  0.2107
36339DOPA   D2A43788  23.222   4.547  19.003 -0.0821  0.1287  0.2024
36339DOPA   C3A43789  23.188   4.591  18.551  0.2260  0.0197 -0.1678
36339DOPA   C4A43790  23.403   4.691  18.127  0.3120  0.0589 -0.0866
36339DOPA   C1B43791  22.513   4.643  18.443  0.4593 -0.2658  0.0742
36339DOPA   D2B43792  22.842   4.362  18.166 -0.1537  0.1201  0.1011
36339DOPA   C3B43793  23.262   4.149  18.220  0.2032  0.1452  0.2354
36339DOPA   C4B43794  23.720   3.990  18.173  0.0318  0.0352 -0.0905
36340DOPA   PO443795  19.329   7.728  16.122  0.0576 -0.1183 -0.3678
36340DOPA   GL143796  19.661   7.800  15.907 -0.0255  0.0161  0.0657
36340DOPA   GL243797  19.543   7.593  15.716 -0.1122 -0.3484 -0.1948
36340DOPA   C1A43798  19.852   8.208  15.725  0.0750  0.1709 -0.0171
36340DOPA   D2A43799  19.844   8.457  15.316  0.0218 -0.0242  0.0937
36340DOPA   C3A43800  19.925   8.204  14.997  0.0784 -0.1607  0.0267
36340DOPA   C4A43801  20.008   7.867  14.679  0.2070  0.0781  0.3582
36340DOPA   C1B43802  19.613   7.341  15.373  0.1430  0.4406  0.0222
36340DOPA   D2B43803  19.891   7.284  14.938 -0.0390  0.1116 -0.0041
36340DOPA   C3B43804  19.849   7.035  14.495  0.0098  0.0839 -0.0694
36340DOPA   C4B43805  19.507   7.241  14.199 -0.3548 -0.0345 -0.0680
36341DOPA   PO443806   0.760   5.009  21.623 -0.2256  0.1277 -0.3603
36341DOPA   GL143807   0.833   5.058  21.235  0.2817  0.1585 -0.2359
36341DOPA   GL243808   0.517   5.117  21.226 -0.0627  0.0410 -0.4207
36341DOPA   C1A43809   1.154   5.143  21.026  0.1835  0.1318 -0.0820
36341DOPA   D2A43810   1.541   5.122  20.704  0.3832  0.2311 -0.0307
36341DOPA   C3A43811   1.897   5.387  20.516  0.0616  0.0080 -0.1336
36341DOPA   C4A43812   2.387   5.521  20.479 -0.2345  0.0348  0.1215
36341DOPA   C1B43813   0.545   4.928  20.811  0.2870  0.0113  0.0073
36341DOPA   D2B43814   0.719   4.511  20.500 -0.0129  0.0252  0.0428
36341DOPA   C3B43815   1.080   4.188  20.555  0.1029 -0.3649 -0.0649
36341DOPA   C4B43816   1.216   3.690  20.496 -0.1340  0.0732  0.0781
36342DOPA   PO443817  19.783   6.396  16.618  0.1455 -0.2650 -0.2767
36342DOPA   GL143818  19.961   6.570  16.188  0.2759 -0.0047 -0.2749
36342DOPA   GL243819  20.090   6.742  16.286 -0.0780  0.3245 -0.0013
36342DOPA   C1A43820  20.127   6.389  15.748  0.1407 -0.1235 -0.1454
36342DOPA   D2A43821  20.420   6.300  15.378 -0.0141  0.1302  0.1024
36342DOPA   C3A43822  20.549   6.495  14.979 -0.1733 -0.3502  0.0705
36342DOPA   C4A43823  20.770   6.746  14.607 -0.0648 -0.1173 -0.1214
36342DOPA   C1B43824  20.205   7.014  15.978  0.0712 -0.0263  0.0327
36342DOPA   D2B43825  20.358   7.347  15.635 -0.2975 -0.0907 -0.0862
36342DOPA   C3B43826  20.472   7.257  15.189 -0.2171 -0.1730 -0.0599
36342DOPA   C4B43827  20.825   7.290  14.810  0.0643  0.2167  0.1993
36343DOPA   PO443828  13.460   3.725  15.807  0.0077  0.0092  0.2650
36343DOPA   GL143829  13.211   3.615  15.656 -0.5415  0.3632  0.0474
36343DOPA   GL243830  12.987   3.738  15.549 -0.1777 -0.1395  0.0275
36343DOPA   C1A43831  13.195   3.301  15.356  0.0966 -0.3322  0.0922
36343DOPA   D2A43832  13.315   3.012  15.004  0.0057 -0.1041  0.0964
36343DOPA   C3A43833  13.293   3.028  14.523 -0.4845 -0.1564  0.2896
36343DOPA   C4A43834  13.028   2.909  14.094 -0.0540 -0.1575 -0.0116
36343DOPA   C1B43835  12.834   3.612  15.160  0.2180 -0.1253 -0.2507
36343DOPA   D2B43836  13.153   3.501  14.852  0.0720 -0.1158  0.1412
36343DOPA   C3B43837  12.782   3.709  14.626 -0.1233  0.2708  0.0124
36343DOPA   C4B43838  12.584   4.079  14.361  0.1156 -0.2429 -0.5805
36344DOPA   PO443839   0.917   5.940  21.667 -0.0389  0.2082  0.0364
36344DOPA   GL143840   0.993   5.905  21.198 -0.1630 -0.4117  0.0685
36344DOPA   GL243841   1.083   6.201  21.258 -0.3033 -0.0550  0.1944
36344DOPA   C1A43842   1.244   5.616  20.893 -0.0049 -0.0415 -0.0036
36344DOPA   D2A43843   1.302   5.469  20.422 -0.2307 -0.1559 -0.1096
36344DOPA   C3A43844   1.654   5.499  20.061 -0.3108  0.1316  0.1657
36344DOPA   C4A43845   1.930   5.363  19.669 -0.0090  0.1256  0.1074
36344DOPA   C1B43846   1.224   6.180  20.822 -0.1879  0.0920 -0.2230
36344DOPA   D2B43847   1.489   5.943  20.540 -0.3444 -0.3581  0.1498
36344DOPA   C3B43848   1.437   6.055  20.078  0.2594  0.0771 -0.0332
36344DOPA   C4B43849   1.107   6.348  19.877 -0.2119 -0.3661  0.0236
36345DOPA   PO443850   3.778   2.264  22.377  0.0856 -0.0430  0.4054
36345DOPA   GL143851   3.715   2.371  21.971  0.1659 -0.0336  0.0399
36345DOPA   GL243852   3.583   2.147  21.872  0.0557  0.1956 -0.1549
36345DOPA   C1A43853   3.987   2.508  21.595  0.2354 -0.1851 -0.0075
36345DOPA   D2A43854   4.334   2.625  21.267 -0.0352  0.1753 -0.0942
36345DOPA   C3A43855   4.590   2.439  20.903 -0.0995 -0.2986 -0.3424
36345DOPA   C4A43856   5.017   2.415  20.683 -0.2084  0.3141 -0.0233
36345DOPA   C1B43857   3.645   2.124  21.368  0.1014  0.1497  0.1377
36345DOPA   D2B43858   3.547   2.078  20.915  0.0559 -0.0669  0.0474
36345DOPA   C3B43859   3.747   2.224  20.513  0.3824  0.1246  0.1541
36345DOPA   C4B43860   3.933   2.389  20.099  0.0097  0.0826 -0.4843
36346DOPA   PO443861  10.952   4.641  18.997  0.2662 -0.1396 -0.0429
36346DOPA   GL143862  10.521   4.693  18.849 -0.3016  0.0453  0.1308
36346DOPA   GL243863  10.550   4.871  18.686 -0.1615 -0.1374  0.0719
36346DOPA   C1A43864  10.122   4.715  19.022  0.1508 -0.2604 -0.1722
36346DOPA   D2A43865   9.716   4.498  19.117  0.1640 -0.1985 -0.0837
36346DOPA   C3A43866   9.370   4.306  18.811 -0.3924 -0.1683  0.3829
36346DOPA   C4A43867   9.211   4.103  18.402 -0.1208  0.1220 -0.2131
36346DOPA   C1B43868  10.084   4.976  18.560 -0.2730 -0.0032 -0.3563
36346DOPA   D2B43869   9.659   4.762  18.700  0.1925  0.0337  0.0728
36346DOPA   C3B43870   9.205   5.005  18.662  0.0058  0.0465 -0.0527
36346DOPA   C4B43871   8.705   4.960  18.697  0.0353 -0.0616  0.1627
36347DOPC   NC343872   7.528   1.260  16.799  0.2693 -0.1944 -0.0760
36347DOPC   PO443873   7.630   0.922  16.601 -0.0181 -0.3584  0.0680
36347DOPC   GL143874   8.023   0.769  16.893  0.1832 -0.2142  0.2081
36347DOPC   GL243875   7.847   1.031  17.066  0.0143 -0.2704  0.0335
36347DOPC   C1A43876   8.452   0.834  16.733 -0.2428 -0.2611 -0.0643
36347DOPC   D2A43877   8.993   0.922  16.626 -0.1170  0.0713  0.1145
36347DOPC   C3A43878   9.214   0.736  17.013 -0.2621  0.2998 -0.1910
36347DOPC   C4A43879   9.267   0.399  17.367  0.2023  0.2027  0.0784
36347DOPC   C1B43880   8.228   1.199  17.132 -0.0023  0.1477 -0.0299
36347DOPC   D2B43881   8.534   1.471  17.477 -0.3640  0.2514 -0.0368
36347DOPC   C3B43882   8.927   1.449  17.644  0.2083  0.1401  0.0389
36347DOPC   C4B43883   9.454   1.435  17.684 -0.0272 -0.1818  0.2738
36348DOPC   NC343884  13.815   3.143  10.167  0.2571 -0.0870  0.0310
36348DOPC   PO443885  14.106   3.255  10.418 -0.0482 -0.0936  0.0240
36348DOPC   GL143886  14.129   3.416  10.771 -0.2358  0.2937 -0.1543
36348DOPC   GL243887  13.981   3.271  10.941 -0.1541 -0.1243 -0.0847
36348DOPC   C1A43888  14.518   3.583  10.860 -0.0382  0.0424  0.1559
36348DOPC   D2A43889  14.908   3.684  11.216  0.2273  0.1951  0.2125
36348DOPC   C3A43890  15.345   3.500  11.384  0.0595 -0.1219  0.0591
36348DOPC   C4A43891  15.429   3.265  11.782 -0.0120  0.2059  0.1458
36348DOPC   C1B43892  14.224   3.355  11.236 -0.1280  0.1986  0.2114
36348DOPC   D2B43893  14.435   3.405  11.691  0.0436  0.0887  0.1419
36348DOPC   C3B43894  14.441   3.519  12.147 -0.1007  0.3864 -0.1620
36348DOPC   C4B43895  14.427   3.640  12.569  0.0546  0.1168  0.2101
36349DOPC   NC343896  16.214   2.273  10.303  0.1537  0.0987 -0.0416
36349DOPC   PO443897  15.868   2.152  10.390  0.0902  0.2122  0.0791
36349DOPC   GL143898  15.795   1.981  10.729  0.0691  0.1813  0.3276
36349DOPC   GL243899  15.568   2.150  10.860  0.0324  0.1267 -0.0533
36349DOPC   C1A43900  16.040   1.828  11.024 -0.1744 -0.2603 -0.3397
36349DOPC   D2A43901  16.434   1.652  11.260 -0.1433 -0.1813  0.1855
36349DOPC   C3A43902  16.457   1.726  11.714  0.1644 -0.0905  0.1311
36349DOPC   C4A43903  16.515   1.604  12.160 -0.1172  0.4342 -0.2090
36349DOPC   C1B43904  15.783   2.309  11.177 -0.3204  0.1357  0.0352
36349DOPC   D2B43905  16.112   2.593  11.386  0.0439 -0.1096  0.2211
36349DOPC   C3B43906  16.162   2.582  11.814 -0.1236 -0.1480 -0.4322
36349DOPC   C4B43907  16.057   2.581  12.312 -0.0113  0.4216  0.1040
36350DOPC   NC343908   7.579   7.399  16.665  0.2653 -0.2550  0.0002
36350DOPC   PO443909   7.486   7.389  17.088 -0.3565  0.1168 -0.0977
36350DOPC   GL143910   7.769   7.552  17.292  0.0369  0.3134 -0.2230
36350DOPC   GL243911   7.708   7.713  17.506 -0.2492  0.0203 -0.2121
36350DOPC   C1A43912   8.158   7.530  17.435 -0.0269 -0.1734  0.3185
36350DOPC   D2A43913   8.615   7.517  17.301 -0.1759 -0.0850 -0.3037
36350DOPC   C3A43914   8.850   7.958  17.360 -0.0205 -0.0624 -0.0756
36350DOPC   C4A43915   9.237   7.800  17.706  0.1451  0.1421  0.0922
36350DOPC   C1B43916   7.966   7.824  17.883 -0.1292  0.3529  0.4028
36350DOPC   D2B43917   8.347   7.823  18.148 -0.3197 -0.2090  0.0121
36350DOPC   C3B43918   8.303   8.060  18.555  0.0091  0.0990  0.0369
36350DOPC   C4B43919   8.495   8.429  18.788 -0.0030  0.1978  0.2088
36351DOPC   NC343920   1.381   7.589  16.548 -0.2436 -0.3089  0.0091
36351DOPC   PO443921   1.087   7.486  16.354  0.0427 -0.0095 -0.0437
36351DOPC   GL143922   0.805   7.368  16.715  0.2845  0.1543  0.1319
36351DOPC   GL243923   1.066   7.416  16.906  0.0960  0.0962  0.1538
36351DOPC   C1A43924   0.369   7.253  16.843 -0.1824  0.2049 -0.1291
36351DOPC   D2A43925   0.117   6.979  17.250 -0.1474 -0.0970  0.1102
36351DOPC   C3A43926   0.134   7.242  17.615  0.0183 -0.0632 -0.2791
36351DOPC   C4A43927   0.242   7.422  18.097  0.0439  0.2002  0.1770
36351DOPC   C1B43928   1.224   7.405  17.374 -0.0373 -0.0674 -0.0712
36351DOPC   D2B43929   1.425   7.137  17.773  0.0272 -0.1353 -0.0881
36351DOPC   C3B43930   1.061   7.004  18.060 -0.1546  0.1384 -0.0370
36351DOPC   C4B43931   0.889   7.001  18.528  0.1824 -0.3688 -0.1635
36352DOPC   NC343932   1.797   5.508  17.117  0.0612 -0.2738 -0.1835
36352DOPC   PO443933   1.826   5.163  17.378  0.0984 -0.2324 -0.0176
36352DOPC   GL143934   1.636   5.053  17.747 -0.1863  0.0714 -0.2304
36352DOPC   GL243935   1.692   5.402  17.717 -0.1195  0.2324 -0.5642
36352DOPC   C1A43936   1.313   4.972  17.951  0.0757  0.0898  0.1487
36352DOPC   D2A43937   1.116   4.719  18.363  0.0566  0.0300 -0.0527
36352DOPC   C3A43938   0.672   4.749  18.513  0.0428 -0.0400 -0.0468
36352DOPC   C4A43939   0.155   4.678  18.634  0.0872  0.2189 -0.0633
36352DOPC   C1B43940   1.405   5.768  17.887 -0.0436 -0.1858 -0.1014
36352DOPC   D2B43941   1.217   6.170  18.089  0.0409 -0.2468  0.2046
36352DOPC   C3B43942   0.795   6.087  18.144  0.1846 -0.0653  0.0018
36352DOPC   C4B43943   0.426   5.802  18.262  0.2222  0.3060  0.3484
36353DOPC   NC343944  19.324   1.191  11.097  0.2311  0.0949  0.0206
36353DOPC   PO443945  19.580   0.875  11.202 -0.0277  0.0235  0.2298
36353DOPC   GL143946  19.542   0.759  11.546  0.1840  0.0712  0.0949
36353DOPC   GL243947  19.647   0.444  11.587  0.0477 -0.1309  0.1728
36353DOPC   C1A43948  19.511   0.867  11.966  0.3257 -0.0805 -0.3450
36353DOPC   D2A43949  19.358   1.122  12.425 -0.1036  0.0555  0.1880
36353DOPC   C3A43950  19.264   0.873  12.801  0.1997  0.0266  0.1566
36353DOPC   C4A43951  19.131   0.796  13.289  0.2245  0.1835 -0.1054
36353DOPC   C1B43952  19.441   0.331  12.005 -0.1258  0.0760  0.0039
36353DOPC   D2B43953  19.421   0.347  12.534 -0.0036  0.0467 -0.3823
36353DOPC   C3B43954  19.400   0.431  13.013 -0.3304  0.2535  0.1755
36353DOPC   C4B43955  19.552   0.356  13.422 -0.0827  0.1383 -0.2339
36354DOPC   NC343956   8.986   6.363  14.920 -0.2036  0.0076  0.0642
36354DOPC   PO443957   9.153   6.105  14.756 -0.1099  0.2646  0.1739
36354DOPC   GL143958   9.433   6.047  15.014  0.2067 -0.1119 -0.1464
36354DOPC   GL243959   9.674   6.170  14.961 -0.1147 -0.0838  0.6036
36354DOPC   C1A43960   9.665   5.816  15.224 -0.1728  0.2367 -0.1541
36354DOPC   D2A43961   9.838   5.393  15.574 -0.1139  0.0586  0.2236
36354DOPC   C3A43962   9.945   5.449  15.999 -0.1714 -0.0055  0.0107
36354DOPC   C4A43963  10.209   5.325  16.361  0.0506  0.0856 -0.0787
36354DOPC   C1B43964   9.948   6.226  15.307 -0.0900  0.2894 -0.0443
36354DOPC   D2B43965  10.357   6.104  15.668  0.0249  0.1302  0.1267
36354DOPC   C3B43966  10.464   6.245  16.077  0.1132 -0.2912  0.0313
36354DOPC   C4B43967  10.695   6.139  16.524  0.1176  0.1240 -0.0527
36355DOPC   NC343968  20.510   0.713  11.506 -0.0521  0.1966  0.1071
36355DOPC   PO443969  20.539   1.106  11.604 -0.0492 -0.0893 -0.2207
36355DOPC   GL143970  20.279   1.333  11.894 -0.1115  0.1774 -0.1294
36355DOPC   GL243971  20.534   1.399  12.004  0.0439  0.3785  0.0240
36355DOPC   C1A43972  20.239   1.768  12.100  0.1769  0.1292  0.1492
36355DOPC   D2A43973  19.903   1.966  12.384 -0.0035 -0.1393  0.1850
36355DOPC   C3A43974  19.631   2.111  12.742 -0.0647  0.1557 -0.0940
36355DOPC   C4A43975  19.326   2.199  13.152 -0.1914  0.0937 -0.1896
36355DOPC   C1B43976  20.395   1.255  12.407  0.2982 -0.1039  0.0539
36355DOPC   D2B43977  19.983   1.195  12.770  0.0977  0.2090 -0.1438
36355DOPC   C3B43978  19.561   1.250  12.863 -0.0080 -0.3276 -0.2780
36355DOPC   C4B43979  19.088   1.309  13.025 -0.0205 -0.0836  0.2617
36356DOPC   NC343980   7.694   5.018  16.930  0.3119 -0.0154 -0.1785
36356DOPC   PO443981   7.723   4.701  16.715 -0.1227  0.1251  0.1760
36356DOPC   GL143982   8.035   4.767  16.518  0.1011  0.1419  0.2312
36356DOPC   GL243983   8.084   4.868  16.800 -0.0505 -0.1510 -0.3397
36356DOPC   C1A43984   8.379   4.559  16.550 -0.0107 -0.0497  0.0278
36356DOPC   D2A43985   8.755   4.477  16.869  0.1034 -0.1957  0.2610
36356DOPC   C3A43986   9.132   4.765  16.981 -0.1235  0.0224  0.1145
36356DOPC   C4A43987   9.353   5.191  17.168 -0.2232 -0.0259  0.0790
36356DOPC   C1B43988   8.291   4.651  17.091  0.0849  0.0722 -0.2340
36356DOPC   D2B43989   8.485   4.411  17.450  0.3507  0.1781  0.0215
36356DOPC   C3B43990   8.763   4.685  17.766  0.0397  0.0020  0.2670
36356DOPC   C4B43991   9.232   4.846  17.686  0.1801 -0.0207 -0.1654
36357DOPC   NC343992   9.759   1.937  13.682 -0.4595 -0.0182  0.2958
36357DOPC   PO443993   9.531   2.266  13.636 -0.2460  0.2600  0.0600
36357DOPC   GL143994   9.594   2.634  13.774  0.2880  0.0205 -0.4216
36357DOPC   GL243995   9.573   2.474  14.037  0.2700 -0.0567 -0.1614
36357DOPC   C1A43996   9.956   2.791  13.892 -0.0603 -0.3884  0.0949
36357DOPC   D2A43997  10.345   3.105  14.100  0.0640  0.0230  0.1415
36357DOPC   C3A43998  10.609   3.064  14.497 -0.2547 -0.3200  0.0262
36357DOPC   C4A43999  10.829   3.142  14.928  0.0614  0.0861 -0.0270
36357DOPC   C1B44000   9.807   2.574  14.320 -0.0577  0.0609  0.1210
36357DOPC   D2B44001   9.959   2.634  14.733 -0.1596  0.1113  0.1354
36357DOPC   C3B44002  10.310   2.438  14.902 -0.1756  0.0653  0.0900
36357DOPC   C4B44003  10.704   2.319  15.222  0.1813  0.0170 -0.4829
36358DOPC   NC344004  24.697   3.171  15.644  0.2854  0.0664 -0.0707
36358DOPC   PO444005  24.951   2.937  15.869 -0.1715  0.1193  0.2710
36358DOPC   GL144006  24.774   2.861  16.275 -0.2063 -0.3308 -0.0192
36358DOPC   GL244007  24.975   3.021  16.384 -0.0874  0.4268  0.0779
36358DOPC   C1A44008  24.453   3.079  16.449  0.0621 -0.0128  0.1191
36358DOPC   D2A44009  24.141   3.231  16.739 -0.2711 -0.0302  0.0414
36358DOPC   C3A44010  23.708   3.211  16.928  0.2737 -0.1461 -0.4381
36358DOPC   C4A44011  23.387   3.270  17.325 -0.0483 -0.0573  0.2586
36358DOPC   C1B44012  24.947   3.069  16.833 -0.4460  0.1218  0.0328
36358DOPC   D2B44013  24.800   3.159  17.271  0.1653 -0.2430 -0.0255
36358DOPC   C3B44014  24.467   3.067  17.625  0.0719  0.2343  0.2531
36358DOPC   C4B44015  24.074   3.005  17.895  0.2065 -0.3145  0.1192
36359DOPC   NC344016  22.343   4.195  13.352  0.0824  0.1204  0.0048
36359DOPC   PO444017  22.585   4.092  13.666  0.2036  0.0837  0.0070
36359DOPC   GL144018  22.571   4.356  14.153  0.2501  0.2486 -0.0754
36359DOPC   GL244019  22.456   4.041  14.135 -0.1020  0.4726  0.0747
36359DOPC   C1A44020  22.365   4.689  14.176  0.1525  0.3413  0.0014
36359DOPC   D2A44021  22.093   5.057  14.097 -0.0590 -0.1812 -0.1119
36359DOPC   C3A44022  21.899   5.409  14.172  0.0593 -0.0944 -0.4095
36359DOPC   C4A44023  21.720   5.667  14.505  0.0339  0.1713 -0.0854
36359DOPC   C1B44024  22.213   4.105  14.450 -0.1575 -0.0193 -0.2002
36359DOPC   D2B44025  21.781   4.249  14.663 -0.1399  0.1216  0.0338
36359DOPC   C3B44026  21.386   4.219  14.904 -0.1960 -0.0530  0.0384
36359DOPC   C4B44027  21.020   4.489  15.151 -0.0419  0.2760 -0.0076
36360DOPC   NC344028  17.003   4.504  10.746  0.1724  0.4005 -0.1096
36360DOPC   PO444029  16.820   4.182  10.545  0.0070  0.0143 -0.0085
36360DOPC   GL144030  16.673   3.953  10.937  0.2207 -0.1572 -0.0870
36360DOPC   GL244031  16.640   4.230  11.018 -0.0163 -0.2638 -0.1493
36360DOPC   C1A44032  16.682   3.607  11.127  0.5220 -0.0857  0.1164
36360DOPC   D2A44033  16.747   3.238  11.472  0.2785  0.0051  0.1234
36360DOPC   C3A44034  16.497   3.482  11.714  0.0683  0.0886 -0.0772
36360DOPC   C4A44035  16.293   3.749  12.079 -0.2304  0.2387  0.0517
36360DOPC   C1B44036  16.341   4.373  11.347 -0.1590  0.1102 -0.0353
36360DOPC   D2B44037  16.030   4.177  11.709 -0.1954 -0.1463  0.3088
36360DOPC   C3B44038  16.029   4.212  12.221 -0.3462  0.1138  0.1084
36360DOPC   C4B44039  15.838   4.259  12.711 -0.0257 -0.0403  0.1204
36361DOPC   NC344040   8.016   1.300  15.549 -0.0941 -0.0057  0.2404
36361DOPC   PO444041   8.095   1.581  15.823 -0.5211  0.0409 -0.0404
36361DOPC   GL144042   8.441   1.732  16.078  0.0529 -0.2731  0.0979
36361DOPC   GL244043   8.289   1.696  16.365  0.0704  0.1485  0.0205
36361DOPC   C1A44044   8.823   1.928  15.987 -0.0628  0.3987  0.1351
36361DOPC   D2A44045   9.349   1.935  16.009 -0.0438  0.1757  0.1179
36361DOPC   C3A44046   9.587   1.786  16.418  0.0895 -0.0297  0.1607
36361DOPC   C4A44047   9.924   1.647  16.807 -0.0346 -0.1103 -0.4211
36361DOPC   C1B44048   8.566   1.743  16.721 -0.0765  0.1156  0.2880
36361DOPC   D2B44049   8.868   1.693  17.078  0.1286 -0.1874 -0.0825
36361DOPC   C3B44050   9.260   1.438  17.050  0.1194 -0.1744  0.3390
36361DOPC   C4B44051   9.635   1.154  17.053 -0.2788 -0.0007 -0.1430
36362DOPC   NC344052  15.621   3.890  10.112 -0.0456 -0.1816 -0.0517
36362DOPC   PO444053  15.610   3.472  10.211  0.1055 -0.0228 -0.2014
36362DOPC   GL144054  15.519   3.417  10.600 -0.0721 -0.1401  0.0548
36362DOPC   GL244055  15.590   3.692  10.696 -0.3272 -0.0490  0.1638
36362DOPC   C1A44056  15.360   3.217  10.970  0.5305  0.0858  0.0067
36362DOPC   D2A44057  15.150   2.890  11.387  0.0585  0.2208 -0.1819
36362DOPC   C3A44058  15.198   2.848  11.835  0.0582  0.1124 -0.2270
36362DOPC   C4A44059  15.443   2.783  12.207 -0.0395 -0.1315 -0.1346
36362DOPC   C1B44060  15.725   3.962  10.979 -0.1526  0.1077  0.2451
36362DOPC   D2B44061  15.713   3.891  11.464  0.1099  0.1091 -0.2244
36362DOPC   C3B44062  15.552   4.004  11.942 -0.3118  0.2099 -0.0055
36362DOPC   C4B44063  15.532   3.960  12.404  0.2036  0.2715  0.2335
36363DOPC   NC344064   1.069   6.934  16.294  0.0602  0.1901  0.2338
36363DOPC   PO444065   1.150   7.010  16.695 -0.0029 -0.1147 -0.2308
36363DOPC   GL144066   0.791   6.909  16.990  0.1889 -0.0878 -0.1475
36363DOPC   GL244067   0.907   7.131  17.148  0.1332 -0.0999  0.2995
36363DOPC   C1A44068   0.541   6.762  17.324 -0.3423  0.0383  0.2143
36363DOPC   D2A44069   0.264   6.600  17.721  0.3765 -0.0966 -0.2265
36363DOPC   C3A44070   0.030   6.889  18.028 -0.0865 -0.0616  0.3818
36363DOPC   C4A44071  -0.207   7.327  18.131  0.1841  0.1166  0.0283
36363DOPC   C1B44072   0.614   7.311  17.306 -0.1657  0.0054  0.0808
36363DOPC   D2B44073   0.436   7.646  17.614 -0.1725  0.0771  0.0599
36363DOPC   C3B44074   0.750   8.026  17.803 -0.1668 -0.1462 -0.0453
36363DOPC   C4B44075   0.799   8.426  18.130 -0.1427 -0.1914 -0.0809
36364DOPC   NC344076   7.247   1.417  17.699  0.1458  0.0690  0.2598
36364DOPC   PO444077   7.159   1.022  17.722 -0.0629 -0.1257  0.0749
36364DOPC   GL144078   7.441   1.016  18.124 -0.0125  0.2713  0.1437
36364DOPC   GL244079   7.606   1.151  17.908  0.4258 -0.0859  0.0497
36364DOPC   C1A44080   7.677   0.839  18.411 -0.0852 -0.0505 -0.1405
36364DOPC   D2A44081   7.990   0.803  18.867 -0.3948  0.2988  0.1947
36364DOPC   C3A44082   8.098   0.782  19.311  0.0550  0.1156  0.0804
36364DOPC   C4A44083   7.954   0.475  19.635 -0.0634 -0.1239 -0.1361
36364DOPC   C1B44084   7.797   1.543  17.817 -0.1504  0.1137 -0.2242
36364DOPC   D2B44085   7.934   1.772  18.187 -0.0643  0.1119  0.0548
36364DOPC   C3B44086   7.997   2.192  18.324  0.0107  0.1311 -0.0019
36364DOPC   C4B44087   7.995   2.724  18.301  0.1465 -0.2011  0.0048
36365DOPC   NC344088  23.293   1.657  14.104  0.0837 -0.1875  0.1135
36365DOPC   PO444089  23.079   1.437  13.883 -0.1007  0.1189  0.1638
36365DOPC   GL144090  22.891   1.428  14.259 -0.4168 -0.1235  0.0060
36365DOPC   GL244091  22.849   1.772  14.256  0.3957  0.3665 -0.1563
36365DOPC   C1A44092  22.500   1.208  14.305 -0.0076  0.3705 -0.1787
36365DOPC   D2A44093  21.996   1.174  14.300  0.0555 -0.2888  0.2007
36365DOPC   C3A44094  21.744   1.220  14.678  0.0861 -0.0376  0.3692
36365DOPC   C4A44095  21.430   1.599  14.844  0.1169 -0.3918  0.1869
36365DOPC   C1B44096  22.811   1.983  14.592 -0.1459 -0.0512 -0.0270
36365DOPC   D2B44097  22.689   2.009  14.992 -0.2435 -0.1142  0.2862
36365DOPC   C3B44098  22.557   1.992  15.397 -0.0823  0.1170 -0.0871
36365DOPC   C4B44099  22.271   2.090  15.669 -0.2109  0.0987  0.0465
36366DOPC   NC344100  12.543   1.966  11.304  0.0734  0.2397  0.1971
36366DOPC   PO444101  12.402   2.354  11.207  0.1243  0.2164  0.0509
36366DOPC   GL144102  12.571   2.477  11.493  0.1824  0.2454  0.4207
36366DOPC   GL244103  12.605   2.230  11.647  0.1896 -0.0738  0.2071
36366DOPC   C1A44104  12.868   2.723  11.636  0.2237 -0.1367  0.0546
36366DOPC   D2A44105  13.324   2.959  11.592  0.0732 -0.0540  0.2335
36366DOPC   C3A44106  13.695   3.090  11.799 -0.0850 -0.2314 -0.3624
36366DOPC   C4A44107  14.014   3.345  12.017 -0.2962 -0.2790  0.2185
36366DOPC   C1B44108  12.889   2.256  11.971 -0.0127  0.2624 -0.1953
36366DOPC   D2B44109  13.030   2.213  12.484  0.1318 -0.2774 -0.0715
36366DOPC   C3B44110  13.012   2.436  12.913 -0.1465 -0.2243  0.0506
36366DOPC   C4B44111  13.406   2.366  13.247 -0.0066 -0.2834 -0.0265
36367DOPC   NC344112  15.495   2.397  10.532  0.1601 -0.1173  0.0374
36367DOPC   PO444113  15.815   2.643  10.526 -0.2239  0.1321  0.1821
36367DOPC   GL144114  16.045   2.931  10.774 -0.2475 -0.1141 -0.1442
36367DOPC   GL244115  15.808   3.109  10.853 -0.1395 -0.0677 -0.3293
36367DOPC   C1A44116  16.454   2.783  10.992 -0.1484  0.1987  0.2444
36367DOPC   D2A44117  16.626   2.453  11.352 -0.0536 -0.0887  0.1532
36367DOPC   C3A44118  16.550   2.255  11.764  0.2246  0.1517 -0.0157
36367DOPC   C4A44119  16.254   2.068  12.066 -0.0102  0.3204 -0.2084
36367DOPC   C1B44120  15.863   3.252  11.365  0.2128  0.0578 -0.1866
36367DOPC   D2B44121  15.998   3.513  11.756 -0.0580  0.0553 -0.1631
36367DOPC   C3B44122  15.728   3.556  12.097  0.0697  0.1862 -0.1318
36367DOPC   C4B44123  15.415   3.263  12.270 -0.0456 -0.2451  0.0401
36368DOPC   NC344124   5.319   7.691  18.554  0.2784 -0.0117 -0.2214
36368DOPC   PO444125   5.536   7.383  18.510 -0.0139 -0.2126 -0.1525
36368DOPC   GL144126   5.514   7.248  18.852 -0.2725 -0.0111  0.3177
36368DOPC   GL244127   5.448   7.506  19.035  0.0609  0.0060  0.2275
36368DOPC   C1A44128   5.939   7.127  19.034 -0.3237  0.0409  0.0583
36368DOPC   D2A44129   6.108   6.863  19.356 -0.1798 -0.2627  0.0875
36368DOPC   C3A44130   6.054   6.933  19.813  0.2699 -0.0398 -0.1073
36368DOPC   C4A44131   6.328   7.169  20.133 -0.1741 -0.0237 -0.1146
36368DOPC   C1B44132   5.786   7.563  19.274  0.0253 -0.0825 -0.0611
36368DOPC   D2B44133   6.089   7.525  19.634  0.0088  0.0537 -0.2224
36368DOPC   C3B44134   6.093   7.712  20.053  0.1576 -0.1452  0.1540
36368DOPC   C4B44135   6.024   7.952  20.449 -0.0679  0.3469 -0.0879
36369DOPC   NC344136   4.436   7.274  18.555 -0.3245 -0.0080  0.0489
36369DOPC   PO444137   4.329   7.543  18.831 -0.0557  0.1027 -0.1109
36369DOPC   GL144138   4.626   7.592  19.162  0.0974  0.0357  0.2399
36369DOPC   GL244139   4.594   7.909  19.210  0.2124  0.0154 -0.1724
36369DOPC   C1A44140   4.686   7.391  19.480 -0.3141  0.3596  0.3325
36369DOPC   D2A44141   4.828   7.259  19.870  0.1085 -0.1992  0.1955
36369DOPC   C3A44142   5.320   7.355  19.928 -0.2956  0.1321  0.2414
36369DOPC   C4A44143   5.788   7.339  20.002 -0.1580 -0.1774  0.0673
36369DOPC   C1B44144   4.653   8.064  19.656  0.0874 -0.1629  0.1201
36369DOPC   D2B44145   4.692   8.305  20.068 -0.2504 -0.2192 -0.1555
36369DOPC   C3B44146   5.020   8.317  20.399  0.1751 -0.2016 -0.3043
36369DOPC   C4B44147   5.297   8.459  20.806 -0.1500  0.3312  0.0131
36370DOPC   NC344148   2.824   0.297  18.287 -0.3598 -0.1780  0.2814
36370DOPC   PO444149   2.570   0.597  18.101  0.0367  0.0879 -0.1666
36370DOPC   GL144150   2.208   0.503  18.300 -0.2720  0.4178  0.1479
36370DOPC   GL244151   2.422   0.437  18.537  0.1693 -0.0678 -0.2344
36370DOPC   C1A44152   1.922   0.603  18.624  0.1563 -0.0472 -0.0604
36370DOPC   D2A44153   1.529   0.746  18.903  0.2138 -0.1284 -0.2852
36370DOPC   C3A44154   1.184   0.586  19.222  0.0264  0.2978  0.0144
36370DOPC   C4A44155   0.878   0.241  19.379 -0.4374  0.1960  0.1800
36370DOPC   C1B44156   2.310   0.806  18.773  0.3710 -0.0756 -0.0541
36370DOPC   D2B44157   2.080   0.800  19.189  0.1892  0.0339  0.3084
36370DOPC   C3B44158   1.769   0.478  19.295  0.1540 -0.1761  0.4230
36370DOPC   C4B44159   1.564   0.069  19.489  0.0804 -0.1135  0.0745
36371DOPC   NC344160  19.339   7.411  11.562 -0.0187  0.0202 -0.1545
36371DOPC   PO444161  19.714   7.240  11.591  0.1422 -0.2703  0.2267
36371DOPC   GL144162  19.698   7.244  11.926 -0.0479 -0.0108  0.1973
36371DOPC   GL244163  19.584   6.915  11.940 -0.2795 -0.0567 -0.0106
36371DOPC   C1A44164  19.897   7.363  12.355  0.1739  0.0185  0.1479
36371DOPC   D2A44165  20.069   7.666  12.688  0.1118  0.2663  0.2574
36371DOPC   C3A44166  20.196   7.499  13.039 -0.0635  0.2079 -0.0488
36371DOPC   C4A44167  19.962   7.303  13.409 -0.1749 -0.0497  0.2894
36371DOPC   C1B44168  19.228   6.718  12.020 -0.1819 -0.0673  0.3050
36371DOPC   D2B44169  19.049   6.651  12.509  0.1981  0.2101  0.0851
36371DOPC   C3B44170  18.653   6.883  12.686 -0.0976  0.1025  0.1375
36371DOPC   C4B44171  18.240   7.191  12.615 -0.0159  0.2575  0.1694
36372DOPC   NC344172   2.187   3.694  17.396  0.0990 -0.1533  0.2010
36372DOPC   PO444173   1.885   3.984  17.420 -0.1165  0.2260  0.2800
36372DOPC   GL144174   1.633   4.031  17.770 -0.1744 -0.1402  0.0237
36372DOPC   GL244175   1.419   4.104  17.693  0.3768  0.1041  0.2372
36372DOPC   C1A44176   1.544   4.297  18.157 -0.0103 -0.0215  0.1573
36372DOPC   D2A44177   1.565   4.469  18.638  0.2272 -0.1430 -0.0183
36372DOPC   C3A44178   1.131   4.445  18.795  0.1495 -0.0758  0.0689
36372DOPC   C4A44179   0.681   4.519  18.990  0.1343  0.0525 -0.1145
36372DOPC   C1B44180   1.264   3.866  18.094 -0.1080 -0.1470 -0.0895
36372DOPC   D2B44181   1.109   3.636  18.420  0.0743 -0.1057 -0.0350
36372DOPC   C3B44182   0.808   3.881  18.667 -0.2550 -0.0154  0.1158
36372DOPC   C4B44183   0.534   4.271  18.594 -0.1434  0.3242  0.0725
36373DOPC   NC344184  22.151   6.535  13.636 -0.0806 -0.0228  0.2587
36373DOPC   PO444185  21.899   6.260  13.407 -0.0496  0.1191 -0.1170
36373DOPC   GL144186  21.566   6.397  13.668 -0.0378 -0.3723 -0.2250
36373DOPC   GL244187  21.603   6.622  13.586 -0.0178 -0.1814 -0.0076
36373DOPC   C1A44188  21.387   6.328  14.060 -0.1132  0.0908  0.0105
36373DOPC   D2A44189  21.142   6.445  14.408 -0.0854  0.0643 -0.0401
36373DOPC   C3A44190  20.698   6.294  14.385 -0.1054  0.0973 -0.1493
36373DOPC   C4A44191  20.314   6.150  14.172  0.0166  0.0309 -0.1203
36373DOPC   C1B44192  21.402   6.817  13.934 -0.0321  0.3865  0.1358
36373DOPC   D2B44193  21.515   6.992  14.382 -0.1752 -0.1304  0.0926
36373DOPC   C3B44194  21.293   6.920  14.765  0.1570 -0.1555  0.1616
36373DOPC   C4B44195  20.956   6.917  15.150 -0.3110 -0.1025 -0.0854
36374DOPC   NC344196  23.229   5.426  14.503  0.0642 -0.2682 -0.1315
36374DOPC   PO444197  23.050   5.594  14.226  0.0710  0.2125  0.0438
36374DOPC   GL144198  22.601   5.561  14.292 -0.4242 -0.0762  0.2749
36374DOPC   GL244199  22.626   5.892  14.266  0.0350 -0.1567 -0.3788
36374DOPC   C1A44200  22.365   5.344  14.509 -0.0973 -0.2013 -0.1878
36374DOPC   D2A44201  22.040   4.978  14.630 -0.1501  0.0807 -0.0741
36374DOPC   C3A44202  21.869   4.641  14.400  0.0150 -0.0947  0.1689
36374DOPC   C4A44203  21.746   4.250  14.154 -0.2409  0.1383  0.2682
36374DOPC   C1B44204  22.706   6.130  14.624  0.0355  0.0114 -0.1272
36374DOPC   D2B44205  22.693   6.619  14.772  0.0579  0.1059  0.1770
36374DOPC   C3B44206  22.554   6.712  15.204 -0.5179 -0.0229 -0.2323
36374DOPC   C4B44207  22.436   6.719  15.727 -0.2679  0.1617 -0.0863
36375DOPC   NC344208  23.831   2.570  14.099 -0.2333  0.0504  0.1896
36375DOPC   PO444209  23.668   2.439  14.422 -0.0706 -0.0737  0.1630
36375DOPC   GL144210  23.643   2.533  14.794 -0.2055  0.0476 -0.0470
36375DOPC   GL244211  23.426   2.659  14.746  0.0144  0.1146  0.1005
36375DOPC   C1A44212  23.513   2.082  14.967 -0.2603 -0.3038  0.0552
36375DOPC   D2A44213  23.220   1.716  15.149  0.1206 -0.1073 -0.0862
36375DOPC   C3A44214  22.853   1.660  15.473 -0.2350 -0.0009 -0.1560
36375DOPC   C4A44215  22.384   1.567  15.692  0.0232 -0.2012 -0.0522
36375DOPC   C1B44216  23.238   2.730  15.157 -0.2094  0.2656 -0.2747
36375DOPC   D2B44217  23.152   2.630  15.637  0.0954  0.2092  0.0412
36375DOPC   C3B44218  22.830   2.904  15.545  0.4733  0.0488 -0.3688
36375DOPC   C4B44219  22.614   3.358  15.484  0.1423 -0.2962  0.0332
36376DOPC   NC344220  20.159   7.274  11.926  0.0520  0.1710 -0.1867
36376DOPC   PO444221  20.429   7.531  11.875  0.3222 -0.0345 -0.1475
36376DOPC   GL144222  20.265   7.924  12.000  0.1337  0.4617  0.0988
36376DOPC   GL244223  20.032   7.826  12.165  0.0635 -0.1595 -0.1364
36376DOPC   C1A44224  20.375   8.266  12.198  0.1642  0.0036 -0.0266
36376DOPC   D2A44225  20.240   8.582  12.557 -0.1301  0.0141  0.1696
36376DOPC   C3A44226  20.150   8.558  12.994 -0.0275 -0.1830 -0.2351
36376DOPC   C4A44227  20.103   8.359  13.462  0.0728  0.1249  0.2859
36376DOPC   C1B44228  19.964   8.127  12.436 -0.0914 -0.0242  0.0882
36376DOPC   D2B44229  19.922   8.107  12.929 -0.0924 -0.0482 -0.2633
36376DOPC   C3B44230  19.679   7.759  13.077  0.0763  0.2451  0.1473
36376DOPC   C4B44231  19.381   7.572  13.463 -0.0356  0.2505  0.2645
36377DOPC   NC344232  21.100   7.067  12.376 -0.0112  0.1340  0.0394
36377DOPC   PO444233  20.739   7.032  12.186  0.2181 -0.0174 -0.2841
36377DOPC   GL144234  20.417   6.880  12.339  0.1207 -0.1446 -0.0143
36377DOPC   GL244235  20.398   6.809  12.603  0.0304  0.2491 -0.1253
36377DOPC   C1A44236  19.975   6.928  12.219 -0.1153  0.0623 -0.0328
36377DOPC   D2A44237  19.473   6.948  12.395  0.0562 -0.1906 -0.1040
36377DOPC   C3A44238  19.137   7.137  12.708 -0.0604 -0.0030  0.0493
36377DOPC   C4A44239  18.869   7.202  13.096  0.2000  0.1071  0.0287
36377DOPC   C1B44240  20.125   7.069  12.760  0.2239  0.0293 -0.5196
36377DOPC   D2B44241  19.630   7.202  12.928  0.0318  0.1189 -0.0638
36377DOPC   C3B44242  19.409   6.994  13.277  0.0134 -0.1102 -0.1730
36377DOPC   C4B44243  19.013   7.061  13.642  0.0890  0.2334 -0.0636
36378DOPC   NC344244   5.980   2.254  18.150  0.0346  0.0166 -0.1096
36378DOPC   PO444245   6.304   2.122  18.048 -0.2250 -0.1256 -0.1219
36378DOPC   GL144246   6.582   2.138  18.399 -0.0889  0.0058  0.1753
36378DOPC   GL244247   6.840   1.985  18.348 -0.0471  0.1338 -0.0837
36378DOPC   C1A44248   6.722   2.268  18.783 -0.2253 -0.0015  0.1281
36378DOPC   D2A44249   6.917   2.448  19.230 -0.0628 -0.3043 -0.2489
36378DOPC   C3A44250   7.279   2.541  19.513 -0.0272 -0.3141  0.3516
36378DOPC   C4A44251   7.638   2.897  19.657  0.1266 -0.1835 -0.0161
36378DOPC   C1B44252   7.095   2.005  18.687 -0.3088  0.1377  0.0564
36378DOPC   D2B44253   7.363   2.082  19.142  0.0601 -0.1416  0.1651
36378DOPC   C3B44254   7.552   2.080  19.568  0.1093  0.1810  0.3183
36378DOPC   C4B44255   7.789   2.402  19.949  0.1696 -0.0604 -0.1126
36379DOPC   NC344256   2.268   0.962  18.250 -0.2955 -0.3072 -0.2038
36379DOPC   PO444257   2.362   1.342  18.168 -0.0285  0.0881 -0.0804
36379DOPC   GL144258   2.366   1.516  18.495  0.0862 -0.3159  0.1858
36379DOPC   GL244259   2.235   1.249  18.608  0.0347  0.1199  0.0169
36379DOPC   C1A44260   2.240   1.843  18.846 -0.0341  0.1043 -0.3087
36379DOPC   D2A44261   2.091   2.074  19.164 -0.0811  0.1446  0.1923
36379DOPC   C3A44262   1.636   1.992  19.446  0.1252  0.0764 -0.1906
36379DOPC   C4A44263   1.248   1.979  19.689 -0.1711  0.2495  0.0778
36379DOPC   C1B44264   2.188   1.316  19.106 -0.0237 -0.0764 -0.0246
36379DOPC   D2B44265   2.314   1.223  19.530  0.1291 -0.0274 -0.1787
36379DOPC   C3B44266   1.841   1.212  19.574 -0.0854  0.1230  0.0163
36379DOPC   C4B44267   1.711   1.056  20.050  0.0422 -0.0713 -0.0202
36380DOPC   NC344268  15.052   6.046  10.258  0.1056 -0.1439 -0.1798
36380DOPC   PO444269  15.081   6.364  10.505 -0.0132 -0.0621  0.1112
36380DOPC   GL144270  15.360   6.326  10.876  0.4889 -0.0496  0.2689
36380DOPC   GL244271  15.576   6.336  10.711  0.0782  0.0762 -0.0090
36380DOPC   C1A44272  15.536   6.271  11.319 -0.1129 -0.2838 -0.1473
36380DOPC   D2A44273  15.713   6.065  11.763  0.2743 -0.3550 -0.1411
36380DOPC   C3A44274  15.989   5.933  12.156 -0.2019 -0.2265 -0.0861
36380DOPC   C4A44275  16.129   5.428  12.364 -0.0776 -0.2260  0.0384
36380DOPC   C1B44276  15.833   6.112  10.956 -0.2007  0.1467 -0.1658
36380DOPC   D2B44277  16.046   5.683  10.953 -0.0427 -0.0999  0.0476
36380DOPC   C3B44278  16.297   5.412  11.302  0.1100  0.1830 -0.0643
36380DOPC   C4B44279  16.355   5.593  11.750  0.1384  0.0987  0.0679
36381DOPC   NC344280  21.065   1.929  12.138 -0.0715 -0.0342  0.0425
36381DOPC   PO444281  20.948   1.908  11.783 -0.0314 -0.0339  0.1670
36381DOPC   GL144282  20.633   2.044  12.002  0.1785 -0.0216 -0.0975
36381DOPC   GL244283  20.858   2.300  12.044  0.1454  0.3750  0.0246
36381DOPC   C1A44284  20.467   2.068  12.449  0.3344 -0.0825 -0.0144
36381DOPC   D2A44285  20.180   2.355  12.808 -0.0558 -0.0137  0.0782
36381DOPC   C3A44286  20.027   2.182  13.234 -0.2953 -0.1083  0.0767
36381DOPC   C4A44287  19.872   2.122  13.634  0.2231 -0.0746 -0.1066
36381DOPC   C1B44288  20.729   2.494  12.427 -0.4441 -0.2015  0.1742
36381DOPC   D2B44289  20.543   2.698  12.813 -0.2545 -0.0487  0.3125
36381DOPC   C3B44290  20.266   2.687  13.179  0.0452  0.0555 -0.2682
36381DOPC   C4B44291  19.871   2.617  13.432 -0.1390  0.0726  0.1991
36382DOPC   NC344292   8.134   6.200  16.367  0.3210 -0.1717 -0.0637
36382DOPC   PO444293   8.132   6.379  16.017 -0.2605 -0.0310 -0.0722
36382DOPC   GL144294   8.374   6.781  16.098 -0.0837 -0.1964  0.1039
36382DOPC   GL244295   8.489   6.562  16.305  0.0610  0.1515 -0.0264
36382DOPC   C1A44296   8.792   6.974  16.177  0.2458 -0.0434 -0.3092
36382DOPC   D2A44297   9.095   7.001  16.571 -0.2166  0.2516  0.3027
36382DOPC   C3A44298   9.394   7.307  16.716 -0.1068 -0.2895 -0.1337
36382DOPC   C4A44299   9.674   7.621  17.027  0.0022  0.1843 -0.1735
36382DOPC   C1B44300   8.905   6.476  16.396  0.1780 -0.0409 -0.0541
36382DOPC   D2B44301   9.409   6.373  16.557 -0.1253  0.0734  0.3009
36382DOPC   C3B44302   9.378   6.067  16.904 -0.1156  0.2671 -0.0397
36382DOPC   C4B44303   9.472   5.916  17.386  0.0205 -0.0365  0.0877
36383DOPC   NC344304   3.750   2.320  18.696 -0.0760  0.0897  0.3239
36383DOPC   PO444305   3.781   1.964  18.528  0.0277 -0.2303  0.0855
36383DOPC   GL144306   3.661   1.767  18.833 -0.3086 -0.0270 -0.1168
36383DOPC   GL244307   3.417   1.620  18.678  0.1549 -0.0960 -0.1643
36383DOPC   C1A44308   3.544   1.937  19.148 -0.0557  0.0219  0.0375
36383DOPC   D2A44309   3.266   2.236  19.371  0.0780  0.0070  0.2496
36383DOPC   C3A44310   3.518   2.591  19.574  0.2841 -0.2993  0.1241
36383DOPC   C4A44311   3.893   2.844  19.848 -0.0299  0.1635  0.3709
36383DOPC   C1B44312   3.262   1.470  19.039 -0.0144  0.0124 -0.2657
36383DOPC   D2B44313   3.369   1.345  19.566  0.0493  0.3303  0.1582
36383DOPC   C3B44314   3.857   1.283  19.729  0.0588 -0.1186  0.2471
36383DOPC   C4B44315   4.142   1.368  20.127 -0.0952  0.1733 -0.1784
36384DOPC   NC344316   1.282   4.848  17.440 -0.1020 -0.0736 -0.2208
36384DOPC   PO444317   1.620   4.678  17.367  0.3274  0.0523  0.1523
36384DOPC   GL144318   1.620   4.490  17.760  0.1171  0.0711 -0.1833
36384DOPC   GL244319   1.786   4.645  17.934  0.1432  0.2479 -0.2634
36384DOPC   C1A44320   1.146   4.470  17.840  0.0544 -0.0214 -0.1301
36384DOPC   D2A44321   0.763   4.414  18.109 -0.0075 -0.2437 -0.2447
36384DOPC   C3A44322   0.350   4.574  18.155  0.0430 -0.0307 -0.0520
36384DOPC   C4A44323  -0.149   4.739  18.194  0.1464  0.1387 -0.0121
36384DOPC   C1B44324   1.654   4.837  18.325  0.1705 -0.1688 -0.0698
36384DOPC   D2B44325   1.389   4.941  18.758  0.1430  0.0355 -0.1520
36384DOPC   C3B44326   0.959   5.019  18.911  0.0116  0.1648  0.1525
36384DOPC   C4B44327   0.407   4.966  18.906  0.0700  0.0643 -0.3985
36385DOPC   NC344328  23.898   6.376  14.267 -0.3805  0.0390 -0.0827
36385DOPC   PO444329  24.130   6.669  14.434  0.0919  0.0328  0.0589
36385DOPC   GL144330  23.976   7.041  14.664  0.0881  0.0041  0.1437
36385DOPC   GL244331  24.235   7.074  14.855  0.0903  0.4083 -0.4262
36385DOPC   C1A44332  23.745   6.892  15.005  0.3128  0.0959 -0.0081
36385DOPC   D2A44333  23.386   6.818  15.260  0.1197  0.0396  0.0436
36385DOPC   C3A44334  23.015   7.070  15.383  0.1031 -0.1897  0.0871
36385DOPC   C4A44335  22.525   7.207  15.463 -0.1602 -0.2552  0.1198
36385DOPC   C1B44336  24.147   6.981  15.267 -0.1180  0.0339  0.2166
36385DOPC   D2B44337  23.870   6.857  15.683  0.2693 -0.0107 -0.1370
36385DOPC   C3B44338  23.427   6.609  15.709 -0.0797 -0.1524 -0.0619
36385DOPC   C4B44339  22.934   6.543  15.597 -0.0866 -0.0585 -0.0520
36386DOPC   NC344340   9.583   7.042  14.639  0.1263  0.2762  0.1532
36386DOPC   PO444341   9.176   6.992  14.814  0.0442  0.0884 -0.1211
36386DOPC   GL144342   9.305   7.025  15.108 -0.4891  0.2292  0.2321
36386DOPC   GL244343   9.198   7.124  15.352 -0.3647 -0.1320 -0.1138
36386DOPC   C1A44344   9.738   7.128  15.186 -0.0145 -0.1182  0.1221
36386DOPC   D2A44345  10.239   7.203  15.176  0.1584  0.1083  0.4050
36386DOPC   C3A44346  10.634   7.199  15.385 -0.1093 -0.3042  0.0256
36386DOPC   C4A44347  10.809   7.165  15.859 -0.0490  0.0458 -0.1829
36386DOPC   C1B44348   9.489   7.150  15.672 -0.2081  0.0379  0.0224
36386DOPC   D2B44349   9.987   7.121  15.591  0.0325  0.0811 -0.2141
36386DOPC   C3B44350  10.033   6.757  15.314 -0.3655 -0.0838  0.0035
36386DOPC   C4B44351   9.829   6.662  14.906  0.4692  0.2247  0.1932
36387DOPC   NC344352   2.177   1.627  17.778  0.2712  0.0498  0.0187
36387DOPC   PO444353   1.802   1.741  17.875  0.0807 -0.2642  0.0827
36387DOPC   GL144354   1.547   1.521  18.149 -0.0379  0.3821  0.1260
36387DOPC   GL244355   1.827   1.436  18.344 -0.0678  0.2085 -0.1581
36387DOPC   C1A44356   1.125   1.580  18.157  0.2223  0.2771 -0.4347
36387DOPC   D2A44357   0.669   1.425  18.390  0.1794 -0.1933  0.0392
36387DOPC   C3A44358   0.496   1.253  18.764  0.3961 -0.0722  0.0244
36387DOPC   C4A44359   0.321   1.009  19.106 -0.1070  0.1705  0.1905
36387DOPC   C1B44360   1.864   1.438  18.741  0.0661 -0.1477  0.1787
36387DOPC   D2B44361   1.826   1.616  19.241 -0.3001  0.1151  0.1523
36387DOPC   C3B44362   1.458   1.498  19.538  0.0342  0.4339 -0.0353
36387DOPC   C4B44363   0.994   1.495  19.761 -0.1912 -0.2603  0.0455
36388DOPC   NC344364   6.390   0.721  18.355  0.1395 -0.1302 -0.0003
36388DOPC   PO444365   6.657   0.646  18.071  0.0827 -0.0096 -0.0921
36388DOPC   GL144366   6.891   0.605  18.344 -0.0604  0.0630  0.3872
36388DOPC   GL244367   6.726   0.602  18.593  0.3084 -0.0880 -0.0162
36388DOPC   C1A44368   7.290   0.485  18.440  0.2777  0.0875  0.1147
36388DOPC   D2A44369   7.730   0.349  18.600 -0.1157 -0.0712  0.0167
36388DOPC   C3A44370   7.806   0.018  18.949  0.2971  0.0470 -0.1822
36388DOPC   C4A44371   7.971  -0.381  19.148  0.1431 -0.1431 -0.1117
36388DOPC   C1B44372   6.973   0.474  18.859 -0.1350 -0.2306  0.3020
36388DOPC   D2B44373   7.113   0.591  19.290 -0.1456  0.0788  0.0670
36388DOPC   C3B44374   7.110   0.734  19.707  0.1467  0.3077 -0.2168
36388DOPC   C4B44375   7.085   0.892  20.206 -0.1679 -0.2179  0.0969
36389DOPC   NC344376   6.328   4.684  17.918  0.1925 -0.0821  0.0643
36389DOPC   PO444377   5.956   4.676  18.082 -0.2758  0.1063 -0.1430
36389DOPC   GL144378   5.843   4.825  18.492  0.1193  0.1148  0.0025
36389DOPC   GL244379   6.198   4.855  18.534 -0.3046  0.3259  0.1658
36389DOPC   C1A44380   5.837   5.012  18.872 -0.0164  0.0081 -0.0234
36389DOPC   D2A44381   5.965   4.911  19.278 -0.2382 -0.0851 -0.1008
36389DOPC   C3A44382   6.140   4.584  19.607  0.2583  0.0878  0.0137
36389DOPC   C4A44383   6.518   4.414  19.773  0.1099  0.0432  0.5802
36389DOPC   C1B44384   6.349   5.073  18.879 -0.1858  0.1738 -0.0218
36389DOPC   D2B44385   6.269   5.318  19.281  0.0476 -0.1324 -0.0160
36389DOPC   C3B44386   6.135   5.233  19.662 -0.1579 -0.2100  0.1514
36389DOPC   C4B44387   6.011   5.305  20.129  0.0222  0.0865  0.2476
36390DOPC   NC344388  14.094   6.540  10.679  0.3970  0.1305 -0.0566
36390DOPC   PO444389  13.804   6.286  10.748 -0.1119 -0.1355 -0.0576
36390DOPC   GL144390  14.050   6.314  11.151  0.4837 -0.0375 -0.2782
36390DOPC   GL244391  13.966   6.630  11.145  0.1839  0.1839  0.1938
36390DOPC   C1A44392  14.414   6.270  11.389  0.0030  0.0952 -0.0228
36390DOPC   D2A44393  14.778   6.064  11.730 -0.1086  0.3159  0.1060
36390DOPC   C3A44394  14.796   6.268  12.146 -0.3979 -0.0741  0.3174
36390DOPC   C4A44395  15.050   6.120  12.547  0.1015 -0.1720  0.2361
36390DOPC   C1B44396  13.824   6.729  11.493  0.3654 -0.0178 -0.0184
36390DOPC   D2B44397  13.874   6.888  11.929  0.1819  0.1662 -0.0933
36390DOPC   C3B44398  13.938   7.321  12.044 -0.2131 -0.1039 -0.1666
36390DOPC   C4B44399  14.212   7.421  12.436  0.1086  0.0850 -0.1705
36391DOPC   NC344400  22.243   5.214  12.469 -0.1753  0.0928  0.0338
36391DOPC   PO444401  22.192   5.051  12.800 -0.4892  0.2308 -0.1340
36391DOPC   GL144402  21.831   4.823  12.939  0.0504  0.0186 -0.1639
36391DOPC   GL244403  21.933   4.905  13.223  0.3344  0.5329  0.0457
36391DOPC   C1A44404  21.534   5.145  13.059  0.0446 -0.2568 -0.2489
36391DOPC   D2A44405  20.994   5.245  13.148 -0.0500  0.0981 -0.0078
36391DOPC   C3A44406  20.865   5.047  13.508 -0.2101 -0.1562 -0.0201
36391DOPC   C4A44407  20.700   4.803  13.915 -0.1262  0.0527  0.0645
36391DOPC   C1B44408  21.563   4.815  13.459 -0.1254 -0.3209 -0.0996
36391DOPC   D2B44409  21.294   4.866  13.862 -0.1631  0.1603 -0.1006
36391DOPC   C3B44410  21.433   5.057  14.233  0.1953 -0.2875 -0.1419
36391DOPC   C4B44411  21.561   5.217  14.662 -0.1706  0.1233  0.0244
36392DOPC   NC344412  23.324   0.603  13.943 -0.1175 -0.2927  0.2820
36392DOPC   PO444413  23.205   0.305  14.121 -0.1066  0.1690 -0.0812
36392DOPC   GL144414  22.861   0.337  14.386 -0.1167  0.0441 -0.1316
36392DOPC   GL244415  22.755   0.611  14.273 -0.1918  0.1738 -0.2151
36392DOPC   C1A44416  22.864   0.269  14.800  0.0456 -0.1142 -0.1101
36392DOPC   D2A44417  22.765   0.116  15.283  0.0868 -0.1285  0.2365
36392DOPC   C3A44418  22.541  -0.045  15.628  0.0578 -0.0179 -0.1220
36392DOPC   C4A44419  22.052  -0.089  15.689 -0.1452 -0.1510 -0.2318
36392DOPC   C1B44420  22.611   0.795  14.641  0.1133  0.0646  0.0045
36392DOPC   D2B44421  22.589   1.028  15.059 -0.0546 -0.2486  0.1058
36392DOPC   C3B44422  22.325   1.168  15.397  0.0727 -0.2545  0.2206
36392DOPC   C4B44423  21.938   1.319  15.653 -0.5597 -0.0401 -0.3007
36393DOPC   NC344424  11.944   3.981  11.704 -0.0455  0.3365  0.0972
36393DOPC   PO444425  12.109   3.709  11.450 -0.0574  0.0560  0.0253
36393DOPC   GL144426  12.439   3.632  11.622 -0.0835 -0.1556  0.2397
36393DOPC   GL244427  12.411   3.895  11.790 -0.0710 -0.1740 -0.1008
36393DOPC   C1A44428  12.795   3.609  11.828 -0.0953 -0.1509 -0.3124
36393DOPC   D2A44429  13.163   3.717  12.109 -0.0902  0.1812  0.0659
36393DOPC   C3A44430  13.393   3.752  12.490 -0.1497  0.1151 -0.0030
36393DOPC   C4A44431  13.697   3.760  12.829 -0.0049  0.0063  0.0452
36393DOPC   C1B44432  12.354   3.851  12.190 -0.2550  0.0211 -0.0592
36393DOPC   D2B44433  12.419   3.761  12.671 -0.1334  0.1570  0.1019
36393DOPC   C3B44434  12.907   3.829  12.649  0.1809 -0.0526  0.0491
36393DOPC   C4B44435  13.221   4.035  12.908 -0.1148 -0.1036 -0.2062
36394DOPC   NC344436  12.997   3.341  10.407 -0.1351 -0.1055  0.4111
36394DOPC   PO444437  12.822   3.321  10.762  0.1627 -0.0032  0.3105
36394DOPC   GL144438  12.934   2.956  10.972 -0.2039 -0.0459 -0.0248
36394DOPC   GL244439  12.909   3.166  11.155  0.1707  0.2728  0.0301
36394DOPC   C1A44440  13.226   2.662  11.236  0.1579 -0.0591 -0.1752
36394DOPC   D2A44441  13.671   2.682  11.438 -0.0149 -0.1025 -0.1291
36394DOPC   C3A44442  13.880   2.668  11.894  0.0619 -0.1807  0.2291
36394DOPC   C4A44443  14.106   2.663  12.366 -0.0426 -0.3487 -0.0280
36394DOPC   C1B44444  12.878   3.206  11.582 -0.3422 -0.0720  0.2020
36394DOPC   D2B44445  13.081   3.145  12.060 -0.1512 -0.1505  0.0934
36394DOPC   C3B44446  13.493   3.355  12.158 -0.1069 -0.0323 -0.0393
36394DOPC   C4B44447  13.879   3.561  12.413 -0.1904 -0.1236 -0.1709
36395DOPC   NC344448   2.923   5.346  18.234 -0.2569  0.1155  0.1325
36395DOPC   PO444449   3.160   5.070  18.126  0.1161 -0.1036 -0.0504
36395DOPC   GL144450   2.971   4.886  18.484  0.2992  0.1671 -0.4847
36395DOPC   GL244451   3.168   4.997  18.610  0.1189 -0.3042 -0.2216
36395DOPC   C1A44452   2.537   4.705  18.603  0.3688  0.3873 -0.1217
36395DOPC   D2A44453   2.036   4.671  18.834  0.1666  0.1879 -0.0066
36395DOPC   C3A44454   1.614   4.670  19.057  0.0002 -0.1546 -0.1411
36395DOPC   C4A44455   1.209   4.717  19.396  0.2893 -0.0453  0.2093
36395DOPC   C1B44456   3.452   4.786  18.876 -0.0027  0.2207 -0.0202
36395DOPC   D2B44457   3.620   4.744  19.415 -0.0771 -0.3219 -0.0970
36395DOPC   C3B44458   3.676   4.882  19.889 -0.0795 -0.0782  0.1360
36395DOPC   C4B44459   3.436   5.030  20.299  0.0532 -0.0712 -0.2640
36396DOPC   NC344460  11.599   6.928  12.343 -0.1461 -0.0314  0.2627
36396DOPC   PO444461  11.326   6.708  12.515  0.1472  0.0702  0.1238
36396DOPC   GL144462  11.289   6.792  12.817 -0.0274  0.0856 -0.0350
36396DOPC   GL244463  11.076   6.539  12.924 -0.2889 -0.1964  0.1344
36396DOPC   C1A44464  11.648   6.854  13.011  0.1658  0.0567  0.0675
36396DOPC   D2A44465  11.872   7.186  13.348 -0.2337 -0.0065  0.1852
36396DOPC   C3A44466  12.109   7.252  13.760 -0.3091 -0.1512  0.1396
36396DOPC   C4A44467  12.302   7.115  14.169  0.0908 -0.1167  0.2634
36396DOPC   C1B44468  11.325   6.412  13.182  0.0190  0.0275  0.1842
36396DOPC   D2B44469  11.656   6.360  13.556  0.1418  0.1795  0.0686
36396DOPC   C3B44470  11.965   6.063  13.409 -0.2985 -0.0259  0.3484
36396DOPC   C4B44471  12.334   5.798  13.295  0.1595 -0.2183 -0.0726
36397DOPC   NC344472  11.156   7.671  12.465  0.1351 -0.0209 -0.1371
36397DOPC   PO444473  11.508   7.496  12.467  0.2938 -0.1021 -0.4281
36397DOPC   GL144474  11.875   7.659  12.595  0.0981  0.3458 -0.0582
36397DOPC   GL244475  11.731   7.930  12.615 -0.2408  0.0091 -0.0916
36397DOPC   C1A44476  11.946   7.523  12.982 -0.0852 -0.2256  0.2638
36397DOPC   D2A44477  12.327   7.510  13.341  0.1447 -0.1077 -0.1922
36397DOPC   C3A44478  12.694   7.776  13.268  0.0240 -0.0889  0.1645
36397DOPC   C4A44479  13.114   7.932  13.030 -0.0167  0.1273 -0.0508
36397DOPC   C1B44480  12.000   8.028  12.982  0.0496  0.1241  0.1823
36397DOPC   D2B44481  12.242   7.999  13.396 -0.2918  0.1081 -0.0450
36397DOPC   C3B44482  12.280   8.111  13.893 -0.0693  0.2825  0.0745
36397DOPC   C4B44483  12.053   8.065  14.323 -0.1033  0.2719  0.0159
36398DOPC   NC344484   1.288   0.753  16.474  0.0526  0.0548  0.2086
36398DOPC   PO444485   1.144   1.080  16.670  0.3689 -0.0134  0.0023
36398DOPC   GL144486   0.860   1.076  16.958 -0.2784  0.0709 -0.3020
36398DOPC   GL244487   0.618   1.176  16.898  0.0282 -0.1324  0.2252
36398DOPC   C1A44488   0.695   1.002  17.353 -0.1655 -0.0702  0.1456
36398DOPC   D2A44489   0.518   0.708  17.661  0.0744 -0.0871  0.0262
36398DOPC   C3A44490   0.295   0.316  17.895 -0.0013 -0.0060 -0.0990
36398DOPC   C4A44491   0.524   0.069  18.247 -0.0678 -0.0535  0.1386
36398DOPC   C1B44492   0.332   0.829  16.842 -0.0049 -0.0056 -0.0161
36398DOPC   D2B44493   0.026   0.423  16.880 -0.0922 -0.3083 -0.0449
36398DOPC   C3B44494  -0.176   0.281  17.187 -0.0476  0.0941  0.4890
36398DOPC   C4B44495  -0.070   0.088  17.610  0.1320 -0.1587  0.0392
36399DOPC   NC344496  10.054   1.111  13.253  0.0864  0.0784 -0.0862
36399DOPC   PO444497   9.944   1.466  13.446  0.0537 -0.1275  0.1938
36399DOPC   GL144498  10.220   1.437  13.627 -0.2238 -0.1594 -0.4471
36399DOPC   GL244499  10.311   1.135  13.695 -0.1038 -0.0504 -0.0035
36399DOPC   C1A44500  10.407   1.861  13.762 -0.0973 -0.1012  0.0159
36399DOPC   D2A44501  10.546   2.241  14.046 -0.0426  0.0530 -0.4765
36399DOPC   C3A44502  10.294   2.660  14.284 -0.0717 -0.0073 -0.3172
36399DOPC   C4A44503   9.999   3.017  14.435 -0.3053 -0.2426 -0.1119
36399DOPC   C1B44504  10.542   1.165  14.074 -0.3129 -0.3084  0.1374
36399DOPC   D2B44505  10.776   1.206  14.498  0.1757  0.1159  0.2502
36399DOPC   C3B44506  10.909   1.593  14.716  0.1315 -0.2372  0.2966
36399DOPC   C4B44507  11.011   2.000  14.981  0.0212 -0.1483 -0.0966
36400DOPC   NC344508  10.307   2.915  12.752 -0.0681  0.0190  0.1475
36400DOPC   PO444509  10.014   2.858  12.972  0.4326  0.3678 -0.0148
36400DOPC   GL144510  10.275   2.739  13.261  0.1040 -0.0447 -0.1138
36400DOPC   GL244511  10.163   2.652  13.472  0.1553 -0.4837 -0.0206
36400DOPC   C1A44512  10.669   2.922  13.358  0.0041 -0.2112  0.1704
36400DOPC   D2A44513  10.998   2.992  13.723  0.0390  0.0004  0.0389
36400DOPC   C3A44514  11.044   3.155  14.146  0.2624 -0.2406 -0.1467
36400DOPC   C4A44515  11.007   3.448  14.612  0.2083  0.1198 -0.1712
36400DOPC   C1B44516  10.451   2.783  13.750 -0.0857 -0.1997 -0.0548
36400DOPC   D2B44517  10.743   2.740  14.142  0.2291  0.0066 -0.1771
36400DOPC   C3B44518  11.131   2.808  14.476  0.1291 -0.0479  0.1336
36400DOPC   C4B44519  11.328   3.053  14.872  0.2001  0.0540  0.1521
36401DOPC   NC344520   8.932   6.788  15.249 -0.2931  0.2558  0.4210
36401DOPC   PO444521   8.829   7.150  15.111 -0.1055 -0.2392  0.0646
36401DOPC   GL144522   9.041   7.522  15.142  0.4639  0.0269  0.0871
36401DOPC   GL244523   8.905   7.563  15.397 -0.3462 -0.0128 -0.1299
36401DOPC   C1A44524   9.423   7.512  15.188 -0.0289 -0.3611 -0.0592
36401DOPC   D2A44525   9.902   7.600  15.294  0.3174  0.1611 -0.0055
36401DOPC   C3A44526  10.194   7.653  15.712  0.0312 -0.1746 -0.3106
36401DOPC   C4A44527  10.197   7.887  16.188  0.0420 -0.0193 -0.1660
36401DOPC   C1B44528   9.265   7.584  15.666  0.0425 -0.3339 -0.3051
36401DOPC   D2B44529   9.745   7.581  15.896  0.2780 -0.1474  0.4716
36401DOPC   C3B44530  10.110   7.369  16.107  0.1615 -0.1622  0.2123
36401DOPC   C4B44531  10.382   7.469  16.534 -0.1176  0.0467  0.0687
36402DOPC   NC344532  10.686   1.602  12.083 -0.0434  0.0566 -0.0298
36402DOPC   PO444533  10.990   1.786  12.278  0.0156 -0.1787  0.1549
36402DOPC   GL144534  11.132   1.701  12.722  0.5039 -0.0180 -0.1606
36402DOPC   GL244535  11.289   1.928  12.615 -0.1499  0.1122  0.0589
36402DOPC   C1A44536  11.140   1.586  13.150 -0.1799  0.0546  0.0821
36402DOPC   D2A44537  11.266   1.544  13.604  0.2177  0.1320  0.1190
36402DOPC   C3A44538  11.578   1.432  13.908 -0.1803  0.1865  0.2286
36402DOPC   C4A44539  11.694   1.040  14.258 -0.0955 -0.2348 -0.0309
36402DOPC   C1B44540  11.707   2.056  12.829  0.1872 -0.1561  0.0757
36402DOPC   D2B44541  12.126   2.109  13.109  0.1293 -0.1983  0.0015
36402DOPC   C3B44542  12.555   2.324  13.161 -0.0755 -0.0483  0.0944
36402DOPC   C4B44543  12.921   2.627  13.374  0.0432  0.0033 -0.2539
36403DOPC   NC344544   9.314   1.068  13.874 -0.0173 -0.2479 -0.1217
36403DOPC   PO444545   9.207   1.350  14.139 -0.0285  0.2537 -0.0489
36403DOPC   GL144546   9.573   1.347  14.511  0.2344 -0.0081  0.0886
36403DOPC   GL244547   9.675   1.369  14.277  0.1954 -0.4892 -0.2582
36403DOPC   C1A44548   9.906   1.203  14.804 -0.0057 -0.0402  0.1569
36403DOPC   D2A44549  10.119   1.109  15.197  0.1862 -0.1041 -0.0898
36403DOPC   C3A44550  10.381   1.157  15.628  0.0370 -0.0206 -0.2326
36403DOPC   C4A44551  10.785   1.128  15.916 -0.2395 -0.1569 -0.0884
36403DOPC   C1B44552  10.030   1.565  14.516  0.0815 -0.0993 -0.0390
36403DOPC   D2B44553  10.552   1.714  14.389  0.0615  0.1818 -0.0300
36403DOPC   C3B44554  10.688   2.219  14.560  0.1486 -0.0227  0.1193
36403DOPC   C4B44555  10.732   2.668  14.814 -0.0601  0.0543  0.0382
36404DOPC   NC344556   8.308   1.665  14.908  0.3591  0.4217 -0.2329
36404DOPC   PO444557   8.674   1.699  14.757 -0.0344 -0.4342  0.1265
36404DOPC   GL144558   9.020   1.819  14.801  0.0693  0.1640  0.0796
36404DOPC   GL244559   9.028   1.984  14.965  0.1786 -0.0354  0.2550
36404DOPC   C1A44560   9.456   1.709  14.912  0.0241  0.0066  0.0278
36404DOPC   D2A44561   9.951   1.600  15.019  0.0716 -0.0895  0.0058
36404DOPC   C3A44562  10.281   1.553  15.397 -0.1659  0.0108  0.0152
36404DOPC   C4A44563  10.655   1.595  15.636  0.0767  0.1748 -0.1266
36404DOPC   C1B44564   9.306   2.350  15.061 -0.2775 -0.0794  0.0031
36404DOPC   D2B44565   9.286   2.754  15.307 -0.0094 -0.4090 -0.0623
36404DOPC   C3B44566   9.660   2.908  15.531 -0.2160 -0.0963  0.0193
36404DOPC   C4B44567  10.004   3.060  15.865 -0.2349 -0.1573 -0.2018
36405DOPC   NC344568  21.055   6.126  12.257  0.1006  0.1788  0.0695
36405DOPC   PO444569  21.331   5.979  12.512 -0.0973 -0.0807  0.0909
36405DOPC   GL144570  21.161   5.842  12.940 -0.0071 -0.0873  0.1739
36405DOPC   GL244571  21.355   5.604  12.988 -0.0644 -0.0801  0.2014
36405DOPC   C1A44572  20.758   5.639  12.995 -0.3157 -0.1994  0.1090
36405DOPC   D2A44573  20.473   5.300  13.252  0.1861  0.1183 -0.1558
36405DOPC   C3A44574  20.471   5.201  13.683 -0.0737 -0.3285 -0.1059
36405DOPC   C4A44575  20.592   5.235  14.176  0.0582 -0.0353 -0.1429
36405DOPC   C1B44576  21.675   5.629  13.351  0.0481  0.1582  0.0333
36405DOPC   D2B44577  21.736   5.784  13.851 -0.1452 -0.0382 -0.1546
36405DOPC   C3B44578  21.432   5.555  14.130  0.1836  0.1418  0.1411
36405DOPC   C4B44579  21.052   5.279  14.024  0.1684  0.1454  0.2431
36406DOPC   NC344580   4.625   1.256  18.731  0.1442  0.0280  0.0122
36406DOPC   PO444581   4.250   1.254  18.808 -0.3427 -0.1863  0.0125
36406DOPC   GL144582   4.196   1.194  19.149 -0.0125  0.1508 -0.2356
36406DOPC   GL244583   4.395   0.974  19.206 -0.1220 -0.1735  0.3347
36406DOPC   C1A44584   4.345   1.475  19.460 -0.0784  0.2316 -0.0755
36406DOPC   D2A44585   4.473   1.751  19.842  0.1209  0.2726  0.2037
36406DOPC   C3A44586   4.430   2.087  20.169  0.1412 -0.1964 -0.0248
36406DOPC   C4A44587   4.254   2.451  20.467 -0.1155  0.1224  0.3013
36406DOPC   C1B44588   4.241   0.889  19.588  0.3283  0.0169 -0.1011
36406DOPC   D2B44589   4.302   0.866  20.097  0.0572  0.1164  0.0436
36406DOPC   C3B44590   3.959   0.958  20.433  0.2439 -0.2037 -0.1407
36406DOPC   C4B44591   3.510   1.066  20.584  0.1099 -0.3281 -0.1321
36407DOPC   NC344592   4.534   3.237  18.900  0.0887 -0.0949 -0.1213
36407DOPC   PO444593   4.908   3.119  18.760 -0.0684 -0.0286  0.2470
36407DOPC   GL144594   5.146   3.268  19.012  0.0269  0.2825 -0.3258
36407DOPC   GL244595   5.213   3.535  18.961 -0.2682 -0.3193  0.0840
36407DOPC   C1A44596   5.138   3.122  19.461 -0.1401  0.0761 -0.1327
36407DOPC   D2A44597   5.338   2.983  19.977  0.0958  0.0570 -0.1515
36407DOPC   C3A44598   5.721   3.039  20.261 -0.1830 -0.3639 -0.4259
36407DOPC   C4A44599   6.034   3.027  20.637  0.1312  0.1001  0.1328
36407DOPC   C1B44600   5.136   3.585  19.373  0.1563 -0.1327 -0.1022
36407DOPC   D2B44601   5.103   3.465  19.860 -0.0425  0.0143 -0.0605
36407DOPC   C3B44602   4.956   3.566  20.260  0.0914 -0.0535 -0.3119
36407DOPC   C4B44603   4.755   3.523  20.759  0.0317 -0.0648  0.3465
36408DOPC   NC344604   3.717   3.268  18.569  0.1978  0.0929 -0.3220
36408DOPC   PO444605   4.066   3.139  18.811  0.0933 -0.0428 -0.1354
36408DOPC   GL144606   4.106   2.790  19.001 -0.2156 -0.0311 -0.4000
36408DOPC   GL244607   4.332   2.964  19.207  0.1253  0.1525  0.1911
36408DOPC   C1A44608   3.996   2.520  19.350 -0.0848 -0.3443  0.0931
36408DOPC   D2A44609   3.736   2.140  19.554 -0.1514  0.0431 -0.2787
36408DOPC   C3A44610   3.787   1.875  19.907 -0.0533 -0.4049 -0.1447
36408DOPC   C4A44611   4.036   1.882  20.331  0.2229 -0.2594  0.3559
36408DOPC   C1B44612   4.222   3.123  19.581 -0.0495  0.1543  0.0054
36408DOPC   D2B44613   4.164   3.315  20.013 -0.0940 -0.0626  0.1816
36408DOPC   C3B44614   4.132   3.022  20.382  0.0774 -0.3051 -0.0876
36408DOPC   C4B44615   4.041   2.772  20.787 -0.2030  0.0992  0.0172
36409DOPC   NC344616  22.999   2.933  13.924  0.3256 -0.0374  0.1804
36409DOPC   PO444617  22.743   3.222  13.979 -0.1686  0.1339 -0.0790
36409DOPC   GL144618  22.458   3.108  14.022  0.2706  0.0741  0.1992
36409DOPC   GL244619  22.424   2.845  14.079 -0.1120  0.1848 -0.1758
36409DOPC   C1A44620  22.064   3.219  14.214  0.0852 -0.2517 -0.2080
36409DOPC   D2A44621  21.522   3.219  14.358  0.0907 -0.0634  0.2722
36409DOPC   C3A44622  21.254   2.874  14.521  0.0229 -0.0137 -0.2687
36409DOPC   C4A44623  20.883   2.564  14.715  0.0387 -0.0107 -0.0200
36409DOPC   C1B44624  22.185   2.623  14.365 -0.0663  0.2140 -0.1798
36409DOPC   D2B44625  21.869   2.312  14.592 -0.0890  0.1407 -0.0976
36409DOPC   C3B44626  21.638   2.059  14.951  0.0168 -0.2816  0.0202
36409DOPC   C4B44627  21.477   1.776  15.322 -0.2105  0.0118  0.0756
36410DOPC   NC344628  14.231   7.318  10.831 -0.0725 -0.4638  0.0325
36410DOPC   PO444629  13.955   7.033  10.873 -0.1100 -0.1715  0.0561
36410DOPC   GL144630  13.939   7.173  11.215  0.0299  0.0250 -0.1739
36410DOPC   GL244631  14.212   7.231  11.302 -0.2016 -0.0640 -0.0067
36410DOPC   C1A44632  13.685   7.304  11.563  0.1267 -0.0416 -0.0305
36410DOPC   D2A44633  13.488   7.572  11.966  0.1662  0.4321  0.0401
36410DOPC   C3A44634  13.738   7.696  12.373 -0.0402 -0.1932 -0.1438
36410DOPC   C4A44635  13.856   7.944  12.795 -0.0773  0.3499 -0.1888
36410DOPC   C1B44636  14.246   7.141  11.711 -0.0916  0.1200 -0.0290
36410DOPC   D2B44637  14.280   6.968  12.172 -0.1691 -0.1467 -0.0294
36410DOPC   C3B44638  14.350   6.531  12.347  0.1409 -0.1794  0.3622
36410DOPC   C4B44639  14.602   6.295  12.618 -0.0973  0.3099 -0.1472
36411DOPC   NC344640   9.261   6.210  14.259  0.0581  0.1815 -0.4039
36411DOPC   PO444641   9.404   6.557  14.120  0.0605 -0.1869  0.1343
36411DOPC   GL144642   9.680   6.698  14.312 -0.2835  0.5753  0.1320
36411DOPC   GL244643   9.719   7.006  14.196 -0.2209  0.1838  0.0272
36411DOPC   C1A44644  10.041   6.391  14.534  0.1976  0.0323 -0.3807
36411DOPC   D2A44645  10.523   6.292  14.611  0.0818  0.2282  0.1798
36411DOPC   C3A44646  10.897   6.276  14.873  0.0456  0.0305  0.1372
36411DOPC   C4A44647  11.146   6.321  15.338  0.0455 -0.2186 -0.0165
36411DOPC   C1B44648  10.102   6.813  14.338 -0.0847 -0.2388 -0.1895
36411DOPC   D2B44649  10.601   6.763  14.332  0.1836  0.0560  0.0045
36411DOPC   C3B44650  10.991   6.826  14.665 -0.0512  0.1502 -0.1539
36411DOPC   C4B44651  11.407   6.903  14.793 -0.0410  0.0737  0.1281
36412DOPC   NC344652  14.971   1.999   9.853  0.3013 -0.0273  0.2472
36412DOPC   PO444653  14.815   1.803  10.171  0.1713 -0.2837 -0.1417
36412DOPC   GL144654  14.797   1.940  10.642  0.0464 -0.4399  0.3953
36412DOPC   GL244655  14.991   1.839  10.684 -0.0618 -0.0234  0.1240
36412DOPC   C1A44656  14.729   2.055  11.045 -0.0360 -0.2376  0.0418
36412DOPC   D2A44657  14.709   2.371  11.466  0.2564  0.1800 -0.0500
36412DOPC   C3A44658  14.708   2.178  11.881 -0.1705  0.1307  0.2424
36412DOPC   C4A44659  14.683   1.891  12.341 -0.0177  0.1688 -0.1097
36412DOPC   C1B44660  15.146   2.194  10.840  0.0860 -0.1759 -0.5025
36412DOPC   D2B44661  15.244   2.354  11.282 -0.4050  0.1336  0.1172
36412DOPC   C3B44662  15.139   2.356  11.713  0.0492 -0.1417 -0.0087
36412DOPC   C4B44663  15.077   2.432  12.229  0.3102 -0.1166  0.1973
36413DOPC   NC344664   9.130   2.404  13.991 -0.1323 -0.2773  0.1989
36413DOPC   PO444665   8.978   2.774  14.064  0.0528 -0.2137 -0.0078
36413DOPC   GL144666   9.163   3.071  14.339  0.0213  0.0787  0.3225
36413DOPC   GL244667   9.275   2.757  14.323  0.2125  0.2115  0.1111
36413DOPC   C1A44668   9.556   3.237  14.487 -0.2745  0.1504  0.0011
36413DOPC   D2A44669   9.986   3.306  14.832 -0.0793 -0.0678  0.1591
36413DOPC   C3A44670  10.271   2.959  14.901 -0.3813 -0.1908 -0.4522
36413DOPC   C4A44671  10.622   2.864  15.303  0.2671  0.1620 -0.1426
36413DOPC   C1B44672   9.472   2.751  14.727  0.0305  0.2612  0.0775
36413DOPC   D2B44673   9.760   2.939  15.047  0.1420  0.2147 -0.1030
36413DOPC   C3B44674  10.085   2.703  15.348  0.2759  0.2904  0.0376
36413DOPC   C4B44675  10.473   2.517  15.651  0.2220  0.2602  0.1653
36414DOPC   NC344676   4.523   5.557  18.374 -0.2462 -0.2076  0.3325
36414DOPC   PO444677   4.424   5.123  18.420  0.0202  0.0813  0.0694
36414DOPC   GL144678   4.543   4.911  18.830  0.0121 -0.1855  0.2643
36414DOPC   GL244679   4.298   5.177  18.870  0.0116 -0.1494  0.2889
36414DOPC   C1A44680   4.700   4.813  19.207 -0.1344 -0.1317  0.1517
36414DOPC   D2A44681   4.757   4.953  19.711  0.1084  0.1648  0.0192
36414DOPC   C3A44682   5.116   4.981  20.027 -0.1118 -0.4109 -0.1095
36414DOPC   C4A44683   5.552   4.979  20.213 -0.0002  0.2294  0.1191
36414DOPC   C1B44684   3.895   5.215  18.956 -0.0970 -0.1835  0.0151
36414DOPC   D2B44685   3.495   5.140  19.167 -0.0135  0.0827  0.1875
36414DOPC   C3B44686   3.159   5.039  19.456  0.3227  0.1051 -0.0879
36414DOPC   C4B44687   2.940   4.985  19.838 -0.0418 -0.3020 -0.1755
36415DOPC   NC344688   8.708   7.649  14.864 -0.1263  0.1079  0.0504
36415DOPC   PO444689   8.587   7.950  15.095  0.1274 -0.0432 -0.0733
36415DOPC   GL144690   8.735   8.063  15.474  0.2982 -0.4055 -0.0708
36415DOPC   GL244691   9.016   8.016  15.435 -0.0924  0.0128 -0.0420
36415DOPC   C1A44692   8.720   8.358  15.815  0.1167 -0.3322 -0.1561
36415DOPC   D2A44693   8.823   8.818  16.084 -0.1972 -0.0596  0.0190
36415DOPC   C3A44694   9.242   8.948  16.274 -0.0026  0.2016 -0.0330
36415DOPC   C4A44695   9.528   9.183  16.636 -0.1464  0.0662 -0.1537
36415DOPC   C1B44696   9.358   8.056  15.791 -0.2055  0.1582 -0.0853
36415DOPC   D2B44697   9.774   8.123  16.059  0.0090  0.1859  0.1715
36415DOPC   C3B44698   9.945   8.226  16.488 -0.0539 -0.1534 -0.2015
36415DOPC   C4B44699  10.049   8.135  16.921 -0.1316  0.1743 -0.1805
36416DOPC   NC344700   2.716   2.384  17.818 -0.2074 -0.0202 -0.2381
36416DOPC   PO444701   2.480   2.066  17.861  0.2659 -0.0831 -0.0658
36416DOPC   GL144702   2.151   2.077  18.014  0.1318 -0.1574 -0.3163
36416DOPC   GL244703   2.199   1.822  18.165 -0.2071  0.0335 -0.2215
36416DOPC   C1A44704   1.885   2.382  18.223  0.1170 -0.0523  0.0424
36416DOPC   D2A44705   1.695   2.366  18.721  0.0152  0.2595  0.0839
36416DOPC   C3A44706   1.630   1.961  18.960 -0.3425  0.0994  0.1302
36416DOPC   C4A44707   1.376   1.464  19.100 -0.3690 -0.0684 -0.2934
36416DOPC   C1B44708   1.884   1.882  18.488 -0.0363  0.0282 -0.2441
36416DOPC   D2B44709   1.457   1.691  18.630 -0.2172  0.1188 -0.2884
36416DOPC   C3B44710   1.102   1.813  18.845  0.1266  0.2887  0.1957
36416DOPC   C4B44711   0.879   2.064  19.139  0.3023  0.1092 -0.3864
36417DOPC   NC344712  23.941   0.103  14.810  0.0017  0.1133 -0.1629
36417DOPC   PO444713  24.244   0.195  15.063 -0.0817  0.4195 -0.2127
36417DOPC   GL144714  24.158   0.159  15.423 -0.2918 -0.0757 -0.0151
36417DOPC   GL244715  24.195   0.263  15.671  0.2351  0.0002  0.1867
36417DOPC   C1A44716  23.824  -0.071  15.459  0.2439  0.1196  0.0921
36417DOPC   D2A44717  23.484  -0.089  15.816 -0.0512 -0.5402 -0.0145
36417DOPC   C3A44718  23.266  -0.349  16.066  0.1464 -0.0461  0.3045
36417DOPC   C4A44719  23.035  -0.660  16.316  0.0744  0.1593 -0.1868
36417DOPC   C1B44720  23.964   0.051  16.002  0.1907  0.0860  0.3628
36417DOPC   D2B44721  23.631  -0.102  16.320  0.1054 -0.0849 -0.2969
36417DOPC   C3B44722  23.293   0.123  16.535 -0.2354  0.0671 -0.0467
36417DOPC   C4B44723  22.827   0.324  16.642  0.0518 -0.1447  0.1088
36418DOPC   NC344724   8.475   5.045  14.735  0.2668 -0.1417 -0.0599
36418DOPC   PO444725   8.752   5.065  14.985 -0.2226 -0.0433 -0.2719
36418DOPC   GL144726   9.190   5.220  14.994 -0.0478  0.1916 -0.2767
36418DOPC   GL244727   9.131   5.072  15.275 -0.4128 -0.1245  0.0787
36418DOPC   C1A44728   9.689   5.308  15.096 -0.5308 -0.0784 -0.2914
36418DOPC   D2A44729  10.138   5.294  15.087  0.2752 -0.0979  0.1981
36418DOPC   C3A44730  10.547   5.396  15.319  0.1021 -0.0131  0.1160
36418DOPC   C4A44731  10.832   5.777  15.386  0.0960  0.0154 -0.1238
36418DOPC   C1B44732   9.478   4.997  15.496  0.0308 -0.0571 -0.2823
36418DOPC   D2B44733   9.794   4.659  15.692 -0.0744  0.0339 -0.0490
36418DOPC   C3B44734  10.153   4.678  15.917  0.0376  0.1517 -0.0812
36418DOPC   C4B44735  10.596   4.823  16.113  0.1942 -0.2436 -0.0005
36419DOPC   NC344736   6.582   7.374  17.228  0.0134  0.2212 -0.0816
36419DOPC   PO444737   6.610   7.496  17.629 -0.2799 -0.0031 -0.1539
36419DOPC   GL144738   6.947   7.635  17.766 -0.0969 -0.0255  0.0098
36419DOPC   GL244739   6.900   7.647  18.031 -0.0006 -0.0114  0.0273
36419DOPC   C1A44740   7.324   7.461  17.795  0.3458  0.2417 -0.3786
36419DOPC   D2A44741   7.842   7.346  17.788 -0.1784  0.3941 -0.0299
36419DOPC   C3A44742   8.109   7.335  18.159 -0.2871 -0.1930  0.2872
36419DOPC   C4A44743   8.563   7.341  18.116  0.3034 -0.0503  0.1583
36419DOPC   C1B44744   7.210   7.392  18.339  0.0526 -0.1425 -0.0770
36419DOPC   D2B44745   7.377   7.024  18.622 -0.0572 -0.1113 -0.1613
36419DOPC   C3B44746   7.468   7.025  19.143 -0.0164  0.2094 -0.1250
36419DOPC   C4B44747   7.503   7.168  19.641  0.2448 -0.0305 -0.0935
36420DOPC   NC344748  24.012   1.194  14.940  0.2625  0.1485  0.0083
36420DOPC   PO444749  23.942   0.842  14.914  0.0952  0.1576 -0.1448
36420DOPC   GL144750  23.655   0.973  15.173 -0.1324  0.1039 -0.1871
36420DOPC   GL244751  23.830   1.201  15.313 -0.0682 -0.0936  0.0492
36420DOPC   C1A44752  23.338   0.851  15.430  0.1480  0.0770 -0.0713
36420DOPC   D2A44753  23.092   0.781  15.879  0.0438 -0.1855  0.0808
36420DOPC   C3A44754  22.696   0.508  15.993 -0.0787 -0.3332  0.0409
36420DOPC   C4A44755  22.477   0.042  16.144 -0.0637 -0.4755  0.0498
36420DOPC   C1B44756  23.581   1.239  15.652 -0.3088 -0.2480  0.0740
36420DOPC   D2B44757  23.162   1.269  15.853  0.1037 -0.2284 -0.0531
36420DOPC   C3B44758  22.768   1.306  16.161 -0.1040 -0.1719  0.2715
36420DOPC   C4B44759  22.289   1.347  16.186  0.1284  0.1125  0.1561
36421DOPC   NC344760   2.692   7.218  17.700 -0.0440 -0.1057 -0.1674
36421DOPC   PO444761   2.453   7.449  17.878 -0.4473 -0.1016  0.0902
36421DOPC   GL144762   2.318   7.530  18.245  0.2942  0.2672  0.2735
36421DOPC   GL244763   2.075   7.648  18.177 -0.2409 -0.2107  0.4287
36421DOPC   C1A44764   2.187   7.315  18.672  0.0924 -0.1776 -0.1648
36421DOPC   D2A44765   2.063   7.175  19.085 -0.2014  0.1461 -0.3585
36421DOPC   C3A44766   1.984   7.064  19.578 -0.1604 -0.0073  0.3511
36421DOPC   C4A44767   2.306   6.975  19.906 -0.0410  0.2166  0.0011
36421DOPC   C1B44768   1.769   7.350  18.305 -0.1235  0.0415 -0.1187
36421DOPC   D2B44769   1.370   7.035  18.439 -0.0868 -0.0604  0.0713
36421DOPC   C3B44770   1.409   6.821  18.866 -0.1983  0.0633  0.0442
36421DOPC   C4B44771   1.429   6.340  18.955  0.0833 -0.1704  0.1315
36422DOPA   PO444772  18.703   0.489  11.002  0.0427 -0.1230 -0.1884
36422DOPA   GL144773  18.675   0.534  11.450  0.0186  0.0399 -0.0272
36422DOPA   GL244774  18.786   0.329  11.525 -0.2092  0.1431 -0.1258
36422DOPA   C1A44775  18.510   0.799  11.767 -0.1836  0.0171  0.4012
36422DOPA   D2A44776  18.412   0.803  12.237  0.2368  0.1786 -0.2744
36422DOPA   C3A44777  18.252   0.903  12.692  0.1068  0.0089  0.1211
36422DOPA   C4A44778  17.927   1.058  13.072  0.0976 -0.0702 -0.0384
36422DOPA   C1B44779  18.997   0.177  11.823  0.1817  0.1937  0.1093
36422DOPA   D2B44780  19.091   0.018  12.326  0.0880  0.0873  0.0704
36422DOPA   C3B44781  18.653   0.163  12.268  0.0136  0.0883  0.0175
36422DOPA   C4B44782  18.426   0.334  11.821  0.0259  0.1090  0.0115
36423DOPA   PO444783   6.516   3.593  17.564  0.2285  0.1225  0.0942
36423DOPA   GL144784   6.798   3.526  17.909 -0.1987  0.3177  0.2680
36423DOPA   GL244785   6.694   3.796  18.032 -0.0198  0.0507 -0.0391
36423DOPA   C1A44786   7.008   3.416  18.277 -0.1592  0.1413  0.0278
36423DOPA   D2A44787   6.952   3.287  18.746 -0.0301 -0.4435 -0.0091
36423DOPA   C3A44788   7.005   3.442  19.223  0.3629  0.0462 -0.2368
36423DOPA   C4A44789   7.289   3.765  19.509 -0.0839  0.1394  0.2268
36423DOPA   C1B44790   6.942   4.019  18.372  0.0714  0.2083  0.0976
36423DOPA   D2B44791   7.291   4.217  18.753  0.0373 -0.2096 -0.0197
36423DOPA   C3B44792   7.616   4.340  19.089  0.0409 -0.1333 -0.1825
36423DOPA   C4B44793   8.107   4.400  19.186 -0.2794 -0.1013  0.0103
36424DOPA   PO444794  22.309   7.101  13.825 -0.0597 -0.0237  0.2461
36424DOPA   GL144795  22.111   6.747  13.989 -0.0945 -0.0593 -0.4002
36424DOPA   GL244796  22.322   6.817  14.236  0.0872  0.3175 -0.0875
36424DOPA   C1A44797  21.750   6.601  14.300  0.2175  0.2382 -0.1682
36424DOPA   D2A44798  21.536   6.443  14.743  0.0521 -0.0115 -0.1224
36424DOPA   C3A44799  21.229   6.443  15.064  0.0149 -0.0050 -0.1588
36424DOPA   C4A44800  20.955   6.062  15.296 -0.4858  0.0822 -0.3481
36424DOPA   C1B44801  22.104   7.145  14.495  0.1651 -0.0803 -0.2237
36424DOPA   D2B44802  21.815   7.190  14.919  0.1897 -0.1143  0.0712
36424DOPA   C3B44803  21.539   6.896  15.169 -0.3327 -0.2501 -0.0692
36424DOPA   C4B44804  21.280   6.754  15.545 -0.1383 -0.0294  0.2387
36425DOPA   PO444805   7.480   2.249  16.772 -0.1647 -0.0465  0.4474
36425DOPA   GL144806   7.589   2.543  17.176 -0.1670  0.1848 -0.2351
36425DOPA   GL244807   7.661   2.727  16.993  0.1212 -0.0236 -0.1008
36425DOPA   C1A44808   7.646   2.516  17.580  0.0171 -0.1158  0.2794
36425DOPA   D2A44809   7.638   2.398  18.065 -0.0158  0.0729 -0.1810
36425DOPA   C3A44810   7.554   2.573  18.488 -0.2488 -0.1313  0.1132
36425DOPA   C4A44811   7.575   2.702  19.024  0.0450 -0.0806  0.2679
36425DOPA   C1B44812   8.057   2.839  17.168  0.3594 -0.2977  0.0126
36425DOPA   D2B44813   8.393   2.972  17.507 -0.1903 -0.0970 -0.0089
36425DOPA   C3B44814   8.788   2.838  17.713  0.0864 -0.2095  0.2902
36425DOPA   C4B44815   9.208   2.687  17.867  0.5095 -0.0297 -0.0331
36426DOPA   PO444816  11.565   4.148  11.956 -0.0025 -0.4048 -0.0742
36426DOPA   GL144817  11.836   4.275  12.219 -0.1968 -0.1261 -0.1728
36426DOPA   GL244818  12.107   4.230  12.075 -0.2120  0.0218  0.1245
36426DOPA   C1A44819  11.711   4.592  12.499  0.3686 -0.2476 -0.2334
36426DOPA   D2A44820  11.846   4.905  12.800 -0.2828  0.0184 -0.1842
36426DOPA   C3A44821  11.798   5.050  13.257 -0.1920 -0.0546  0.2101
36426DOPA   C4A44822  11.707   5.011  13.739  0.1805  0.2082  0.1478
36426DOPA   C1B44823  12.358   4.302  12.391  0.2025  0.3243  0.0515
36426DOPA   D2B44824  12.809   4.352  12.695 -0.1956  0.1162 -0.0272
36426DOPA   C3B44825  12.684   4.655  13.021  0.0192 -0.0118 -0.2194
36426DOPA   C4B44826  12.597   4.824  13.514  0.0905  0.0403  0.0200
36427DOPA   PO444827  20.213   3.379  11.066 -0.1308  0.2372 -0.3088
36427DOPA   GL144828  20.106   3.281  11.519  0.3009  0.0558  0.0788
36427DOPA   GL244829  19.833   3.368  11.472  0.1681  0.0898 -0.2152
36427DOPA   C1A44830  20.003   3.274  11.955 -0.2230 -0.1509  0.1335
36427DOPA   D2A44831  19.721   3.260  12.353  0.1896 -0.0313 -0.2109
36427DOPA   C3A44832  19.425   3.436  12.597 -0.0562 -0.2491  0.1434
36427DOPA   C4A44833  19.128   3.575  12.936  0.0056 -0.0232 -0.0362
36427DOPA   C1B44834  19.555   3.494  11.824  0.1034  0.0866  0.0935
36427DOPA   D2B44835  19.330   3.756  12.156  0.3952 -0.1973 -0.0364
36427DOPA   C3B44836  19.622   4.005  11.980 -0.2293  0.2454 -0.2595
36427DOPA   C4B44837  20.073   4.165  12.265  0.0109  0.1339  0.0453
36428DOPA   PO444838  14.766   7.642  10.599  0.1829  0.3515  0.1667
36428DOPA   GL144839  14.645   7.565  10.929 -0.0327  0.0791  0.2643
36428DOPA   GL244840  14.872   7.500  11.084 -0.0594  0.2998 -0.0783
36428DOPA   C1A44841  14.416   7.635  11.248  0.1600  0.0755  0.1611
36428DOPA   D2A44842  14.527   7.672  11.737  0.0286 -0.1134  0.2875
36428DOPA   C3A44843  14.636   7.769  12.158 -0.2152 -0.0467 -0.0692
36428DOPA   C4A44844  14.789   8.106  12.484 -0.0711  0.1515  0.1114
36428DOPA   C1B44845  14.812   7.849  11.358  0.3719  0.0096 -0.1455
36428DOPA   D2B44846  14.904   8.271  11.552 -0.0327  0.2914  0.1508
36428DOPA   C3B44847  14.993   8.377  11.994  0.0109 -0.2898  0.0380
36428DOPA   C4B44848  15.257   8.372  12.485 -0.1394  0.3163  0.0168
36429DOPA   PO444849  17.535   4.499  10.850 -0.1013  0.0682 -0.1035
36429DOPA   GL144850  17.541   4.360  11.250  0.1362  0.1751  0.0632
36429DOPA   GL244851  17.314   4.629  11.313 -0.0090  0.0184  0.0046
36429DOPA   C1A44852  17.681   4.212  11.644  0.0567 -0.0066 -0.0413
36429DOPA   D2A44853  17.871   4.044  12.041  0.0443 -0.2463 -0.3776
36429DOPA   C3A44854  18.293   4.153  12.216 -0.1108  0.0266  0.2534
36429DOPA   C4A44855  18.713   4.070  11.958  0.0567  0.2322  0.0417
36429DOPA   C1B44856  17.383   4.791  11.674 -0.0408  0.1512 -0.1810
36429DOPA   D2B44857  17.264   4.746  12.151 -0.0478  0.1491 -0.0526
36429DOPA   C3B44858  16.860   4.496  12.198  0.3750  0.0103  0.2134
36429DOPA   C4B44859  16.581   4.125  12.285 -0.0490 -0.2218  0.0900
36430DOPA   PO444860  14.372   6.934  10.524  0.0802 -0.1626 -0.0342
36430DOPA   GL144861  14.420   6.883  10.926  0.2494  0.1278 -0.0726
36430DOPA   GL244862  14.646   7.063  11.022  0.0498  0.1880  0.1117
36430DOPA   C1A44863  14.411   6.751  11.308 -0.0505  0.0878 -0.0322
36430DOPA   D2A44864  14.393   6.615  11.825  0.0850  0.1343  0.2721
36430DOPA   C3A44865  14.731   6.755  12.002  0.0404 -0.1091 -0.1335
36430DOPA   C4A44866  15.159   6.908  11.866 -0.1546  0.2405  0.0766
36430DOPA   C1B44867  14.689   7.198  11.461  0.0221  0.0017  0.2189
36430DOPA   D2B44868  14.798   7.344  11.964 -0.0794  0.1091  0.1054
36430DOPA   C3B44869  14.685   7.243  12.407 -0.2944 -0.1435  0.2621
36430DOPA   C4B44870  14.409   6.943  12.663  0.2627  0.0576 -0.0008
36431DOPA   PO444871  20.292   1.899  11.193  0.0650 -0.1616 -0.0306
36431DOPA   GL144872  20.099   1.962  11.550  0.1994 -0.0612  0.2882
36431DOPA   GL244873  20.362   2.030  11.695  0.1837 -0.1132 -0.1543
36431DOPA   C1A44874  19.835   2.120  11.840 -0.2046  0.1645  0.0925
36431DOPA   D2A44875  19.470   1.965  12.123  0.0343  0.2205  0.3918
36431DOPA   C3A44876  19.200   2.147  12.482  0.0096  0.3339 -0.0446
36431DOPA   C4A44877  19.201   2.565  12.878 -0.2220 -0.1837  0.2470
36431DOPA   C1B44878  20.312   2.361  12.050  0.0199 -0.1138  0.3215
36431DOPA   D2B44879  20.335   2.763  12.351 -0.1274  0.0729  0.1483
36431DOPA   C3B44880  20.008   2.916  12.629  0.0724 -0.1591  0.0482
36431DOPA   C4B44881  19.891   3.067  13.097 -0.0269  0.2151 -0.1729
36432DOPA   PO444882   7.261   0.902  17.079  0.0043  0.1112  0.1276
36432DOPA   GL144883   7.499   1.115  17.440  0.1912  0.1104  0.0769
36432DOPA   GL244884   7.634   0.946  17.479 -0.2238  0.0286  0.0625
36432DOPA   C1A44885   7.711   1.523  17.317  0.2085 -0.0746  0.0547
36432DOPA   D2A44886   7.813   1.994  17.139  0.1023  0.2536 -0.0539
36432DOPA   C3A44887   8.039   2.340  17.258  0.0061  0.4202 -0.2295
36432DOPA   C4A44888   8.483   2.462  17.549  0.0663  0.2123  0.1607
36432DOPA   C1B44889   8.016   1.169  17.559 -0.0666 -0.1730 -0.0003
36432DOPA   D2B44890   8.257   1.493  17.922  0.3009 -0.0343 -0.1061
36432DOPA   C3B44891   8.586   1.197  18.045 -0.1660 -0.0503  0.0034
36432DOPA   C4B44892   9.050   0.890  18.028  0.1799 -0.0409 -0.3335
36433DOPA   PO444893   2.603   2.855  17.888 -0.1335  0.1273  0.1277
36433DOPA   GL144894   2.223   2.912  18.198 -0.0794 -0.0862 -0.3633
36433DOPA   GL244895   2.477   2.779  18.348 -0.0844 -0.1130 -0.0015
36433DOPA   C1A44896   2.027   3.293  18.414 -0.2378 -0.0765 -0.0018
36433DOPA   D2A44897   1.864   3.794  18.388 -0.0432 -0.0871 -0.1009
36433DOPA   C3A44898   1.474   3.938  18.605 -0.0020 -0.0843  0.2837
36433DOPA   C4A44899   1.122   4.231  18.378 -0.1218  0.1938 -0.0396
36433DOPA   C1B44900   2.332   2.928  18.742 -0.3514 -0.1237  0.2763
36433DOPA   D2B44901   2.017   3.413  18.908  0.0521  0.0036 -0.1233
36433DOPA   C3B44902   1.677   3.699  19.052 -0.0610 -0.1285 -0.0879
36433DOPA   C4B44903   1.358   4.119  19.054 -0.0069  0.2010 -0.2006
36434DOPA   PO444904  12.629   0.918  11.418 -0.1337 -0.3643  0.0262
36434DOPA   GL144905  12.606   0.999  11.874  0.1048  0.0024  0.1374
36434DOPA   GL244906  12.498   1.248  11.815  0.2018 -0.3153 -0.2495
36434DOPA   C1A44907  12.694   0.927  12.326  0.0803  0.1020 -0.1222
36434DOPA   D2A44908  12.756   0.887  12.803 -0.3091 -0.1300  0.3094
36434DOPA   C3A44909  13.093   0.636  12.998 -0.1943  0.1343  0.1837
36434DOPA   C4A44910  13.140   0.516  13.527  0.2183 -0.1476  0.1905
36434DOPA   C1B44911  12.645   1.497  12.169  0.1440 -0.0458 -0.2776
36434DOPA   D2B44912  12.662   1.727  12.604 -0.0522 -0.0392 -0.2389
36434DOPA   C3B44913  12.880   1.903  12.909  0.1882  0.2377 -0.0626
36434DOPA   C4B44914  13.307   1.877  13.227  0.0255 -0.2982  0.1761
36435DOPA   PO444915   8.761   0.214  14.547  0.0675 -0.1444 -0.2581
36435DOPA   GL144916   9.075   0.322  14.791  0.0762  0.0685  0.0314
36435DOPA   GL244917   9.080   0.129  15.038  0.0972 -0.1219 -0.2022
36435DOPA   C1A44918   9.377   0.586  14.976 -0.0829  0.1087 -0.2829
36435DOPA   D2A44919   9.820   0.766  15.202  0.1075  0.1040 -0.0302
36435DOPA   C3A44920  10.112   0.711  15.517 -0.2741  0.2069 -0.1067
36435DOPA   C4A44921  10.592   0.711  15.737 -0.1320  0.2607 -0.3259
36435DOPA   C1B44922   9.453   0.183  15.283  0.0728  0.0541 -0.0291
36435DOPA   D2B44923   9.860   0.238  15.580 -0.1628  0.0142  0.1491
36435DOPA   C3B44924  10.325   0.321  15.748 -0.3763 -0.1621  0.0040
36435DOPA   C4B44925  10.688   0.338  16.124 -0.1527 -0.0300  0.0019
36436DOPA   PO444926   3.022   6.179  18.383 -0.0731 -0.0332  0.0699
36436DOPA   GL144927   3.295   6.282  18.674 -0.1301 -0.0679 -0.0096
36436DOPA   GL244928   3.320   6.048  18.715 -0.0067  0.0098  0.1305
36436DOPA   C1A44929   3.493   6.468  19.133  0.1799  0.2250  0.0345
36436DOPA   D2A44930   3.417   6.743  19.541  0.1220  0.1548  0.0738
36436DOPA   C3A44931   3.041   6.610  19.739 -0.2039 -0.1393  0.1900
36436DOPA   C4A44932   2.636   6.573  19.941  0.2110 -0.0342 -0.0288
36436DOPA   C1B44933   3.459   5.920  19.128  0.1670  0.0100  0.2113
36436DOPA   D2B44934   3.597   5.536  19.438  0.0588  0.0034 -0.0127
36436DOPA   C3B44935   3.711   5.751  19.791 -0.4323  0.3808  0.2410
36436DOPA   C4B44936   3.876   5.955  20.173  0.0143  0.0802  0.0356
36437DOPA   PO444937  23.698   4.208  14.810  0.1615 -0.0130 -0.0503
36437DOPA   GL144938  23.401   4.226  15.137 -0.0390 -0.0456  0.1583
36437DOPA   GL244939  23.490   4.497  15.137  0.0315 -0.1807  0.0554
36437DOPA   C1A44940  22.992   4.160  15.002 -0.0864 -0.2436  0.0411
36437DOPA   D2A44941  22.545   3.956  14.916  0.1257  0.0692 -0.0777
36437DOPA   C3A44942  22.300   3.750  15.265 -0.0502  0.1215  0.0696
36437DOPA   C4A44943  22.057   3.948  15.704  0.2179 -0.0941 -0.1396
36437DOPA   C1B44944  23.420   4.877  15.352  0.3495 -0.0675  0.2219
36437DOPA   D2B44945  23.361   5.287  15.583  0.2142 -0.1929  0.0085
36437DOPA   C3B44946  22.912   5.503  15.603  0.1561  0.1668 -0.0756
36437DOPA   C4B44947  22.521   5.752  15.653  0.1694 -0.2332  0.1888
36438DOPA   PO444948  21.838   0.632  13.281  0.1814  0.0185 -0.0652
36438DOPA   GL144949  21.754   0.595  13.634 -0.4427  0.1674  0.0623
36438DOPA   GL244950  21.484   0.601  13.625  0.2423  0.1778  0.2929
36438DOPA   C1A44951  21.905   0.633  14.040  0.2475 -0.0158  0.0767
36438DOPA   D2A44952  22.060   0.693  14.524  0.4903  0.2136  0.0996
36438DOPA   C3A44953  21.827   0.463  14.876  0.0887  0.1471  0.0135
36438DOPA   C4A44954  21.338   0.444  15.088  0.0871  0.2143  0.1052
36438DOPA   C1B44955  21.392   0.506  14.075  0.0125  0.1309  0.1367
36438DOPA   D2B44956  21.421   0.627  14.593  0.0170  0.2232 -0.0552
36438DOPA   C3B44957  21.524   0.892  15.002  0.0441  0.1456 -0.0913
36438DOPA   C4B44958  21.577   1.071  15.409 -0.3233 -0.1049 -0.1753
36439DOPA   PO444959   8.815   4.629  14.623  0.3351  0.2061  0.0569
36439DOPA   GL144960   9.155   4.727  14.882 -0.0674  0.2528  0.1025
36439DOPA   GL244961   9.293   4.477  14.766  0.2991 -0.3225  0.0757
36439DOPA   C1A44962   9.439   4.567  15.215  0.0755  0.0151  0.0863
36439DOPA   D2A44963   9.850   4.235  15.252 -0.0247  0.1894  0.0202
36439DOPA   C3A44964  10.213   4.395  15.503  0.2922 -0.2902  0.3224
36439DOPA   C4A44965  10.595   4.419  15.786  0.1750 -0.0503 -0.2503
36439DOPA   C1B44966   9.514   4.145  14.957 -0.1426  0.1292  0.0539
36439DOPA   D2B44967   9.604   3.771  15.269 -0.2387 -0.0474 -0.1257
36439DOPA   C3B44968   9.904   3.708  15.724 -0.1864  0.1227  0.0116
36439DOPA   C4B44969  10.240   3.531  16.072 -0.0418 -0.0021  0.1227
36440DOPA   PO444970   0.743   1.852  16.422 -0.1410  0.0344 -0.0491
36440DOPA   GL144971   0.612   2.028  16.851  0.3085  0.0522  0.1496
36440DOPA   GL244972   0.464   1.807  16.883  0.1737 -0.2874  0.0189
36440DOPA   C1A44973   0.162   2.082  17.060 -0.0484  0.0590  0.4122
36440DOPA   D2A44974  -0.213   2.229  17.293  0.0274 -0.5673 -0.0633
36440DOPA   C3A44975  -0.328   2.042  17.673 -0.2586 -0.0599  0.2151
36440DOPA   C4A44976  -0.472   2.148  18.183 -0.1476  0.1154 -0.1867
36440DOPA   C1B44977   0.269   1.565  17.236  0.4234 -0.0720  0.2224
36440DOPA   D2B44978  -0.184   1.497  17.467  0.0271 -0.1989  0.2568
36440DOPA   C3B44979  -0.430   1.176  17.602 -0.1360 -0.1127  0.0023
36440DOPA   C4B44980  -0.733   1.133  18.002 -0.1388  0.2564 -0.2006
36441DOPA   PO444981  21.843   7.562  13.688 -0.2587  0.2633  0.1079
36441DOPA   GL144982  21.835   7.585  14.103  0.1423 -0.1579  0.2191
36441DOPA   GL244983  22.181   7.524  14.045 -0.1317 -0.0409 -0.4794
36441DOPA   C1A44984  21.586   7.500  14.471  0.2774 -0.2642 -0.0357
36441DOPA   D2A44985  21.179   7.480  14.531 -0.0175  0.0632 -0.1789
36441DOPA   C3A44986  21.021   7.119  14.321  0.3225  0.1091  0.2310
36441DOPA   C4A44987  20.927   6.702  14.044 -0.1435  0.0065 -0.0467
36441DOPA   C1B44988  22.098   7.658  14.433 -0.1791  0.0014 -0.1743
36441DOPA   D2B44989  21.951   7.784  14.844  0.1844 -0.0720  0.0592
36441DOPA   C3B44990  21.612   7.778  15.129 -0.1183  0.1357 -0.1513
36441DOPA   C4B44991  21.246   7.885  15.427  0.2260  0.1526 -0.1669
36442DOPA   PO444992  11.246   5.720  12.037 -0.1003  0.0925 -0.4384
36442DOPA   GL144993  11.502   5.781  12.350  0.5092 -0.5644  0.2334
36442DOPA   GL244994  11.637   6.046  12.257 -0.0798  0.2981  0.0617
36442DOPA   C1A44995  11.805   5.626  12.594  0.2018 -0.4683  0.2105
36442DOPA   D2A44996  12.194   5.324  12.809 -0.1335 -0.2109  0.1127
36442DOPA   C3A44997  12.320   5.125  13.216 -0.0075 -0.0568 -0.3646
36442DOPA   C4A44998  12.252   5.133  13.704 -0.0610  0.1354 -0.0312
36442DOPA   C1B44999  11.939   6.072  12.556 -0.0209 -0.1763  0.2580
36442DOPA   D2B45000  12.329   6.149  12.925 -0.1733  0.2113 -0.1635
36442DOPA   C3B45001  12.732   6.122  12.700 -0.3496  0.2467  0.1520
36442DOPA   C4B45002  13.117   6.304  12.387  0.0371  0.0867 -0.1724
36443DOPA   PO445003   7.127   6.336  17.082  0.1412  0.1121 -0.2171
36443DOPA   GL145004   7.212   6.609  17.403 -0.1643 -0.1426 -0.0985
36443DOPA   GL245005   7.095   6.604  17.570 -0.1640  0.2383  0.0733
36443DOPA   C1A45006   7.643   6.556  17.444 -0.0724 -0.0225  0.1162
36443DOPA   D2A45007   8.180   6.599  17.456  0.0010 -0.0423 -0.0063
36443DOPA   C3A45008   8.497   6.418  17.773 -0.0248  0.1659  0.2458
36443DOPA   C4A45009   8.810   6.440  18.147 -0.0343 -0.1527  0.0971
36443DOPA   C1B45010   7.429   6.480  17.892 -0.0897 -0.0171 -0.1757
36443DOPA   D2B45011   7.657   6.570  18.300  0.1057 -0.0493 -0.2404
36443DOPA   C3B45012   7.904   6.412  18.592  0.0233  0.0653 -0.1583
36443DOPA   C4B45013   8.280   6.221  18.836 -0.3524  0.0404 -0.3015
36444DOPA   PO445014  19.848   6.643  11.675 -0.0421  0.0049  0.1894
36444DOPA   GL145015  19.796   6.495  12.011 -0.0042  0.4247 -0.0628
36444DOPA   GL245016  19.835   6.227  12.098  0.0926  0.0215  0.0417
36444DOPA   C1A45017  19.445   6.432  12.354  0.1132  0.2499 -0.0874
36444DOPA   D2A45018  19.357   6.232  12.769 -0.1130  0.0763  0.2614
36444DOPA   C3A45019  18.895   6.315  12.792 -0.1603 -0.0694 -0.0355
36444DOPA   C4A45020  18.429   6.263  12.674  0.3708 -0.3312 -0.3767
36444DOPA   C1B45021  19.750   5.948  12.396  0.0481 -0.1649 -0.1085
36444DOPA   D2B45022  19.662   5.668  12.811  0.2276  0.0344  0.0307
36444DOPA   C3B45023  19.740   5.334  13.128  0.1893 -0.0671  0.0840
36444DOPA   C4B45024  19.617   5.214  13.637  0.2296  0.0365 -0.1376
36445DOPA   PO445025  10.893   6.141  12.680  0.1076 -0.3678  0.2610
36445DOPA   GL145026  11.248   5.918  12.752 -0.2444 -0.1937 -0.1948
36445DOPA   GL245027  11.446   6.164  12.686  0.0448  0.0875  0.2938
36445DOPA   C1A45028  11.454   5.856  13.152 -0.0648  0.0249  0.1292
36445DOPA   D2A45029  11.564   5.856  13.652  0.0443  0.0709 -0.0164
36445DOPA   C3A45030  11.953   5.890  13.970 -0.3397 -0.3074  0.0515
36445DOPA   C4A45031  12.397   6.021  14.231  0.0163  0.1947  0.1766
36445DOPA   C1B45032  11.786   6.296  13.015  0.1145 -0.0063  0.1614
36445DOPA   D2B45033  12.123   6.609  13.235  0.0695  0.3167  0.0614
36445DOPA   C3B45034  12.438   6.329  13.404 -0.1726  0.1216 -0.3588
36445DOPA   C4B45035  12.813   6.050  13.569 -0.0250  0.0539  0.2240
36446DOPA   PO445036   4.985   1.689  18.642  0.1885 -0.4105 -0.0173
36446DOPA   GL145037   4.798   1.599  18.997  0.0376  0.1712  0.1288
36446DOPA   GL245038   5.129   1.468  19.077 -0.2702 -0.2153  0.0146
36446DOPA   C1A45039   4.711   1.851  19.424  0.1425 -0.0884 -0.0827
36446DOPA   D2A45040   4.872   2.102  19.859  0.1020 -0.1822  0.1240
36446DOPA   C3A45041   4.808   2.474  20.159  0.1211  0.0239  0.0528
36446DOPA   C4A45042   4.851   2.891  20.372  0.0350 -0.1969  0.0989
36446DOPA   C1B45043   5.190   1.568  19.507  0.2167  0.1287  0.0470
36446DOPA   D2B45044   5.170   1.737  19.932 -0.0148 -0.0562 -0.0898
36446DOPA   C3B45045   5.286   1.712  20.347  0.0639 -0.1544 -0.0158
36446DOPA   C4B45046   5.399   1.724  20.850 -0.0836 -0.0273 -0.1579
36447W        W45047   6.737   3.776  10.667 -0.0776 -0.0234 -0.1638
36448W        W45048   7.659   7.004   1.587 -0.1481 -0.0562 -0.3228
36449W        W45049  10.932   7.289   7.967 -0.1914  0.3065  0.1699
36450W        W45050   9.793   1.924  13.115 -0.1097 -0.0345 -0.3322
36451W        W45051   7.496   6.794  10.097 -0.0481  0.0521 -0.1703
36452W        W45052  22.600   6.052  32.128  0.0960  0.1472  0.2559
36453W        W45053  21.239   3.357   4.484  0.0945  0.1140  0.2232
36454W        W45054  21.053   2.731   3.915  0.0615  0.0928 -0.0933
36455W        W45055  14.868   5.360   4.402 -0.0257 -0.0890 -0.2728
36456W        W45056  11.496   1.720  31.985 -0.3908 -0.1769 -0.0190
36457W        W45057   5.737   3.005  25.098 -0.1652  0.1286 -0.3527
36458W        W45058   7.458   2.175   7.692 -0.1272  0.0962 -0.0958
36459W        W45059  12.154   7.601  27.314 -0.1533 -0.2835  0.0105
36460W        W45060  22.724   5.116  30.328  0.3818 -0.1044 -0.0663
36461W        W45061  24.350   2.838   2.280 -0.1207  0.2143 -0.1816
36462W        W45062   3.102   6.640  15.615  0.1178 -0.2450 -0.2733
36463W        W45063   5.595   2.046  27.996 -0.1111  0.0647 -0.2114
36464W        W45064  19.805   4.837  27.135 -0.0931  0.0251 -0.1145
36465W        W45065   3.427   2.132  32.895  0.2488 -0.0289  0.1831
36466W        W45066   1.909   2.246   8.775 -0.3137 -0.0676 -0.0289
36467W        W45067   1.368   4.142   8.809  0.1706  0.1682 -0.2254
36468W        W45068   2.063   4.688  25.133 -0.0413  0.1173  0.0693
36469W        W45069  13.375   2.997   8.539  0.1849 -0.0304 -0.2227
36470W        W45070   4.546   0.286  10.336  0.1556 -0.0119  0.2181
36471W        W45071  16.434   3.296  31.637  0.0241  0.0729  0.1800
36472W        W45072  22.374   5.975   6.916  0.1385  0.0311 -0.2125
36473W        W45073  20.283   3.574   9.227 -0.1137 -0.0771 -0.1565
36474W        W45074  20.002   5.688   7.433 -0.0714 -0.1124  0.0653
36475W        W45075  16.715   5.847  24.988 -0.0146  0.1963 -0.0946
36476W        W45076   8.957   6.497  31.330 -0.1369 -0.2200 -0.1691
36477W        W45077  12.539   6.894   4.111  0.1213 -0.0224 -0.1352
36478W        W45078   3.229   3.614   6.124 -0.0324  0.1435 -0.0414
36479W        W45079   4.586   1.730  17.285  0.0391 -0.0703  0.0237
36480W        W45080  10.611   0.877   1.431  0.1225 -0.2605 -0.0866
36481W        W45081  16.628   7.472   8.842  0.0413  0.0013  0.1711
36482W        W45082  10.522   4.653   4.730 -0.1418  0.0027  0.1012
36483W        W45083  13.445   7.434   9.288  0.1561 -0.1391 -0.0300
36484W        W45084  15.436   4.547  26.857  0.3324 -0.0375 -0.1580
36485W        W45085   3.454   6.253  28.493  0.2900  0.3445 -0.1064
36486W        W45086  19.887   6.633   1.114 -0.0908 -0.0075  0.0933
36487W        W45087  24.515   0.730  24.234 -0.2385 -0.1193 -0.1577
36488W        W45088   6.845   1.251  32.617 -0.1020  0.1829  0.4745
36489W        W45089   9.371   6.586  10.774 -0.0203 -0.0592 -0.0673
36490W        W45090   3.609   1.738  16.584 -0.1654 -0.2124  0.2725
36491W        W45091  24.816   4.871   6.504 -0.0818 -0.0646  0.2201
36492W        W45092  12.814   4.813   8.450 -0.0776  0.0532 -0.0127
36493W        W45093   1.076   7.440  24.384 -0.1600 -0.0318  0.1437
36494W        W45094  24.356   1.076  26.452  0.0650 -0.0377  0.3803
36495W        W45095   2.129   6.998   7.960 -0.0014 -0.0036  0.1080
36496W        W45096  13.256   6.442   6.811 -0.1152  0.0064  0.0086
36497W        W45097  15.353   2.166   4.168  0.1208 -0.1647 -0.0355
36498W        W45098   6.713   1.954  14.376  0.0443 -0.1174 -0.3247
36499W        W45099  10.944   3.457   6.090 -0.1784 -0.0804 -0.0960
36500W        W45100  17.997   1.328  16.449 -0.3428  0.3597 -0.1635
36501W        W45101  10.044   0.110  24.495  0.0823 -0.2565  0.0215
36502W        W45102   1.175   4.244  16.611  0.0013  0.2124 -0.1474
36503W        W45103  13.355   7.628  21.235  0.0550 -0.0014 -0.1888
36504W        W45104  22.437   4.672  25.723  0.1173  0.0662 -0.0732
36505W        W45105   3.741   1.515   6.098 -0.3147  0.1823 -0.0625
36506W        W45106  18.259   3.788  19.735 -0.0048  0.0202  0.1527
36507W        W45107  15.986   6.898  27.782 -0.2685  0.0274  0.1178
36508W        W45108  17.215   6.227   2.787  0.1020 -0.1419  0.0592
36509W        W45109   1.174   2.914   3.141 -0.1640 -0.0393  0.0511
36510W        W45110  21.655   5.143  30.995 -0.2441 -0.2779  0.1709
36511W        W45111  23.533   6.598   9.738  0.0156  0.3064  0.0401
36512W        W45112   0.646   4.160   7.503 -0.2238 -0.0362  0.1806
36513W        W45113   9.162   3.244   1.145  0.0165  0.1336 -0.1659
36514W        W45114  19.893   1.115  17.332 -0.0283  0.3411 -0.0543
36515W        W45115   9.496   7.591   3.562 -0.0565  0.1241  0.1192
36516W        W45116  16.644   3.328   3.434  0.2371  0.2060 -0.2853
36517W        W45117  11.430   4.606   6.537 -0.0634 -0.0228  0.0159
36518W        W45118  24.678   3.440  32.311  0.1746 -0.0040 -0.0704
36519W        W45119  10.890   1.767   5.133  0.0023 -0.1208 -0.3786
36520W        W45120  11.051   1.355  31.059 -0.0441  0.1551  0.2055
36521W        W45121  11.093   5.004   9.280 -0.0607 -0.0804  0.0351
36522W        W45122  11.918   6.785  30.094  0.0976 -0.3511 -0.1045
36523W        W45123  21.794   0.692  19.123  0.2677 -0.1776 -0.0645
36524W        W45124   8.317   0.431  24.226  0.4192  0.2730  0.1391
36525W        W45125   1.045   0.493  25.964  0.0202  0.1876  0.1447
36526W        W45126  15.262   6.057  20.410 -0.0250 -0.4383  0.0343
36527W        W45127   8.400   5.549   6.761 -0.4448 -0.0742 -0.3357
36528W        W45128  24.178   0.031   5.643  0.0658  0.1085 -0.3693
36529W        W45129   7.962   4.920   6.110  0.0572  0.1536  0.1470
36530W        W45130   2.625   6.234  29.802  0.1558 -0.0487  0.2256
36531W        W45131  10.323   2.067  22.872 -0.1285 -0.0743 -0.1480
36532W        W45132   9.463   7.546  22.322 -0.1851  0.3244  0.0318
36533W        W45133  23.040   3.062  11.220 -0.0937 -0.3980  0.3918
36534W        W45134   9.215   2.603   9.519 -0.3386 -0.1495 -0.1929
36535W        W45135   1.992   0.738  16.989  0.1013 -0.0074  0.1190
36536W        W45136   1.400   4.420  28.694  0.0874  0.4410  0.0131
36537W        W45137  15.616   1.153  25.838  0.0272 -0.0129  0.0795
36538W        W45138  16.148   1.242   6.994  0.1489 -0.1209 -0.1769
36539W        W45139   2.475   0.135   5.074  0.0065  0.1915 -0.0016
36540W        W45140  23.306   5.616   5.002 -0.0414 -0.3379 -0.0224
36541W        W45141  18.703   1.964  28.299  0.1125  0.0596 -0.0770
36542W        W45142   9.454   4.203  26.101  0.0823  0.0684 -0.2616
36543W        W45143   4.981   5.118  29.424 -0.2707  0.1212  0.1549
36544W        W45144  20.811   2.772  25.145 -0.0433 -0.0010 -0.0094
36545W        W45145  11.734   5.447  25.656  0.1426  0.0187 -0.0490
36546W        W45146  17.290   3.342   1.439  0.2328  0.3298 -0.1336
36547W        W45147   2.044   1.390  15.792  0.3545 -0.1327  0.0777
36548W        W45148  17.263   4.660  22.828  0.0843  0.5364 -0.1538
36549W        W45149   4.206   0.241  31.451  0.1056 -0.0541 -0.1114
36550W        W45150  14.668   2.043  29.605 -0.0552 -0.0459  0.1179
36551W        W45151  16.889   0.574   9.264  0.1863  0.0321 -0.0829
36552W        W45152  23.690   4.705  13.533  0.0222  0.1301  0.2506
36553W        W45153  12.883   7.644  17.040 -0.0880 -0.0735 -0.0643
36554W        W45154  21.716   1.288   2.994 -0.0781 -0.0639  0.0032
36555W        W45155   7.499   3.907   8.625  0.1025  0.2493  0.2751
36556W        W45156  13.490   2.571  19.713 -0.1769 -0.1184 -0.1449
36557W        W45157  17.120   1.934   3.169  0.0695  0.1106  0.0792
36558W        W45158   7.543   0.949  26.171  0.0423 -0.0365  0.0874
36559W        W45159  11.581   2.719  24.068  0.0589 -0.0186 -0.0466
36560W        W45160  21.682   3.300   6.112  0.1790 -0.4266  0.0385
36561W        W45161   1.347   0.529   8.447  0.0152 -0.1826 -0.2249
36562W        W45162   5.122   5.762  24.060  0.1035 -0.3597  0.1878
36563W        W45163  10.864   6.212   3.865 -0.0088  0.0720 -0.4998
36564W        W45164   3.500   5.880  25.565 -0.3514 -0.2037 -0.0314
36565W        W45165   8.325   0.930  30.025  0.2977 -0.0640  0.5311
36566W        W45166   4.085   0.387  16.287 -0.1334  0.0441  0.1149
36567W        W45167   7.083   6.112  14.373  0.1027 -0.0879  0.2300
36568W        W45168  21.336   5.331  30.098  0.2035  0.1033 -0.1117
36569W        W45169  24.272   7.230  24.186  0.0145  0.2841 -0.0093
36570W        W45170  12.532   2.052   2.666  0.1995 -0.0122  0.0197
36571W        W45171  24.847   3.764  12.067 -0.1215 -0.0325  0.1235
36572W        W45172   0.501   5.039  10.957 -0.0581 -0.0377  0.0618
36573W        W45173  18.954   0.085  26.389  0.1754 -0.1478  0.1651
36574W        W45174  13.597   5.668  29.474 -0.1936 -0.0853  0.0505
36575W        W45175  15.521   2.992  28.068  0.0737  0.2359 -0.0239
36576W        W45176   7.595   7.668  13.220  0.1480 -0.0315 -0.1437
36577W        W45177  24.156   3.213   2.011 -0.0601  0.1651  0.1480
36578W        W45178  24.106   5.820   8.302  0.1666  0.1221 -0.1458
36579W        W45179   8.620   3.370  13.554  0.0971 -0.0553 -0.0595
36580W        W45180   6.420   0.617  11.077  0.1747  0.1359 -0.1421
36581W        W45181   0.437   5.633  22.779  0.4909  0.1062 -0.0704
36582W        W45182  16.178   1.527  27.921 -0.2457 -0.1477 -0.0742
36583W        W45183   6.004   3.550   6.956  0.0237  0.1459  0.0836
36584W        W45184   4.603   2.725   3.043  0.0764  0.0140 -0.2212
36585W        W45185   0.220   0.940  31.888  0.0714 -0.1188 -0.0323
36586W        W45186   2.543   4.770  10.989 -0.0201  0.1839  0.0707
36587W        W45187  18.809   2.716   7.243  0.2189 -0.1023  0.5420
36588W        W45188  17.460   1.141  30.942 -0.1277  0.1681  0.0972
36589W        W45189  24.509   0.527  13.636 -0.2020  0.4335  0.1656
36590W        W45190   5.082   7.232  12.629 -0.0904  0.1730  0.1718
36591W        W45191  24.541   5.895  25.580 -0.0735 -0.0969 -0.0262
36592W        W45192   9.959   5.243   8.691  0.0926 -0.0372 -0.2024
36593W        W45193   9.457   1.670   3.861 -0.0571 -0.0109  0.1219
36594W        W45194  11.009   5.911  21.257 -0.1181 -0.1326  0.2440
36595W        W45195   0.503   7.785  29.559 -0.0099  0.4270 -0.1051
36596W        W45196   8.142   6.675   1.570 -0.3666 -0.0650  0.2643
36597W        W45197  19.588   7.132   6.047 -0.0727  0.1910  0.1288
36598W        W45198   7.040   5.224  23.001  0.0743 -0.2834  0.0662
36599W        W45199   5.308   5.232   1.342 -0.3125 -0.1155 -0.2011
36600W        W45200  19.044   4.320  21.961 -0.5337  0.2152  0.2700
36601W        W45201  18.724   6.777   8.507  0.0564  0.2088  0.1165
36602W        W45202  20.863   1.503   5.079  0.1270  0.1046 -0.1238
36603W        W45203  16.240   4.251   5.962 -0.2322 -0.1212 -0.1620
36604W        W45204  22.277   6.853  26.827 -0.1363 -0.2568 -0.3800
36605W        W45205   9.482   5.838  13.408 -0.2478 -0.1099  0.2327
36606W        W45206   7.176   6.061  30.356  0.1916  0.2400  0.0014
36607W        W45207  14.846   0.987   2.946  0.2592  0.2177 -0.5730
36608W        W45208   7.861   6.441  28.972  0.0628  0.0176  0.0069
36609W        W45209  14.432   2.016  31.101  0.3067 -0.0081  0.3418
36610W        W45210  15.339   3.514  24.484  0.2287 -0.0156 -0.0573
36611W        W45211  23.500   2.096   8.600 -0.2002 -0.2104 -0.0479
36612W        W45212  18.735   2.828  18.890  0.2042 -0.0114  0.0087
36613W        W45213   4.316   7.494   0.557 -0.0395  0.0896 -0.0179
36614W        W45214  24.592   6.951  15.451  0.0367  0.0407 -0.0648
36615W        W45215  16.754   3.249   5.781 -0.1990 -0.0038 -0.0017
36616W        W45216   6.840   2.781   2.924  0.0759 -0.0034  0.0834
36617W        W45217  16.030   0.529   9.749  0.1407  0.2801 -0.0944
36618W        W45218  22.916   5.204   8.504  0.1811  0.1091 -0.0074
36619W        W45219  14.940   2.854  31.083 -0.1436  0.1125 -0.0614
36620W        W45220   9.954   0.744   6.039  0.2409  0.0525 -0.3553
36621W        W45221  16.919   7.249   2.781 -0.2689 -0.1889  0.0801
36622W        W45222   3.974   5.088   7.964  0.0191 -0.2085 -0.0530
36623W        W45223  12.385   0.109  24.744 -0.0545 -0.3737  0.1810
36624W        W45224  20.104   7.519   7.424  0.0699 -0.2133 -0.1192
36625W        W45225   5.018   0.864   3.714 -0.0715  0.3789 -0.0667
36626W        W45226  19.604   3.224  24.760 -0.0664  0.0312  0.2295
36627W        W45227   3.495   4.961  31.680  0.0914 -0.1662 -0.0513
36628W        W45228  22.479   4.327  21.683  0.0429  0.0074  0.1920
36629W        W45229  15.498   0.251   1.154 -0.1915 -0.2426  0.3867
36630W        W45230   1.977   2.903  25.989 -0.1076 -0.1234  0.0948
36631W        W45231  16.745   0.719   4.394  0.0019  0.1335 -0.0197
36632W        W45232   1.218   5.579  25.020  0.2976 -0.1071 -0.1803
36633W        W45233  21.667   6.514  29.109  0.2435  0.2659 -0.2725
36634W        W45234  12.301   1.046  21.788  0.0379 -0.2288 -0.1617
36635W        W45235  14.465   7.276   6.891 -0.0680 -0.0143  0.1191
36636W        W45236  23.808   5.756  31.557 -0.1255  0.1454  0.2186
36637W        W45237  15.092   5.277   7.324  0.0534  0.1391 -0.0392
36638W        W45238   7.110   4.183   1.684  0.1061  0.1107  0.1882
36639W        W45239   9.777   1.197  24.393 -0.0922 -0.3214  0.0845
36640W        W45240  14.824   6.178  28.264  0.1300  0.2566  0.1461
36641W        W45241  18.408   2.079  16.467  0.1154 -0.0077 -0.1156
36642W        W45242  19.338   7.245  28.046 -0.0026 -0.1129  0.0826
36643W        W45243   0.227   4.649   5.421 -0.0272  0.0001 -0.0098
36644W        W45244  14.301   4.023   1.716 -0.1812 -0.0232  0.1735
36645W        W45245  17.442   1.056  24.262  0.2586 -0.2186  0.1520
36646W        W45246  24.386   3.850   7.529  0.1753  0.2530  0.1065
36647W        W45247  16.098   4.630  14.054  0.1116 -0.0690  0.2398
36648W        W45248  23.554   3.428  12.610 -0.0738 -0.0941 -0.1603
36649W        W45249  12.946   0.385  25.916 -0.0576 -0.1230 -0.0438
36650W        W45250   3.883   3.368  16.941 -0.0964 -0.1475  0.1291
36651W        W45251  14.887   2.465  20.140  0.0563 -0.1787  0.2323
36652W        W45252  16.732   4.844  28.059  0.1729  0.2497 -0.2006
36653W        W45253  10.046   4.016   3.980  0.1409 -0.3140  0.0872
36654W        W45254  19.861   3.504   1.372 -0.1892  0.0799  0.0450
36655W        W45255  10.241   2.870   4.977 -0.1449  0.2182  0.2457
36656W        W45256  12.771   6.140  18.153  0.2311  0.0919 -0.0023
36657W        W45257   7.193   5.201  14.294 -0.1256 -0.0332  0.2589
36658W        W45258   3.747   5.869  12.121  0.0103  0.2234 -0.0792
36659W        W45259  14.936   6.888  29.593 -0.3126 -0.3213 -0.0207
36660W        W45260  13.338   2.567   6.448 -0.2722  0.0077  0.0238
36661W        W45261   0.543   3.501  24.231 -0.0814  0.2770 -0.0597
36662W        W45262   8.095   3.705  27.555  0.0906  0.0869  0.1834
36663W        W45263   9.259   4.951  32.350  0.0485 -0.2103 -0.2228
36664W        W45264  16.078   4.652  31.923 -0.1190  0.0019  0.2928
36665W        W45265   1.496   1.144  29.111  0.1112 -0.0488 -0.0610
36666W        W45266   3.641   6.184  13.260  0.0558  0.1739  0.1911
36667W        W45267  20.551   6.855   3.349 -0.1128 -0.2717  0.0948
36668W        W45268   7.431   6.657   3.733  0.3172 -0.1540 -0.3658
36669W        W45269  16.050   7.154  20.224 -0.3253  0.1310 -0.1858
36670W        W45270   3.963   4.740  31.233  0.1338 -0.1146 -0.2353
36671W        W45271   3.836   2.789  25.055  0.0082  0.4076  0.2600
36672W        W45272  13.763   3.199   4.623  0.0661  0.2021  0.3484
36673W        W45273   1.705   1.237  13.011  0.2711 -0.2455 -0.1081
36674W        W45274   4.007   6.194  18.180 -0.0633  0.1235 -0.1835
36675W        W45275  22.400   3.356  20.063 -0.0019  0.0157  0.0242
36676W        W45276   2.620   2.863  11.581 -0.0581  0.0973 -0.1318
36677W        W45277  11.349   5.211   0.730  0.0242  0.0237  0.1193
36678W        W45278   6.452   3.088  30.960  0.0972  0.3674 -0.2211
36679W        W45279  14.510   4.489  24.734 -0.1294 -0.1052 -0.1652
36680W        W45280  11.017   7.203  11.749 -0.0802 -0.0421 -0.1149
36681W        W45281  10.010   3.136   6.060 -0.0803  0.1782 -0.0482
36682W        W45282  18.831   6.188   3.108 -0.1622 -0.0056 -0.0594
36683W        W45283  24.459   0.853   2.522  0.1891 -0.0821  0.1055
36684W        W45284  12.669   5.204  21.511  0.1474 -0.0070  0.0303
36685W        W45285   5.040   3.582  22.553  0.1815  0.0235 -0.0768
36686W        W45286   5.866   1.229  17.165 -0.2075 -0.0638 -0.3214
36687W        W45287   7.689   5.460  21.733 -0.0846  0.1501  0.1959
36688W        W45288   0.662   0.987  32.573 -0.0529 -0.2180  0.2047
36689W        W45289   6.378   0.701  17.645 -0.1718 -0.2368 -0.1926
36690W        W45290  21.415   6.692  23.011 -0.0427 -0.0273 -0.0222
36691W        W45291   4.379   3.603  16.404 -0.2768 -0.0414 -0.1948
36692W        W45292   8.428   3.730  10.306 -0.2241 -0.0985 -0.0006
36693W        W45293   5.820   4.165  10.806  0.0169 -0.1739 -0.1016
36694W        W45294  17.596   0.572   6.550  0.1573  0.1810 -0.1878
36695W        W45295  11.026   0.065  23.333  0.0300  0.1760  0.2712
36696W        W45296   8.862   4.454  10.109  0.2501  0.1014 -0.0529
36697W        W45297   7.286   6.571  11.074  0.2001  0.3677  0.3934
36698W        W45298   2.844   1.708  12.393 -0.0950  0.0945  0.1996
36699W        W45299   0.041   6.646  27.632  0.0875 -0.1901  0.2285
36700W        W45300  23.201   2.518  28.212  0.2757 -0.0489  0.1135
36701W        W45301  18.144   6.602   5.909  0.2423  0.0208  0.0335
36702W        W45302  18.240   3.916   8.979  0.0300  0.1281 -0.3313
36703W        W45303   6.062   7.678   5.062  0.1829 -0.0088  0.0215
36704W        W45304  17.763   4.299  22.217 -0.1168  0.1043  0.0976
36705W        W45305  20.803   0.738   9.278 -0.0678 -0.0937 -0.0842
36706W        W45306  12.444   2.235  26.997 -0.1983 -0.1746  0.0143
36707W        W45307   0.516   4.106  31.134  0.0626 -0.0595 -0.0897
36708W        W45308   8.658   6.005  11.610  0.0197 -0.2955  0.0117
36709W        W45309   2.896   4.239  23.231 -0.1207 -0.0142  0.0893
36710W        W45310   5.252   2.597   2.267 -0.1364 -0.0342  0.1882
36711W        W45311  16.108   1.182  32.085 -0.0806 -0.0198 -0.3473
36712W        W45312   0.475   3.522  21.563  0.2288 -0.2041  0.1764
36713W        W45313  19.177   4.524  18.155  0.1125  0.0578  0.1041
36714W        W45314   7.907   1.415  13.537  0.1414 -0.2465  0.2547
36715W        W45315   7.543   6.710  29.359  0.4550 -0.2281  0.0896
36716W        W45316  20.064   6.895   3.422  0.1868  0.3867  0.1558
36717W        W45317   4.789   0.755   0.856  0.0387  0.0398 -0.2084
36718W        W45318  15.075   2.347  30.344 -0.2755  0.0961 -0.1912
36719W        W45319  11.431   6.147   9.133  0.0250  0.1417  0.2147
36720W        W45320  20.567   0.544  23.018 -0.1268  0.4280 -0.0352
36721W        W45321  20.833   6.090   0.088 -0.1612  0.0137  0.1397
36722W        W45322  24.951   7.525  28.680 -0.1618  0.0000 -0.1620
36723W        W45323  17.618   4.964   0.517 -0.2262  0.2598 -0.2302
36724W        W45324   0.994   6.479  31.521 -0.0955 -0.0414 -0.0625
36725W        W45325  17.223   5.317  19.562 -0.4721 -0.2357 -0.0120
36726W        W45326   1.439   4.619  31.982 -0.2560  0.0945 -0.3169
36727W        W45327   7.279   3.575   3.748 -0.3342 -0.1982 -0.1954
36728W        W45328  21.834   3.760  31.059  0.2207  0.0449  0.0842
36729W        W45329  15.640   5.266  19.729  0.0430  0.1903 -0.2544
36730W        W45330   9.961   6.412   0.533 -0.0500 -0.0078 -0.1986
36731W        W45331   9.304   0.991  20.372 -0.2807 -0.3865 -0.0168
36732W        W45332   0.834   5.139   4.965 -0.0898  0.0105 -0.1670
36733W        W45333  17.953   7.473   4.898  0.1372 -0.1291 -0.1602
36734W        W45334   8.729   4.387  25.462  0.2011 -0.1088  0.0983
36735W        W45335  22.364   4.614   7.414  0.2132 -0.2218  0.0807
36736W        W45336   5.702   2.791  29.964  0.1785  0.2792 -0.0577
36737W        W45337   2.108   3.116  14.812  0.0661 -0.4356  0.1952
36738W        W45338  22.309   3.965   0.468 -0.0143  0.1567 -0.4534
36739W        W45339  24.925   3.880  14.161  0.1927  0.0195  0.2863
36740W        W45340  21.606   1.544   9.597  0.4788 -0.1376 -0.1671
36741W        W45341  21.839   5.256  10.618  0.1927  0.0712 -0.2057
36742W        W45342  22.632   2.314  11.917 -0.1014  0.1475  0.0893
36743W        W45343   5.708   3.132   9.359 -0.5047  0.3390  0.3278
36744W        W45344  18.611   3.106  27.092 -0.1942 -0.1856  0.0973
36745W        W45345  11.072   2.897  19.179 -0.0879 -0.4532 -0.0756
36746W        W45346   5.823   2.461  16.923 -0.1481 -0.1884 -0.1060
36747W        W45347  18.955   0.771   4.743  0.2172  0.1557  0.1953
36748W        W45348   2.931   3.679  15.141 -0.0072 -0.1680 -0.0836
36749W        W45349  18.693   5.095   3.554  0.2756  0.0913 -0.1225
36750W        W45350   1.866   7.239   3.847  0.2763 -0.0018 -0.2310
36751W        W45351  18.987   0.188  30.563 -0.3219 -0.0742  0.0491
36752W        W45352   0.488   3.957  23.052 -0.2748 -0.1489  0.0655
36753W        W45353   2.875   5.919  15.250  0.0946 -0.2580  0.2758
36754W        W45354   7.539   0.797  23.266 -0.0029  0.0393 -0.3607
36755W        W45355  19.876   4.388  24.701 -0.1304  0.0467  0.0333
36756W        W45356  15.738   6.027  23.190  0.1089 -0.3262  0.1196
36757W        W45357  16.283   0.074  19.324 -0.0989 -0.2862  0.2341
36758W        W45358  23.721   7.466  24.831 -0.0655 -0.1825  0.0879
36759W        W45359  21.395   6.805   5.504 -0.0389 -0.2654 -0.0674
36760W        W45360   0.743   3.062   2.298 -0.4400 -0.0591  0.2114
36761W        W45361   1.217   6.568  10.277  0.2013  0.1046  0.2000
36762W        W45362  12.696   3.497  22.682 -0.3349  0.1136 -0.2291
36763W        W45363  13.163   0.460  20.732 -0.0920 -0.0824  0.2512
36764W        W45364  18.115   7.566   8.516 -0.2148 -0.1202  0.1068
36765W        W45365  24.491   3.692  10.264 -0.3083  0.0141 -0.0911
36766W        W45366   0.037   4.592  23.621 -0.0848 -0.0755 -0.2398
36767W        W45367   8.508   2.723   7.799  0.0766  0.2096  0.3504
36768W        W45368   2.401   3.911  14.475  0.0580  0.2050  0.0994
36769W        W45369   6.421   7.324  15.552  0.2160 -0.0654 -0.1241
36770W        W45370   0.321   3.283  12.863  0.0325 -0.1270 -0.1753
36771W        W45371   4.003   7.517   8.851  0.0938 -0.1874  0.2166
36772W        W45372  12.760   1.759   3.335  0.1004 -0.1074 -0.1556
36773W        W45373  11.292   1.423  29.900  0.0780  0.1173  0.1166
36774W        W45374  21.908   0.919   1.825  0.1488 -0.1732  0.2198
36775W        W45375  13.779   5.948  15.980 -0.0110  0.2137  0.1344
36776W        W45376  10.039   1.395  29.981 -0.1050  0.1604 -0.2872
36777W        W45377  12.135   3.306   8.245 -0.1859  0.2016  0.0671
36778W        W45378   6.200   0.720   1.260 -0.0981  0.0148  0.4285
36779W        W45379  11.149   3.936   5.871 -0.1495  0.0491  0.3631
36780W        W45380   4.258   5.821  13.890  0.0410  0.2671 -0.0923
36781W        W45381   4.959   5.053  24.902 -0.2750 -0.0235 -0.0065
36782W        W45382  19.557   3.165   2.228  0.1871  0.1302  0.1581
36783W        W45383   1.104   5.917   7.309 -0.1063  0.3440  0.2706
36784W        W45384   1.721   4.304   3.062  0.1802  0.0299  0.1443
36785W        W45385  18.634   7.551   6.269  0.2052  0.1222 -0.0211
36786W        W45386   1.740   1.254   2.379 -0.1523  0.2722  0.0259
36787W        W45387   9.817   5.894   6.609  0.0948 -0.1926 -0.1158
36788W        W45388  15.041   5.130  14.418 -0.2493 -0.2316 -0.1895
36789W        W45389  22.423   2.457  20.298  0.1668 -0.4253  0.1302
36790W        W45390   6.972   1.607  11.332 -0.0175  0.2095 -0.0439
36791W        W45391  24.656   6.873  29.290 -0.3755 -0.1764  0.0820
36792W        W45392   6.821   5.617  24.982 -0.0860  0.1692 -0.1757
36793W        W45393   7.248   7.238   7.989  0.1307 -0.0034 -0.0194
36794W        W45394  15.764   1.774  10.044  0.1564 -0.1708 -0.2885
36795W        W45395   0.477   2.154  25.105 -0.0400 -0.2456 -0.2582
36796W        W45396  17.968   0.914  31.760  0.0824 -0.1846  0.0450
36797W        W45397  24.328   1.051   7.838 -0.3234 -0.0774 -0.0552
36798W        W45398   0.303   2.039   5.089  0.0223  0.2454 -0.1001
36799W        W45399  20.398   6.764  29.341  0.2671  0.1061 -0.1007
36800W        W45400  24.043   5.417   2.657 -0.2131 -0.2229 -0.0791
36801W        W45401  14.745   2.024   9.383 -0.3945 -0.0840 -0.1385
36802W        W45402   6.820   7.123   2.702 -0.3126  0.2160 -0.1703
36803W        W45403   7.290   3.216  22.500 -0.1048 -0.1440  0.2288
36804W        W45404  21.066   6.438  29.358  0.2459  0.0974  0.1746
36805W        W45405   6.125   5.577  11.970 -0.0914 -0.1194 -0.0601
36806W        W45406  12.139   3.370  27.753  0.1409  0.1004 -0.3375
36807W        W45407   8.112   1.941  13.324 -0.0238 -0.1986 -0.0003
36808W        W45408  13.360   7.338  25.652 -0.1451 -0.1553 -0.0449
36809W        W45409  16.309   2.656  31.267  0.1160  0.2042  0.2664
36810W        W45410   9.049   3.343  27.601 -0.1654  0.0949  0.0164
36811W        W45411  18.187   1.507   6.559 -0.0060 -0.0643 -0.0437
36812W        W45412  12.800   1.426  21.592  0.1644 -0.4725  0.0430
36813W        W45413   5.023   1.859  32.293  0.0184 -0.0256 -0.2020
36814W        W45414  16.605   7.434  10.744  0.0808 -0.0435  0.1061
36815W        W45415   6.616   2.095  28.321 -0.0825 -0.0390  0.0777
36816W        W45416  10.467   4.155  11.815 -0.1254  0.3073 -0.0933
36817W        W45417  13.065   2.740  29.954 -0.0688 -0.0737  0.1122
36818W        W45418  14.918   1.950   4.094 -0.0793  0.1035 -0.2582
36819W        W45419  16.234   0.838  31.721  0.0447  0.1846 -0.5599
36820W        W45420   1.272   0.155  16.137 -0.0279  0.0835 -0.2317
36821W        W45421  13.301   1.743  19.495 -0.0690  0.0445  0.0630
36822W        W45422  11.177   1.624  22.283 -0.3930 -0.2204  0.0941
36823W        W45423  11.840   5.622  23.754 -0.0071 -0.1153 -0.2862
36824W        W45424   9.328   3.475   0.744  0.2878  0.1968  0.1873
36825W        W45425   7.250   1.931  16.459  0.2218 -0.1293  0.0825
36826W        W45426  15.142   2.465  25.552  0.2713  0.0523 -0.0957
36827W        W45427  15.332   6.616  25.562  0.3914  0.0759  0.3346
36828W        W45428  23.325   0.606   4.628 -0.1174  0.0811  0.1049
36829W        W45429  12.369   7.348   0.138  0.2204 -0.3456  0.1462
36830W        W45430  13.752   2.795  23.858  0.0328 -0.2621 -0.0069
36831W        W45431   4.761   6.278  12.158 -0.1761  0.1290  0.1806
36832W        W45432  10.562   7.652  26.646 -0.3593  0.2824 -0.0063
36833W        W45433  14.766   7.035   6.050  0.0687  0.0138  0.2754
36834W        W45434  17.897   2.882  21.938 -0.1869  0.2432 -0.1591
36835W        W45435  17.471   5.548  21.237  0.1458  0.1621 -0.3347
36836W        W45436  23.431   0.019  26.909  0.1092  0.2305 -0.3626
36837W        W45437   5.830   3.444  10.693 -0.1440 -0.1272 -0.1107
36838W        W45438  21.684   7.119   7.276 -0.0344 -0.1854  0.0517
36839W        W45439  19.086   7.212   4.980  0.1853 -0.1124 -0.0791
36840W        W45440  20.913   7.142   9.219 -0.1597  0.2966  0.1543
36841W        W45441   1.013   2.269  10.803 -0.1599  0.2084  0.1674
36842W        W45442  20.564   2.997  20.314  0.1010 -0.0364  0.0548
36843W        W45443  12.745   1.842  27.756  0.2013 -0.0931 -0.2843
36844W        W45444   5.509   7.216  25.961  0.1363  0.3729  0.2235
36845W        W45445   5.747   7.570  30.866 -0.1118 -0.2868  0.1911
36846W        W45446  16.526   5.743   6.471 -0.1088  0.1839  0.4065
36847W        W45447   7.732   2.723  30.561 -0.0768 -0.1878 -0.0038
36848W        W45448  17.069   1.249  18.184  0.2232  0.3332 -0.0360
36849W        W45449   9.933   6.093  22.044  0.4124 -0.1398  0.1393
36850W        W45450   7.163   3.679  29.563 -0.0557  0.0279  0.0820
36851W        W45451  17.805   6.397   3.356 -0.1482  0.2068  0.0810
36852W        W45452  18.074   1.725  18.644 -0.3582 -0.0575 -0.0300
36853W        W45453  20.115   4.786  32.340  0.1457 -0.0468  0.1557
36854W        W45454  16.842   1.414  19.437  0.0277  0.0607 -0.0679
36855W        W45455  24.285   1.077  32.565 -0.1881 -0.1096  0.0527
36856W        W45456   1.613   3.501  31.420  0.1615 -0.0834 -0.1190
36857W        W45457  19.155   0.824   5.599  0.0007  0.0324  0.3733
36858W        W45458  16.478   1.198   0.682  0.0643 -0.1419 -0.0316
36859W        W45459  18.554   2.710   2.453  0.0836  0.0302 -0.0274
36860W        W45460   7.826   0.003  10.414  0.0946 -0.1974  0.3391
36861W        W45461  24.430   2.515   1.225 -0.1573  0.2512 -0.0212
36862W        W45462   0.721   3.878  29.191  0.0663  0.2248 -0.1029
36863W        W45463  19.897   5.893  24.067 -0.1917 -0.0729 -0.0471
36864W        W45464   6.904   3.673  31.949 -0.1329  0.1304 -0.1375
36865W        W45465   3.217   5.849  23.842  0.3501  0.1557 -0.0697
36866W        W45466   6.124   6.628  28.509 -0.3980 -0.2146 -0.1718
36867W        W45467  13.959   5.171   5.904  0.2082 -0.1714  0.0739
36868W        W45468   4.999   0.553   0.469 -0.2139  0.3107  0.1378
36869W        W45469  17.742   2.660  21.489  0.0141  0.0930 -0.1863
36870W        W45470   0.622   4.821  25.543 -0.0230 -0.0433 -0.2430
36871W        W45471  22.817   4.358   8.146  0.0921 -0.0173  0.2151
36872W        W45472  22.759   7.329   9.149 -0.2309 -0.2575  0.1506
36873W        W45473  24.009   3.683   2.364 -0.0876  0.1621  0.2646
36874W        W45474  19.428   6.936  24.818  0.0000 -0.1090  0.0058
36875W        W45475   7.421   4.449   8.097 -0.1265 -0.2515 -0.1394
36876W        W45476  13.765   5.369  10.064  0.3020 -0.0650  0.0438
36877W        W45477  12.830   4.622   5.734 -0.0805  0.1900  0.1945
36878W        W45478  18.258   4.300   1.692  0.1392  0.1439 -0.6586
36879W        W45479  23.471   7.662  29.272 -0.0829 -0.0449  0.2393
36880W        W45480  16.579   3.192   1.783  0.2072  0.0461  0.2715
36881W        W45481  15.615   3.701  18.989  0.1840 -0.0720 -0.0781
36882W        W45482   9.026   4.272  31.079  0.3391 -0.2937 -0.0838
36883W        W45483   0.161   0.428   3.492 -0.2280 -0.1119 -0.0266
36884W        W45484   8.659   6.961  31.568  0.1060  0.0071  0.1923
36885W        W45485   9.648   1.474   0.315  0.4436 -0.0364 -0.1704
36886W        W45486  13.674   1.720  21.762 -0.1718  0.4620 -0.0578
36887W        W45487  20.251   1.126  22.866 -0.1254  0.3300 -0.0972
36888W        W45488  10.525   6.410  10.097  0.1406  0.2127 -0.0566
36889W        W45489  14.183   5.985  28.297 -0.1882 -0.3961 -0.0016
36890W        W45490  19.356   2.832  30.474 -0.3776 -0.0581  0.1327
36891W        W45491   8.686   3.567   0.121  0.2325  0.0874  0.0327
36892W        W45492  22.842   0.391  20.986  0.2697 -0.2279  0.0816
36893W        W45493   8.591   0.631   8.858 -0.1179  0.0612 -0.1018
36894W        W45494  14.346   3.827   5.429  0.1484  0.0842 -0.1939
36895W        W45495  12.033   0.820   8.277  0.0873  0.0653 -0.0044
36896W        W45496  13.908   0.779   1.509  0.1112 -0.1502 -0.0077
36897W        W45497  17.797   1.114  27.020 -0.0095 -0.2559 -0.3407
36898W        W45498   0.101   2.315  22.529  0.1466 -0.0104 -0.1195
36899W        W45499  21.378   1.183  29.648 -0.0591  0.0258  0.1911
36900W        W45500  12.682   0.214   4.855 -0.0962  0.1294  0.2585
36901W        W45501  17.722   3.284  25.017  0.0322 -0.0789  0.1005
36902W        W45502  15.240   0.061  30.268 -0.0493 -0.1549  0.1550
36903W        W45503  16.475   1.787  26.770  0.2309 -0.0629 -0.1629
36904W        W45504  12.996   4.421  20.119  0.0324  0.0068 -0.1847
36905W        W45505  13.782   4.676  17.698 -0.0045  0.1733 -0.1612
36906W        W45506   2.117   2.978  24.394 -0.0182 -0.0628  0.1953
36907W        W45507   7.953   7.738  25.105  0.2317  0.1741 -0.0818
36908W        W45508   3.903   4.098  31.924  0.0608  0.1228  0.1455
36909W        W45509   8.829   0.693   0.984  0.4321  0.1558 -0.2430
36910W        W45510   8.460   7.385   0.147 -0.0745 -0.0026 -0.0800
36911W        W45511   2.696   2.306   0.103 -0.3794  0.0667 -0.1262
36912W        W45512   2.388   2.093  31.662 -0.0382  0.0666 -0.2756
36913W        W45513  11.752   1.660  10.300  0.3267 -0.1611 -0.2717
36914W        W45514   3.591   0.564   4.130  0.1329  0.0171  0.3065
36915W        W45515  24.347   2.325   0.761  0.0884  0.3082 -0.0319
36916W        W45516   2.545   0.320   1.829  0.2496 -0.1226  0.1174
36917W        W45517  14.808   6.405  32.000  0.1899 -0.0813 -0.2820
36918W        W45518   2.196   6.720  15.632  0.1866  0.0528 -0.1801
36919W        W45519  23.350   6.844  11.847 -0.1320 -0.2033  0.1279
36920W        W45520   9.302   4.947  22.325 -0.0917  0.0297 -0.0762
36921W        W45521   9.065   6.795  11.288  0.0663  0.1857  0.0001
36922W        W45522  22.736   4.857   2.243  0.0689 -0.2389 -0.0797
36923W        W45523  15.295   1.941  25.363 -0.0918 -0.1016  0.2387
36924W        W45524  11.934   4.724   9.821  0.1254  0.0468 -0.1270
36925W        W45525  19.827   6.082  31.508 -0.2073 -0.2575 -0.0932
36926W        W45526   6.712   3.220  12.343  0.2607 -0.0817 -0.0031
36927W        W45527  17.285   6.384   5.354  0.1651  0.2945 -0.2740
36928W        W45528   5.145   2.110   7.135 -0.1469  0.0602 -0.1208
36929W        W45529  13.712   4.942  10.297  0.2381  0.2644 -0.0099
36930W        W45530  22.716   3.341   8.184 -0.0667 -0.0676  0.1521
36931W        W45531   8.842   4.521  21.793  0.0109 -0.1022  0.0690
36932W        W45532  18.802   1.102  17.777 -0.2159  0.0252  0.0167
36933W        W45533   4.526   2.722  13.208 -0.1209  0.1571  0.1274
36934W        W45534   7.216   0.972  24.611  0.0397 -0.5607 -0.1259
36935W        W45535  21.541   7.351  25.740 -0.1917 -0.0454 -0.2605
36936W        W45536  22.618   6.747  24.740 -0.1110 -0.0475 -0.0995
36937W        W45537  19.407   2.350  31.185 -0.1352 -0.1116 -0.0418
36938W        W45538   5.564   0.761  15.362 -0.1620 -0.1954 -0.0075
36939W        W45539   9.428   2.851   5.241  0.0096 -0.0312  0.0585
36940W        W45540  22.968   1.731  20.276 -0.0417 -0.1764 -0.1362
36941W        W45541  14.123   2.024   8.600 -0.3410  0.0774 -0.1226
36942W        W45542   9.880   6.740   0.057 -0.3122  0.4166 -0.3705
36943W        W45543  15.498   1.251  14.556  0.1737 -0.0943  0.2795
36944W        W45544   2.275   1.640  27.629 -0.2146 -0.1115 -0.0502
36945W        W45545  13.496   4.022   8.088 -0.1067  0.1793 -0.2958
36946W        W45546  11.293   6.584   5.055  0.2232  0.0192 -0.3675
36947W        W45547  12.956   2.801   4.574 -0.1969  0.0754 -0.0985
36948W        W45548  12.010   0.698  22.132 -0.0562  0.2151  0.4213
36949W        W45549  24.730   2.257  26.071 -0.0926  0.2957  0.1006
36950W        W45550   5.692   2.858  29.478 -0.4284 -0.2369 -0.1758
36951W        W45551  19.427   3.508   2.629  0.0752 -0.0859  0.0371
36952W        W45552  11.153   6.298  10.214  0.1028 -0.2850 -0.2270
36953W        W45553   9.033   5.457  21.369 -0.3521  0.2596 -0.3474
36954W        W45554   5.533   7.014   0.762 -0.0517 -0.0638 -0.0943
36955W        W45555  10.387   6.788   0.352  0.1899 -0.1595 -0.1583
36956W        W45556   6.370   0.086   3.802  0.0756  0.1713 -0.2581
36957W        W45557   8.053   3.909  25.330 -0.1543  0.3279  0.0830
36958W        W45558  20.063   5.056  19.262 -0.2528 -0.0185 -0.1292
36959W        W45559  16.866   6.048  31.017 -0.0958 -0.0538  0.1952
36960W        W45560  22.779   4.997  11.998  0.1717 -0.0980 -0.0208
36961W        W45561  20.865   1.068  27.777 -0.0654  0.3546  0.0593
36962W        W45562  18.054   4.164  26.712  0.0620  0.0836  0.0608
36963W        W45563   5.736   4.827  16.252 -0.1167  0.1136  0.0849
36964W        W45564  23.866   0.149  25.957 -0.1892  0.2543 -0.0630
36965W        W45565  12.662   5.138  29.183 -0.0296 -0.0843 -0.3281
36966W        W45566  15.278   1.712  16.106 -0.1733  0.0290 -0.1724
36967W        W45567  13.691   1.937  17.081  0.0504  0.4298 -0.3614
36968W        W45568   6.824   6.421   6.912 -0.0948 -0.1872 -0.1164
36969W        W45569   8.540   7.089   0.945 -0.1226  0.2113 -0.0563
36970W        W45570  10.760   2.527  18.347 -0.1896  0.1682 -0.0041
36971W        W45571   9.337   2.274  24.282 -0.3581  0.2457 -0.1433
36972W        W45572  12.899   3.902   5.148  0.2356 -0.0701  0.0724
36973W        W45573   1.640   5.583  25.860  0.0675  0.0276  0.1145
36974W        W45574   4.180   6.187  13.513  0.0899  0.0394  0.1435
36975W        W45575   1.520   4.724  22.783 -0.1420 -0.0590  0.1017
36976W        W45576   4.980   1.195  31.317  0.2943  0.0439  0.0400
36977W        W45577  20.623   5.490   4.638  0.1383 -0.0058 -0.0251
36978W        W45578   8.341   2.802  14.617 -0.2000 -0.1058 -0.0837
36979W        W45579  19.603   5.467   0.691 -0.2418 -0.0507  0.1842
36980W        W45580  21.216   5.428   3.010  0.0289 -0.2540  0.3782
36981W        W45581  13.891   1.714  24.730 -0.0520  0.0338 -0.1987
36982W        W45582   0.652   2.423  26.530 -0.0116  0.3105  0.1328
36983W        W45583  10.687   1.395  25.942 -0.1414  0.0243 -0.0979
36984W        W45584  22.528   1.023  20.728  0.0321 -0.1125 -0.1898
36985W        W45585  16.179   4.946  29.735  0.3003  0.3028 -0.0481
36986W        W45586  15.317   4.002   1.219  0.0126  0.0129 -0.0082
36987W        W45587  15.051   2.826  23.074 -0.1585  0.0323 -0.3367
36988W        W45588  13.333   2.861  25.983 -0.0088  0.2999  0.1383
36989W        W45589  23.247   3.310  26.270 -0.0080  0.0609 -0.0539
36990W        W45590   1.501   2.301   5.341 -0.2031  0.0107  0.0753
36991W        W45591  20.106   7.065  23.204 -0.1355  0.1437  0.1237
36992W        W45592  15.814   4.962  26.418 -0.0923  0.2561  0.0926
36993W        W45593   3.873   5.693   4.824  0.1972  0.1410 -0.1759
36994W        W45594   9.338   6.030  24.995  0.1565 -0.2080 -0.0682
36995W        W45595   4.293   4.455  12.087 -0.1317 -0.0636 -0.0064
36996W        W45596  21.169   5.879   2.123 -0.0481 -0.0044 -0.1608
36997W        W45597  17.670   5.923  30.894  0.1971 -0.1735  0.0087
36998W        W45598  20.180   0.914   7.122 -0.1336  0.0406 -0.0526
36999W        W45599  15.649   5.256   6.225  0.1469  0.1679 -0.0156
37000W        W45600   2.990   6.765   4.993  0.0847  0.1177 -0.2744
37001W        W45601   1.118   0.464  25.438  0.1312  0.1987 -0.2290
37002W        W45602  22.666   2.344   5.622  0.0477 -0.0327 -0.0938
37003W        W45603  10.011   0.116  31.541 -0.3012 -0.3933 -0.2562
37004W        W45604   5.135   7.758  29.794 -0.4534 -0.0775 -0.1680
37005W        W45605  13.845   7.349  24.386  0.0180 -0.0023 -0.0686
37006W        W45606  20.978   3.607  18.558 -0.1269  0.1372 -0.0185
37007W        W45607  23.766   4.644   8.597  0.2590  0.1332 -0.0530
37008W        W45608  20.002   3.568  27.045  0.1626  0.2991 -0.1653
37009W        W45609  21.610   1.086   5.076 -0.2250 -0.2862  0.0384
37010W        W45610   7.792   0.268   4.633  0.3093 -0.1151  0.1051
37011W        W45611   0.488   4.599   1.119 -0.0843  0.1691 -0.0008
37012W        W45612  18.918   2.382   5.752  0.1143 -0.1919  0.2870
37013W        W45613   3.113   7.796  30.605  0.0958 -0.2338 -0.2804
37014W        W45614   0.314   6.245  10.210  0.1169 -0.0124  0.0062
37015W        W45615   7.616   1.881   8.139 -0.2284  0.0312  0.2765
37016W        W45616  14.475   5.751  18.220  0.0945 -0.1155 -0.3034
37017W        W45617   1.711   0.086   4.642  0.2682  0.3701  0.0647
37018W        W45618   3.698   3.808  32.265 -0.1481 -0.1265 -0.2365
37019W        W45619  14.168   0.346   3.347 -0.0145 -0.2012 -0.0838
37020W        W45620   5.828   5.059  27.107  0.0072 -0.1443 -0.3307
37021W        W45621  12.109   7.690  21.644  0.0029  0.2918 -0.2019
37022W        W45622  14.746   0.181  32.907 -0.1371  0.0539  0.1081
37023W        W45623   2.140   1.225  16.862  0.1897  0.0447  0.1636
37024W        W45624  22.823   2.929   1.500 -0.1602 -0.1521 -0.0650
37025W        W45625   9.435   7.641   4.762  0.0634  0.3519 -0.2207
37026W        W45626  21.846   1.177  11.163  0.4390 -0.1369 -0.0679
37027W        W45627  24.425   3.928  24.344 -0.0596  0.0360  0.2821
37028W        W45628  22.717   2.721   4.743  0.1760 -0.1416  0.2459
37029W        W45629   0.909   0.572  12.031  0.0389 -0.1548 -0.2710
37030W        W45630   8.010   4.974  22.411 -0.0899  0.2869  0.2784
37031W        W45631   4.945   6.611   7.313 -0.0705 -0.1313 -0.1196
37032W        W45632   6.229   7.040  26.892 -0.1239  0.0669 -0.0305
37033W        W45633   8.698   1.830  32.081  0.2471 -0.0143 -0.0477
37034W        W45634  18.425   7.470   0.151 -0.0845  0.0730  0.1377
37035W        W45635   7.975   1.645   7.832 -0.2599 -0.0919  0.0730
37036W        W45636  19.926   5.532   6.041 -0.1005 -0.1652  0.3250
37037W        W45637   7.636   4.325   8.943 -0.1538  0.2382  0.0006
37038W        W45638   7.991   5.713  23.181  0.0198 -0.1106  0.0148
37039W        W45639   2.995   6.416   6.396  0.0644 -0.0913  0.1212
37040W        W45640  14.273   2.754  27.178 -0.1614 -0.1006 -0.1164
37041W        W45641  20.957   1.388  22.204  0.2952 -0.3396  0.1503
37042W        W45642  24.181   6.989   1.337 -0.1165 -0.2040 -0.0056
37043W        W45643  20.959   6.052  23.125 -0.2043 -0.1956 -0.0430
37044W        W45644  13.493   2.454  30.226  0.0241 -0.0279 -0.0676
37045W        W45645   3.730   5.119  12.384 -0.0037  0.1536 -0.1906
37046W        W45646   8.186   3.654   4.807 -0.1746 -0.1435 -0.0329
37047W        W45647  10.670   7.697  29.210  0.1687 -0.4634 -0.0320
37048W        W45648  23.953   5.720  11.144  0.1320  0.2432  0.0800
37049W        W45649  21.470   4.064   4.847  0.2551 -0.0477  0.0273
37050W        W45650  17.888   6.891  19.613  0.1102 -0.4722 -0.1395
37051W        W45651  15.143   3.991  30.103  0.4020  0.1327  0.0668
37052W        W45652   0.690   5.021  32.343  0.0303 -0.0996 -0.0003
37053W        W45653   0.257   2.155   1.405 -0.0063 -0.0542  0.3203
37054W        W45654  22.755   5.002  25.927 -0.0506 -0.2016 -0.0599
37055W        W45655   9.140   6.292  13.270 -0.0732 -0.3230  0.0435
37056W        W45656   7.106   1.803  13.189  0.1646 -0.2575 -0.1448
37057W        W45657  24.392   4.802  12.199  0.0974  0.3584 -0.0802
37058W        W45658   4.258   7.419  10.015 -0.1606  0.1271 -0.1348
37059W        W45659   5.608   4.749  17.252  0.2637 -0.0201  0.2234
37060W        W45660  20.938   6.638  10.140 -0.4370  0.2578  0.0562
37061W        W45661   3.783   7.504  17.558  0.1721 -0.1101 -0.0285
37062W        W45662   8.743   0.964  22.848  0.1791  0.0715 -0.3924
37063W        W45663  23.991   5.009  28.700  0.0449 -0.0552 -0.0669
37064W        W45664  20.464   1.777  21.128  0.1196 -0.0919  0.1273
37065W        W45665   1.199   7.470   3.559  0.3120  0.0901 -0.3268
37066W        W45666  23.014   1.693   5.756 -0.0214 -0.0521 -0.1377
37067W        W45667   6.988   5.743   5.696 -0.2713  0.0515 -0.0868
37068W        W45668  15.986   4.341  25.487 -0.2163  0.0207 -0.2020
37069W        W45669  22.736   7.360  21.819 -0.0504  0.2644 -0.0848
37070W        W45670  22.275   6.537  25.988  0.1233  0.0747  0.2244
37071W        W45671   0.749   6.569   4.222  0.0960 -0.0634  0.2755
37072W        W45672  20.201   0.901  11.921 -0.3976  0.2914  0.2579
37073W        W45673  10.320   0.160  28.366  0.2705 -0.0074  0.0407
37074W        W45674  23.076   7.795  27.947  0.3264  0.1422  0.1290
37075W        W45675  13.455   2.283   0.070  0.0670 -0.2139 -0.4677
37076W        W45676  11.865   5.816  27.194 -0.0103  0.0625  0.0450
37077W        W45677  20.092   4.520   6.836  0.0407 -0.1787  0.0511
37078W        W45678  19.094   3.173  18.842  0.0726 -0.4354  0.1670
37079W        W45679   6.015   5.320   2.093  0.0207 -0.1568  0.1544
37080W        W45680   8.898   5.678   6.815  0.2187 -0.2055  0.2102
37081W        W45681  11.557   2.225   4.875 -0.3463  0.0226  0.0484
37082W        W45682  15.010   5.955  15.145  0.0275  0.0429  0.0519
37083W        W45683  10.968   3.859   1.785  0.1590  0.0803 -0.0694
37084W        W45684  18.784   3.644  16.917 -0.2420 -0.4033 -0.1207
37085W        W45685  12.618   3.857   9.683 -0.0698  0.0050 -0.0469
37086W        W45686   0.105   2.661  24.454 -0.0756 -0.0623  0.0926
37087W        W45687  24.797   2.589  26.464  0.0217  0.1096 -0.1006
37088W        W45688   7.203   1.376  14.895 -0.2463  0.0377  0.1323
37089W        W45689  22.159   3.803  31.608 -0.0371 -0.0977 -0.1436
37090W        W45690   8.995   1.358  22.751  0.1054  0.0416  0.0123
37091W        W45691  22.730   0.713  20.353  0.0285 -0.0723 -0.1031
37092W        W45692  24.836   3.120   6.830  0.1993 -0.0410 -0.1456
37093W        W45693   6.273   5.538   9.573  0.2519 -0.0084  0.1252
37094W        W45694  20.759   4.435  21.203 -0.2309  0.1719  0.1913
37095W        W45695   4.167   4.117  17.644 -0.1700  0.2022 -0.1325
37096W        W45696   3.312   6.710   0.276  0.1168 -0.0937  0.0194
37097W        W45697  19.715   4.600   7.733  0.3636  0.1413  0.2355
37098W        W45698  23.829   5.382  22.355 -0.0413  0.1393  0.2344
37099W        W45699  13.503   2.599  24.221 -0.1328 -0.2005 -0.1272
37100W        W45700  11.437   6.301   4.597  0.2119  0.2587 -0.0242
37101W        W45701   4.556   2.745  18.833 -0.1082  0.0598  0.0052
37102W        W45702  16.302   6.244  32.016  0.2866 -0.2204 -0.1331
37103W        W45703  14.168   6.225   8.941 -0.0191 -0.0820 -0.0497
37104W        W45704   3.171   3.746  32.164 -0.1853 -0.0602  0.1462
37105W        W45705  22.080   4.224  11.583  0.1817 -0.0110  0.3685
37106W        W45706  21.874   4.492  30.275  0.1924  0.3043 -0.1611
37107W        W45707   1.621   2.128  16.860  0.2376  0.0471 -0.0634
37108W        W45708   8.129   0.267  27.191 -0.0017  0.0152 -0.0462
37109W        W45709  12.743   1.322  26.599 -0.0032  0.0696  0.1213
37110W        W45710   1.957   3.978  25.387  0.0619  0.0330 -0.1978
37111W        W45711  24.612   1.707  15.515 -0.0270 -0.0065 -0.1314
37112W        W45712  10.160   6.012  20.986 -0.0372  0.2403 -0.2054
37113W        W45713   1.713   1.860  14.356 -0.1129 -0.0924 -0.1145
37114W        W45714  12.921   0.629  20.306 -0.4147  0.0179 -0.0667
37115W        W45715  13.154   0.272   8.301 -0.2016 -0.0438  0.1728
37116W        W45716   8.514   0.878  24.180  0.4100 -0.0695 -0.2090
37117W        W45717   4.319   1.557  31.046  0.3149  0.0529  0.0036
37118W        W45718  13.941   3.140  25.262 -0.1965  0.2696  0.0195
37119W        W45719   4.304   2.523  32.936  0.1685  0.1936 -0.2305
37120W        W45720   0.184   5.571  22.242  0.1366 -0.0033 -0.2777
37121W        W45721  21.942   2.723   0.057 -0.2159 -0.0147 -0.1037
37122W        W45722  18.654   2.979  23.779 -0.0617  0.1639 -0.0960
37123W        W45723  11.495   4.672   3.151  0.1233 -0.0662  0.0774
37124W        W45724   2.307   6.589  31.799 -0.2505 -0.0721  0.1269
37125W        W45725  22.934   4.840   3.222 -0.1679  0.1543  0.0121
37126W        W45726   7.181   2.139   1.618  0.0576 -0.1092 -0.1831
37127W        W45727  19.728   5.478  21.508 -0.0371  0.2085 -0.0140
37128W        W45728   9.901   7.537  25.487 -0.1492  0.1290 -0.0894
37129W        W45729   0.109   6.555   2.445  0.0819  0.1145  0.1774
37130W        W45730  10.375   4.355  20.782  0.0744 -0.0051 -0.1595
37131W        W45731  22.821   4.537  22.776 -0.3927 -0.1582 -0.0155
37132W        W45732   7.406   7.742  30.708  0.1440  0.2003  0.1812
37133W        W45733   6.799   2.502  15.889 -0.3269  0.0652  0.1303
37134W        W45734  10.270   4.100  11.336 -0.0314 -0.2800  0.0307
37135W        W45735   5.198   0.746  27.015 -0.0418 -0.2068 -0.0702
37136W        W45736  17.962   7.066   2.713  0.2145  0.0361 -0.0030
37137W        W45737  11.801   7.601  31.153 -0.0220  0.0410 -0.0616
37138W        W45738   5.327   0.262  22.845 -0.0360 -0.1560  0.1549
37139W        W45739   8.434   2.919  13.777 -0.0864  0.1808  0.0006
37140W        W45740  17.773   1.450  23.066 -0.0290 -0.0586  0.1945
37141W        W45741   6.600   0.221   6.534 -0.3752  0.1109  0.1441
37142W        W45742   2.652   7.684  12.254 -0.1535  0.0427 -0.0314
37143W        W45743   8.013   0.333  22.626 -0.0371  0.1911 -0.0491
37144W        W45744  13.930   2.287  24.476 -0.0536  0.2202  0.0996
37145W        W45745   8.720   1.927  11.290  0.2400  0.1416  0.0349
37146W        W45746  14.016   1.352   2.247 -0.0460  0.0700 -0.0344
37147W        W45747  20.521   1.951  18.815 -0.0890 -0.2781  0.2676
37148W        W45748   2.043   4.656  29.793 -0.3706 -0.3127  0.1741
37149W        W45749   4.456   7.518  22.983 -0.0463 -0.1999  0.1658
37150W        W45750   0.035   5.257  29.856 -0.1010  0.4029  0.1727
37151W        W45751   9.745   0.747   4.566  0.3543  0.3664 -0.3551
37152W        W45752  18.152   0.503  28.648  0.2267  0.0718  0.0708
37153W        W45753   5.607   0.057  17.224 -0.0959  0.1729  0.1471
37154W        W45754  12.926   5.846   8.571 -0.0424  0.0119 -0.1669
37155W        W45755  23.669   3.770  31.419 -0.1783  0.1014  0.0655
37156W        W45756   7.506   2.609   1.917  0.2751 -0.0311 -0.1427
37157W        W45757  15.954   6.316  21.828 -0.2540  0.3456 -0.0407
37158W        W45758  10.704   5.535  28.935 -0.0516  0.0402 -0.0332
37159W        W45759   3.687   3.776  22.202 -0.1806  0.2453 -0.1348
37160W        W45760  16.954   0.017  14.702  0.2233  0.1216 -0.2533
37161W        W45761  11.807   1.561  18.961  0.2583  0.1415  0.1780
37162W        W45762  23.660   1.368  28.842  0.0867  0.0197  0.1043
37163W        W45763   8.882   1.844   5.437 -0.0543  0.2689 -0.0527
37164W        W45764  13.016   4.429   4.325 -0.1208 -0.0676 -0.1193
37165W        W45765   3.734   6.426   7.183 -0.0929  0.1601 -0.2925
37166W        W45766   0.028   1.004   9.629 -0.3311 -0.0042 -0.1892
37167W        W45767  23.946   1.029  24.419  0.0316 -0.0306 -0.2238
37168W        W45768  21.843   3.808   9.168  0.0200  0.1332  0.0796
37169W        W45769   2.420   6.453  30.809 -0.0755 -0.0170 -0.4010
37170W        W45770  15.419   4.396  31.417  0.1819  0.0754 -0.2252
37171W        W45771   6.087   2.373  17.618 -0.2719 -0.1638  0.3989
37172W        W45772  21.382   7.697  24.005  0.0638 -0.0265 -0.1113
37173W        W45773   3.953   0.541  22.690  0.0002 -0.0750  0.0268
37174W        W45774  10.049   7.559  30.546  0.0195  0.1960  0.0148
37175W        W45775  10.210   0.149  27.099  0.1274 -0.2281 -0.2283
37176W        W45776   5.232   4.155   9.294  0.1317  0.0334 -0.1311
37177W        W45777  10.583   1.026  28.077 -0.2170  0.1725  0.1685
37178W        W45778  11.828   4.086   5.328  0.0945  0.0575  0.3102
37179W        W45779  10.217   3.474   4.616  0.0048 -0.0056  0.0002
37180W        W45780  11.386   7.553   3.770  0.0459  0.1051  0.1557
37181W        W45781  22.408   0.292  20.239 -0.0650  0.1876 -0.1520
37182W        W45782  18.292   2.632  17.255 -0.2993  0.2442 -0.0213
37183W        W45783  16.451   2.595   9.223 -0.0085  0.0601 -0.2811
37184W        W45784   8.619   0.089  23.381 -0.0909  0.1471 -0.1638
37185W        W45785  14.570   7.571   4.907 -0.0786  0.0721  0.1647
37186W        W45786   5.904   7.590  25.590  0.2328  0.5505  0.5064
37187W        W45787  11.927   7.514  10.712  0.0512  0.0081  0.0924
37188W        W45788  16.658   6.307   3.164  0.3590 -0.0175 -0.0471
37189W        W45789  16.935   1.154  21.225  0.0251 -0.2504  0.0299
37190W        W45790  10.310   6.777   0.899 -0.1179 -0.1334  0.0855
37191W        W45791  18.132   6.308   4.142  0.2875 -0.2162  0.1476
37192W        W45792   1.511   5.516  28.990 -0.1584  0.0971 -0.2521
37193W        W45793  19.186   5.521  24.770 -0.0417 -0.0733  0.1369
37194W        W45794  12.224   1.184  28.391  0.0425  0.1646  0.2694
37195W        W45795  11.448   7.101  32.513  0.0698  0.1037 -0.1118
37196W        W45796  22.383   3.136   4.885  0.2265  0.1080 -0.0217
37197W        W45797  16.220   3.207  22.860 -0.1322  0.0961 -0.3844
37198W        W45798  22.915   1.144  21.505 -0.1305  0.0274  0.2101
37199W        W45799   9.919   1.914  23.953 -0.3257 -0.0182  0.0225
37200W        W45800   8.745   3.064   1.452 -0.3927  0.0375 -0.2006
37201W        W45801   8.255   4.192  11.663  0.3184  0.0516  0.0826
37202W        W45802  23.700   4.149  21.747 -0.0261 -0.0953 -0.1458
37203W        W45803  18.812   3.405  24.030  0.2302  0.2832 -0.1561
37204W        W45804   5.411   5.232   3.724 -0.4070 -0.0634  0.0513
37205W        W45805  18.331   1.746  24.009  0.1883  0.0452 -0.0109
37206W        W45806  23.680   6.873  13.076 -0.1594  0.1565 -0.1649
37207W        W45807   8.360   4.853  10.504 -0.0631  0.2255 -0.4767
37208W        W45808  14.338   2.362  30.669  0.0277 -0.0212 -0.5594
37209W        W45809  21.301   3.981  10.762 -0.1959  0.0439  0.0886
37210W        W45810  13.050   3.848  30.827 -0.0875  0.1527  0.0238
37211W        W45811  16.834   0.374  25.573 -0.0503  0.1143 -0.0566
37212W        W45812  15.507   5.224   0.106  0.5161  0.2909 -0.0384
37213W        W45813   0.175   3.684  11.552  0.0201 -0.0028  0.1217
37214W        W45814   8.082   5.246  29.729  0.2050 -0.1214  0.0147
37215W        W45815   2.255   5.536  11.577 -0.1366  0.1265 -0.3799
37216W        W45816  18.722   5.769  18.435  0.1096 -0.3672 -0.0333
37217W        W45817  19.977   4.592  28.777  0.1675  0.1905 -0.1394
37218W        W45818   1.542   6.926  11.390 -0.0670  0.3323 -0.0646
37219W        W45819   2.842   0.114  14.421  0.0114 -0.1519  0.1648
37220W        W45820  19.173   3.065  19.304  0.1768 -0.0163 -0.1299
37221W        W45821   3.738   7.443   6.827  0.0467 -0.0665 -0.2006
37222W        W45822   9.052   1.065   7.134  0.2041 -0.0798  0.4055
37223W        W45823  17.738   7.108  31.334 -0.2583  0.2122  0.1090
37224W        W45824  10.584   6.692  28.853 -0.3101  0.1961  0.0077
37225W        W45825  10.468   6.516  12.769 -0.0354  0.0500 -0.0438
37226W        W45826   9.479   0.482  23.845  0.0359  0.0883  0.1114
37227W        W45827  20.391   0.109   2.916  0.3192 -0.1881  0.0783
37228W        W45828  24.889   2.760   4.623 -0.0528 -0.2932  0.1875
37229W        W45829   8.305   1.712   2.581  0.1714 -0.1023 -0.0015
37230W        W45830   6.072   6.947  15.877  0.0804  0.0601 -0.0056
37231W        W45831   6.608   6.737  28.428  0.0480 -0.1064 -0.0813
37232W        W45832  13.009   3.116   2.314  0.2758  0.0673  0.0194
37233W        W45833  24.257   0.964  20.903  0.2619 -0.1508  0.0375
37234W        W45834  16.002   6.098  20.790 -0.0727  0.0413  0.1928
37235W        W45835  18.160   1.283  10.833 -0.0798 -0.0023  0.0012
37236W        W45836  22.756   3.520  24.874  0.3970  0.1894 -0.2789
37237W        W45837  20.518   3.214  25.865 -0.0413  0.2259  0.0087
37238W        W45838   5.825   5.390   4.003 -0.1677  0.2685  0.2884
37239W        W45839  21.430   7.507  12.232 -0.2096 -0.0200  0.3621
37240W        W45840  19.178   2.295  19.218  0.2528 -0.2377  0.1090
37241W        W45841   9.125   5.438   8.478  0.0735  0.1283 -0.0668
37242W        W45842  12.942   7.526  20.641 -0.3007  0.0301  0.2017
37243W        W45843  13.246   7.622  10.773 -0.2848 -0.0055 -0.1092
37244W        W45844  24.558   0.295  26.343  0.3632 -0.1450  0.0458
37245W        W45845  23.483   0.256  30.689 -0.1178  0.4235  0.4253
37246W        W45846   8.925   0.053  23.022  0.0638 -0.0359 -0.1924
37247W        W45847  24.713   7.479   4.078  0.0866  0.1596 -0.0158
37248W        W45848   2.142   5.379  26.497  0.1777  0.4493 -0.2503
37249W        W45849  12.574   2.924  29.683  0.2521  0.0974  0.0218
37250W        W45850  16.840   4.941  25.363 -0.2575  0.1310  0.0780
37251W        W45851  12.270   6.344  32.860 -0.0447 -0.0853 -0.0028
37252W        W45852  18.066   2.822  19.690 -0.0799 -0.3372  0.2372
37253W        W45853  15.363   1.052  32.092  0.0360  0.0097  0.0226
37254W        W45854  10.101   7.775   5.454  0.1142 -0.0060  0.4303
37255W        W45855  17.184   4.372  16.441  0.1251 -0.0991 -0.0780
37256W        W45856  12.651   7.728  25.160 -0.1543 -0.2885  0.0195
37257W        W45857  23.080   5.254   2.854 -0.0379 -0.0554  0.5496
37258W        W45858   3.992   1.975  12.030  0.3089  0.1231 -0.4997
37259W        W45859   2.211   0.830  12.483 -0.0420 -0.1570 -0.1769
37260W        W45860   0.257   4.249   2.031 -0.0390 -0.2174 -0.0691
37261W        W45861  18.153   6.844   0.691  0.0822 -0.0404 -0.3482
37262W        W45862  11.780   5.937   0.598 -0.1622 -0.2299  0.3347
37263W        W45863  10.418   0.786  22.787  0.0113 -0.4581 -0.0760
37264W        W45864   5.639   1.646  15.599 -0.1534 -0.2579  0.0326
37265W        W45865  17.317   0.931   0.840  0.0620  0.0198 -0.0730
37266W        W45866   8.584   2.769  30.789  0.2745  0.0779  0.0976
37267W        W45867  10.612   2.653   8.490  0.1469  0.1825 -0.1340
37268W        W45868  15.196   1.665  17.601 -0.1005 -0.1482 -0.1304
37269W        W45869   1.197   2.603   9.505  0.1292  0.1705  0.1258
37270W        W45870  12.909   7.654  19.416  0.1780  0.1806  0.1208
37271W        W45871   4.934   4.466  24.161  0.0838 -0.1103  0.1138
37272W        W45872   8.940   5.857  23.965 -0.0769 -0.1567  0.2022
37273W        W45873  23.833   1.947  21.261  0.2452  0.0119 -0.3280
37274W        W45874   1.071   5.062  11.500  0.1680 -0.1008 -0.1663
37275W        W45875   0.028   3.911   9.285 -0.0878  0.2578  0.2915
37276W        W45876  19.801   5.996  26.689 -0.0890  0.1875 -0.0666
37277W        W45877   3.299   2.379  18.418  0.1400 -0.1416  0.1522
37278W        W45878  15.871   6.045   4.431 -0.0592  0.0335  0.0922
37279W        W45879   3.008   1.990   1.241 -0.0395 -0.2445 -0.0611
37280W        W45880   1.832   0.510  29.672 -0.1799  0.1232 -0.3375
37281W        W45881  10.744   7.550  24.953  0.1072  0.2228  0.0348
37282W        W45882   4.110   1.057   0.384  0.0286 -0.0654  0.1397
37283W        W45883   8.714   7.585  30.350 -0.0150 -0.1705  0.1012
37284W        W45884  11.576   3.789  26.768  0.0800  0.1107 -0.0435
37285W        W45885   0.302   4.900  23.983  0.4528  0.1569 -0.0741
37286W        W45886   4.770   4.593  14.575 -0.0889  0.3548 -0.1213
37287W        W45887   9.627   6.943  29.236  0.0283 -0.0707  0.3175
37288W        W45888  24.882   3.594  29.459  0.0883  0.1580  0.1459
37289W        W45889   5.830   2.578   8.431 -0.1448  0.0482  0.1175
37290W        W45890   9.001   4.447  22.930  0.2183  0.1015 -0.3165
37291W        W45891  12.570   2.192  19.209  0.1239 -0.0776  0.1332
37292W        W45892   4.534   1.714   3.788  0.0594  0.1195 -0.0966
37293W        W45893  17.713   3.459   7.055  0.1890  0.0287 -0.0587
37294W        W45894  13.000   7.154   7.584 -0.2795 -0.0030  0.0483
37295W        W45895   3.263   2.116  16.668 -0.0578 -0.0340  0.0515
37296W        W45896   3.571   1.953  15.868 -0.2783  0.1851  0.0431
37297W        W45897  24.339   3.686   1.988  0.0172  0.5414  0.2060
37298W        W45898  22.276   0.954  20.297  0.0743  0.1019  0.0214
37299W        W45899  21.075   2.665   1.152  0.2904 -0.0871  0.0992
37300W        W45900   2.740   4.467   4.260 -0.1881 -0.1623  0.2344
37301W        W45901  21.263   7.141  25.318 -0.0196 -0.1426  0.0016
37302W        W45902   6.393   3.112   3.670 -0.2084  0.0462 -0.2522
37303W        W45903   3.188   1.938  16.219  0.0317  0.1690  0.0903
37304W        W45904  16.758   0.383   1.367 -0.0549 -0.1444  0.1764
37305W        W45905  16.827   3.892  27.589  0.1133  0.0176  0.0608
37306W        W45906  13.326   1.967  20.468  0.3317 -0.1529  0.1133
37307W        W45907   8.602   4.287   1.850 -0.0533 -0.0040  0.0126
37308W        W45908  21.217   6.450  26.184 -0.1973  0.0332  0.0421
37309W        W45909  24.891   0.177  28.979  0.1721  0.1357  0.0217
37310W        W45910  12.078   1.333   3.305 -0.3542 -0.1699  0.0421
37311W        W45911  13.867   4.986  23.018  0.0073  0.4526  0.0404
37312W        W45912   5.780   0.768  16.971  0.0924 -0.0052 -0.2079
37313W        W45913  20.964   5.398  31.526  0.2321  0.2443  0.0898
37314W        W45914  14.230   0.835  27.439  0.1138  0.2447  0.3996
37315W        W45915   2.369   7.413  10.968 -0.1363 -0.0799  0.0775
37316W        W45916  19.545   7.746  27.579  0.0544 -0.1152  0.0287
37317W        W45917  14.098   7.543  21.861  0.1579 -0.1055 -0.3559
37318W        W45918   1.368   0.478  24.455 -0.0768  0.3092  0.1460
37319W        W45919  14.653   2.871  27.488  0.4580  0.0830  0.2228
37320W        W45920   9.669   6.250  27.475 -0.2908  0.0449  0.0156
37321W        W45921   8.609   6.825  29.646  0.1944 -0.1170  0.0798
37322W        W45922  15.508   4.428  17.901 -0.3018 -0.1650 -0.2801
37323W        W45923  23.293   5.023  10.398 -0.0272 -0.3841  0.0210
37324W        W45924  18.352   5.997  17.275  0.0312  0.0385 -0.1868
37325W        W45925  16.204   1.075  16.294  0.1081  0.0588  0.3642
37326W        W45926  17.967   7.201   3.209 -0.0288  0.2578 -0.1343
37327W        W45927   4.480   2.190   3.949 -0.3293  0.4144 -0.0321
37328W        W45928  16.846   2.433  23.924  0.0008 -0.1500  0.2293
37329W        W45929  13.983   0.150  29.841  0.1631 -0.3196  0.2679
37330W        W45930   1.001   3.726  27.576 -0.1459 -0.2364 -0.1330
37331W        W45931  17.129   4.571   8.466  0.2429  0.0519  0.1820
37332W        W45932  14.452   5.494  20.465 -0.1336 -0.3961  0.2142
37333W        W45933  24.004   1.980   7.601  0.1178 -0.3346  0.0184
37334W        W45934  21.778   2.806  11.074 -0.2681 -0.0291  0.3114
37335W        W45935  14.165   0.821  31.640  0.0076  0.0654  0.1769
37336W        W45936   3.942   4.240  32.395  0.1332  0.4874  0.0403
37337W        W45937   3.628   4.883  28.251  0.0237 -0.0750 -0.0258
37338W        W45938  23.807   0.239   8.450 -0.1193  0.1247  0.3293
37339W        W45939   0.395   2.428   7.933 -0.0070  0.1734  0.0657
37340W        W45940   7.245   2.118   6.325 -0.2222  0.0787  0.1151
37341W        W45941   8.326   7.251  28.695 -0.0099  0.2439  0.1591
37342W        W45942  20.070   4.666  18.940 -0.0392  0.2831  0.1244
37343W        W45943  14.335   2.431   4.903  0.0832 -0.2282  0.1222
37344W        W45944  23.784   7.717   6.411  0.2045  0.1595  0.1611
37345W        W45945  13.048   5.471  27.933  0.0735  0.0033  0.2217
37346W        W45946  24.761   7.091   2.348  0.1011  0.0760 -0.0207
37347W        W45947  18.297   1.079  19.956 -0.2120 -0.0716 -0.3145
37348W        W45948   6.386   0.114  12.267  0.1628 -0.1373  0.3679
37349W        W45949  13.940   3.676  29.067  0.4121 -0.0663  0.0009
37350W        W45950   5.418   5.005   2.334  0.0166 -0.1008  0.4201
37351W        W45951   1.693   6.324   9.941  0.0308  0.0987  0.0355
37352W        W45952  17.892   4.965  29.502 -0.0309  0.2681 -0.0827
37353W        W45953   9.482   4.207  11.025  0.1826  0.1078  0.0203
37354W        W45954  15.737   2.818   7.103  0.0604 -0.1216 -0.1771
37355W        W45955  10.553   5.073  29.763 -0.1730  0.0111  0.0268
37356W        W45956  16.565   1.331  20.231 -0.1427 -0.0236  0.1623
37357W        W45957  16.002   1.202   0.796  0.0441  0.0798  0.0898
37358W        W45958  10.751   2.928   8.958  0.1046  0.0392 -0.2324
37359W        W45959  11.452   2.983  22.256  0.2438  0.1728  0.1389
37360W        W45960  17.265   3.190  31.931  0.0625  0.0441  0.2044
37361W        W45961  15.729   0.023  28.052 -0.0905  0.2645  0.3651
37362W        W45962  16.418   5.586   6.926  0.1648  0.0298 -0.0099
37363W        W45963  17.107   3.292  16.693 -0.1100 -0.0101  0.0103
37364W        W45964   6.915   4.297   0.347  0.0256  0.0683 -0.2563
37365W        W45965  14.992   6.675   8.878  0.1135  0.2140  0.0213
37366W        W45966   4.939   0.768  23.620  0.3319  0.1166  0.2147
37367W        W45967  14.709   4.750   1.418 -0.2443  0.2931  0.0337
37368W        W45968   7.175   4.132  29.901 -0.0513 -0.4168 -0.3648
37369W        W45969   3.398   0.325  27.648  0.0133  0.0540  0.1605
37370W        W45970  23.876   5.551  32.644 -0.0633 -0.1070  0.0417
37371W        W45971   4.577   2.765   3.793 -0.0876  0.1190 -0.0407
37372W        W45972  17.633   7.255  15.264  0.3982  0.1298 -0.0976
37373W        W45973  19.006   6.753  22.356 -0.3505 -0.1683 -0.0054
37374W        W45974  14.158   5.410  19.524  0.1522 -0.0127  0.3990
37375W        W45975  17.084   5.400   7.704  0.1108 -0.0497 -0.1867
37376W        W45976  10.453   3.238  31.829  0.2835 -0.1062 -0.0249
37377W        W45977  19.569   4.593  29.973 -0.0222  0.1546  0.0009
37378W        W45978  21.248   0.907  10.556  0.0278  0.0358  0.1427
37379W        W45979  19.702   0.516  10.541 -0.3336  0.0669  0.0559
37380W        W45980  19.006   5.721  29.302 -0.1599  0.1690 -0.5144
37381W        W45981   9.487   5.381   4.319 -0.3344  0.0059 -0.0371
37382W        W45982  10.857   5.876  28.639 -0.1153 -0.0252 -0.0189
37383W        W45983  22.162   2.980   1.005  0.0186 -0.0485  0.3345
37384W        W45984  21.105   1.466  24.224  0.0732  0.1413  0.2350
37385W        W45985   6.271   1.808   8.290 -0.2077  0.2275 -0.1755
37386W        W45986  11.099   5.048   1.435 -0.2200 -0.2757 -0.0936
37387W        W45987  18.721   3.484   3.824 -0.1764  0.1036 -0.1342
37388W        W45988  18.509   1.071  31.794 -0.1443  0.1143 -0.0498
37389W        W45989   7.606   1.853  14.229  0.3920  0.1071  0.3149
37390W        W45990  22.557   7.057  11.390  0.4441  0.0534 -0.0742
37391W        W45991  16.117   3.585   8.902  0.0548  0.3381  0.1956
37392W        W45992  15.047   6.304  16.236 -0.2183  0.0207  0.1271
37393W        W45993   3.100   7.566   3.386  0.1328 -0.0474 -0.1168
37394W        W45994  11.884   4.861  10.371  0.0207 -0.0219 -0.0931
37395W        W45995   5.973   0.274  10.926  0.0013  0.2330  0.0337
37396W        W45996  21.563   3.645  20.509  0.4597 -0.3388 -0.2108
37397W        W45997  10.068   5.434  30.046 -0.0502 -0.2089  0.1543
37398W        W45998   8.071   5.250  26.499 -0.0813 -0.0276  0.3008
37399W        W45999   0.886   3.077   4.732  0.3728  0.3294 -0.0224
37400W        W46000   6.681   2.106  16.476 -0.3161 -0.1589  0.1680
37401W        W46001   1.959   6.025  10.870  0.3350  0.2551 -0.0628
37402W        W46002   4.958   1.390  17.083  0.1775  0.1113  0.0664
37403W        W46003  21.966   2.454   4.555  0.4335 -0.1429  0.0111
37404W        W46004  20.355   5.055   5.311  0.5442 -0.1256  0.2204
37405W        W46005  11.654   1.584  18.182 -0.1775  0.3393  0.2673
37406W        W46006   8.857   6.028  24.864 -0.2022  0.2086 -0.1251
37407W        W46007   1.502   2.276   2.924 -0.2913  0.0731 -0.1478
37408W        W46008  21.112   0.490  26.471 -0.4013 -0.0767 -0.1361
37409W        W46009  24.140   4.464  22.307 -0.0679  0.0195  0.1055
37410W        W46010   3.590   0.602  23.560 -0.1174  0.0478 -0.2089
37411W        W46011   5.411   6.998  12.228 -0.0106  0.0358 -0.2086
37412W        W46012  13.232   4.949  11.119  0.0017 -0.0336  0.1145
37413W        W46013  22.031   2.752   1.542 -0.0519 -0.0223 -0.0906
37414W        W46014  15.893   5.566  15.246 -0.0314 -0.2299 -0.0865
37415W        W46015  19.058   4.178  23.066  0.0676  0.1419  0.1333
37416W        W46016  13.370   1.585  29.298  0.0888  0.1287 -0.1846
37417W        W46017  13.566   4.018  24.196 -0.0968  0.0170 -0.0411
37418W        W46018  21.602   1.818  10.014 -0.1842 -0.4064 -0.3231
37419W        W46019   7.650   3.680  10.495 -0.1853  0.2291  0.1481
37420W        W46020   5.668   6.752  26.085 -0.1800 -0.2784  0.0427
37421W        W46021   5.735   2.459  28.384  0.0845 -0.1599  0.1541
37422W        W46022  23.971   0.664  22.686 -0.4243 -0.1876 -0.0496
37423W        W46023   1.519   5.928   1.995 -0.1287 -0.1848 -0.1092
37424W        W46024  21.623   1.733  20.019 -0.2850  0.0395  0.0357
37425W        W46025  10.042   0.005   2.618  0.0341 -0.0073 -0.0661
37426W        W46026  14.555   1.210  21.598 -0.1821 -0.1685 -0.0405
37427W        W46027  12.964   2.977  26.369  0.2931 -0.2738  0.0074
37428W        W46028   6.808   3.181  15.067  0.0347  0.0979 -0.0052
37429W        W46029  21.070   5.678  30.539  0.2008 -0.0123  0.1405
37430W        W46030  11.041   6.382  21.587 -0.2111 -0.0059  0.2659
37431W        W46031  12.148   0.936   4.519  0.4105  0.4079 -0.2006
37432W        W46032  17.234   4.735  18.867  0.0216 -0.3377 -0.0245
37433W        W46033   2.409   0.859  32.893  0.0617  0.2064 -0.2302
37434W        W46034  11.208   2.268  25.228  0.0854  0.0808 -0.1651
37435W        W46035  18.298   0.788  22.915 -0.0967 -0.0610  0.1062
37436W        W46036  17.807   4.239  25.243  0.0268 -0.0720  0.1615
37437W        W46037  17.538   0.338  24.812 -0.2502  0.2078  0.2502
37438W        W46038   3.639   5.364  25.589 -0.0842  0.0527 -0.1831
37439W        W46039   6.601   5.585   4.256  0.0974 -0.1154 -0.0328
37440W        W46040  19.261   3.522  28.728 -0.1250 -0.0601  0.0200
37441W        W46041   2.655   4.060  16.769 -0.3288 -0.0097  0.1043
37442W        W46042   4.834   1.009   6.178 -0.1591 -0.1842  0.0785
37443W        W46043   2.336   6.414  12.454  0.0192 -0.0719 -0.0574
37444W        W46044  14.875   6.965  17.724 -0.0431 -0.2002 -0.2341
37445W        W46045   6.840   0.903   4.035 -0.1923  0.1760 -0.2477
37446W        W46046  20.567   4.056   0.244 -0.2447  0.0169 -0.1007
37447W        W46047   0.867   3.092  14.245 -0.0695 -0.1289  0.0857
37448W        W46048  10.860   4.256  20.877 -0.0504  0.1028 -0.2185
37449W        W46049   6.351   4.354   4.397 -0.3622  0.2671 -0.0880
37450W        W46050  11.591   6.638   2.294 -0.3804 -0.2260 -0.1467
37451W        W46051   5.598   0.790  32.318 -0.3055  0.3253 -0.0062
37452W        W46052  18.267   7.488   7.811  0.2414  0.0094 -0.0549
37453W        W46053  13.294   1.673   9.688 -0.0518 -0.0004 -0.0644
37454W        W46054   1.824   6.401   7.168 -0.0383  0.2548  0.2470
37455W        W46055  12.371   0.121  12.077 -0.2766  0.1117  0.2840
37456W        W46056   0.848   0.607  31.133  0.0403  0.0282  0.1685
37457W        W46057  14.431   6.253  30.417  0.0566  0.0558 -0.0809
37458W        W46058   9.738   2.936  24.092 -0.1004 -0.1737 -0.0726
37459W        W46059  23.802   4.872   9.711  0.0406 -0.1373  0.1240
37460W        W46060  17.450   4.980  19.945  0.0130  0.0045  0.0153
37461W        W46061   2.520   1.252  12.373  0.1883  0.3557 -0.0983
37462W        W46062  14.142   7.337  20.106 -0.0468  0.0856  0.0558
37463W        W46063   6.856   1.940   7.070 -0.0662 -0.0413  0.1564
37464W        W46064  10.056   3.560  31.791  0.0026  0.0105  0.0837
37465W        W46065  22.532   5.842   3.250 -0.1125 -0.3930  0.0273
37466W        W46066  23.148   1.128  24.071  0.1290 -0.2673  0.0715
37467W        W46067  18.273   2.299  22.748  0.1806 -0.0839  0.0403
37468W        W46068   0.408   4.132  28.802  0.0942 -0.0634  0.0423
37469W        W46069  13.084   1.879  18.997 -0.0419 -0.0530  0.1362
37470W        W46070   0.043   1.443  14.033  0.0352  0.0194  0.2569
37471W        W46071  21.332   1.908   4.229 -0.0235 -0.2609 -0.2951
37472W        W46072  13.725   6.314   3.466  0.1548  0.0329 -0.1336
37473W        W46073   2.139   1.941  23.197 -0.0412 -0.1732  0.2513
37474W        W46074  17.570   3.204   0.328  0.1974  0.0928  0.2610
37475W        W46075   8.597   0.614  25.685 -0.0448 -0.0874  0.0156
37476W        W46076  12.941   1.024  28.252  0.2263 -0.0365  0.0402
37477W        W46077  13.256   3.634   8.947  0.0290  0.0418  0.1369
37478W        W46078   7.915   1.878  14.604  0.2783  0.0699  0.0686
37479W        W46079  20.670   1.322  21.067  0.1691 -0.1094 -0.1025
37480W        W46080  21.403   1.696  27.561 -0.0394  0.1917 -0.2661
37481W        W46081  18.765   2.919  26.582 -0.4991 -0.2241 -0.1642
37482W        W46082  14.798   3.511  23.257 -0.1466  0.3409  0.0244
37483W        W46083  24.873   6.183   6.110  0.0424 -0.0503  0.2445
37484W        W46084  13.876   5.790  24.967  0.1016  0.1345 -0.0115
37485W        W46085  13.949   3.972  18.398 -0.0340 -0.2416  0.0445
37486W        W46086  10.469   1.697   8.211 -0.0837 -0.1149 -0.0810
37487W        W46087   6.356   0.474  33.000  0.2263  0.1420  0.0586
37488W        W46088   6.416   4.778   6.308 -0.1438  0.3663  0.0378
37489W        W46089  11.232   3.830  27.487  0.2726 -0.1995  0.1728
37490W        W46090   5.111   7.384   8.525 -0.0636 -0.0563  0.1745
37491W        W46091  15.844   1.913  18.384  0.2594  0.5604  0.1840
37492W        W46092  17.322   6.472  18.698  0.4360 -0.0595  0.0274
37493W        W46093  10.555   5.300   2.293  0.1148 -0.0577  0.1223
37494W        W46094  18.581   5.078   4.413 -0.0233 -0.1535  0.0140
37495W        W46095  11.450   6.276   2.592  0.2111 -0.0798  0.2402
37496W        W46096  13.809   2.039  26.579  0.2430  0.0862 -0.0172
37497W        W46097  16.536   1.115   6.099 -0.0676 -0.0414  0.0838
37498W        W46098   0.059   2.959  22.101  0.0142 -0.0222 -0.1238
37499W        W46099  22.283   7.245  20.775  0.1416  0.1344 -0.2825
37500W        W46100  14.983   2.889   8.902  0.1828  0.1334  0.0212
37501W        W46101  13.618   0.990   4.353 -0.0750 -0.0908  0.0883
37502W        W46102   0.061   2.260   4.004 -0.1141 -0.0312  0.0049
37503W        W46103  19.195   4.864   3.878  0.0585 -0.1281  0.1576
37504W        W46104   6.630   4.137  12.923 -0.0077  0.0371  0.0593
37505W        W46105  13.286   4.535   2.444 -0.3080  0.0737 -0.3376
37506W        W46106  17.230   7.679   6.041  0.1775  0.0672  0.0703
37507W        W46107  11.983   7.391  10.221  0.2247  0.1070  0.2702
37508W        W46108   7.693   1.160  28.772  0.2688 -0.0314 -0.0003
37509W        W46109  11.998   4.420  26.635  0.0727  0.0619 -0.2537
37510W        W46110  23.355   4.748   9.304 -0.0637  0.1962 -0.1022
37511W        W46111   2.063   0.447   8.374  0.0314 -0.0563 -0.0293
37512W        W46112  12.672   5.622   1.549  0.1163  0.3609 -0.2516
37513W        W46113   5.047   2.938  15.507  0.1329  0.2682 -0.0138
37514W        W46114  14.935   0.124  19.098 -0.0199  0.1281 -0.2764
37515W        W46115  17.331   2.178  30.233 -0.0372  0.1689 -0.2464
37516W        W46116  16.444   2.839   0.793 -0.2362 -0.3199  0.5058
37517W        W46117   1.265   6.850  30.634 -0.1182  0.3222 -0.0950
37518W        W46118   5.944   7.333  12.600 -0.1160 -0.0797  0.0148
37519W        W46119   2.523   4.915  31.507  0.0793 -0.0387  0.1223
37520W        W46120   9.820   6.782  32.000  0.2009 -0.0630  0.1021
37521W        W46121  11.216   6.507   7.455  0.1668  0.3004 -0.2713
37522W        W46122  19.357   4.176   7.595 -0.3606  0.1601 -0.2290
37523W        W46123  18.319   6.469  14.841  0.0411  0.2631  0.3526
37524W        W46124   0.048   6.705   0.862 -0.1210 -0.1467  0.0272
37525W        W46125  11.700   7.576  27.363  0.2249 -0.0391  0.0190
37526W        W46126   8.014   1.209  16.616  0.1161 -0.0279  0.1388
37527W        W46127   0.613   6.804   9.507  0.1834  0.1485  0.0544
37528W        W46128   3.682   1.035   6.152  0.0176 -0.1371 -0.0571
37529W        W46129  17.344   1.950  19.426 -0.0045  0.1431 -0.0700
37530W        W46130   3.329   3.417  14.371  0.0177  0.0359  0.0034
37531W        W46131   3.008   5.518  26.279 -0.0187  0.0585  0.0085
37532W        W46132   2.530   6.300   4.127 -0.2560 -0.2784 -0.0600
37533W        W46133   6.182   3.758   9.364  0.0947 -0.0890  0.2005
37534W        W46134  15.890   7.532  19.333 -0.1603 -0.1858 -0.0618
37535W        W46135  14.131   7.322  32.978  0.3890  0.4332 -0.1252
37536W        W46136  24.796   6.429   3.941 -0.0935  0.2096 -0.0928
37537W        W46137   6.441   5.071  32.327  0.1242  0.0818 -0.2384
37538W        W46138   4.344   7.790  14.137 -0.2837  0.0413  0.0082
37539W        W46139  15.082   4.091  25.747 -0.1519 -0.0368 -0.2944
37540W        W46140   6.605   0.307   9.345  0.2237 -0.1796  0.0702
37541W        W46141  12.906   7.521   3.197  0.1089  0.2955  0.3243
37542W        W46142   3.949   0.417  23.235 -0.1301  0.1904 -0.3001
37543W        W46143  14.661   6.467  23.274  0.5615 -0.0332 -0.0842
37544W        W46144  24.909   2.256  32.379  0.0124  0.0459  0.1325
37545W        W46145  13.465   4.695  20.160 -0.1684  0.0248  0.0473
37546W        W46146   7.757   7.450  24.065  0.1010 -0.2202  0.0066
37547W        W46147  12.394   7.420   4.293 -0.1213 -0.1154 -0.2175
37548W        W46148  19.288   5.875  26.763  0.1277  0.1006 -0.3631
37549W        W46149   5.000   7.294  25.810  0.3474  0.0444 -0.0889
37550W        W46150  13.363   1.986  28.920 -0.0394 -0.2191 -0.0312
37551W        W46151   0.120   0.422   7.458 -0.0571 -0.0756  0.0256
37552W        W46152   0.117   2.257  11.893  0.1108 -0.1882  0.1449
37553W        W46153  19.230   2.300   3.484 -0.0699  0.0835 -0.0188
37554W        W46154  18.886   3.201  32.844 -0.1377 -0.1529  0.0544
37555W        W46155  22.674   1.076  13.482 -0.2331  0.2856 -0.0944
37556W        W46156   2.789   3.227  26.090 -0.1908 -0.2084 -0.0331
37557W        W46157   9.837   4.454  26.905  0.2640  0.0941  0.0934
37558W        W46158   7.132   3.303  30.210 -0.1603 -0.2554  0.1840
37559W        W46159  23.147   0.440  20.528  0.0918  0.0618 -0.1108
37560W        W46160   2.446   2.225  29.622 -0.0473 -0.2400  0.0070
37561W        W46161  10.828   3.584   0.495 -0.1687  0.4431 -0.0363
37562W        W46162  10.990   2.835   4.644  0.2708 -0.0497  0.1520
37563W        W46163  10.289   4.502  30.207  0.1223 -0.0533  0.1332
37564W        W46164  16.129   3.658  31.822 -0.0811  0.2515  0.1060
37565W        W46165   6.668   2.453  22.902  0.1788  0.2588  0.4000
37566W        W46166   3.894   0.025  11.349 -0.3601 -0.0422  0.1153
37567W        W46167  12.761   6.198  21.656  0.1500 -0.0715  0.3134
37568W        W46168  15.093   0.965  27.448  0.1406  0.1059 -0.2684
37569W        W46169   3.454   3.632   3.393  0.2187 -0.2858 -0.1940
37570W        W46170  11.397   6.981   0.051  0.0544  0.0242 -0.0976
37571W        W46171   5.807   7.146   4.260  0.0389  0.1852  0.2796
37572W        W46172   3.646   1.432  17.741  0.3294 -0.1699 -0.1094
37573W        W46173  20.211   7.118   6.690 -0.1863 -0.1344 -0.0228
37574W        W46174   1.005   5.276  29.243  0.3895 -0.0647  0.0132
37575W        W46175   1.852   3.301  29.656  0.3652  0.0451 -0.0218
37576W        W46176   8.560   4.822  27.376  0.1127 -0.5379  0.0874
37577W        W46177  12.096   0.533  31.609  0.3859  0.1512  0.1079
37578W        W46178  15.626   0.396  31.614 -0.0540  0.0070 -0.1300
37579W        W46179   1.878   4.667  27.339  0.1076  0.2964  0.2041
37580W        W46180   9.109   2.866  27.805  0.0937  0.2386  0.0084
37581W        W46181  21.471   5.082  24.265 -0.1038 -0.1256 -0.2312
37582W        W46182   9.794   2.758   4.034 -0.2375 -0.1245 -0.1562
37583W        W46183   0.115   6.279  23.802 -0.3268  0.0579  0.3597
37584W        W46184  15.502   0.654  30.934 -0.0317  0.1266 -0.0643
37585W        W46185  21.199   7.688  25.055  0.1022  0.1166 -0.2950
37586W        W46186   9.634   4.480  32.107  0.3781  0.2366 -0.1822
37587W        W46187   8.108   0.707  14.038  0.1534 -0.1081 -0.1207
37588W        W46188   2.522   5.607  25.186  0.1407 -0.1054  0.1143
37589W        W46189   8.890   5.441   8.092  0.2573  0.2652  0.0167
37590W        W46190  18.887   6.791  26.368 -0.1107  0.0631  0.3384
37591W        W46191  20.650   3.211  24.988  0.0544 -0.1302 -0.2053
37592W        W46192   4.090   6.886   8.549 -0.4287  0.0487 -0.0929
37593W        W46193   7.354   4.483  23.598  0.0216 -0.6123  0.2381
37594W        W46194   2.363   4.386   5.637  0.0230  0.1058  0.2419
37595W        W46195   2.040   7.628  15.705  0.2092 -0.1407  0.3891
37596W        W46196   9.088   7.102  28.397 -0.1128 -0.0965 -0.0060
37597W        W46197  18.064   3.533  31.582 -0.1074  0.1632  0.2880
37598W        W46198   4.948   7.227  14.613 -0.2328 -0.1063 -0.1201
37599W        W46199  24.416   4.595  23.645 -0.0823  0.2077 -0.2131
37600W        W46200   1.985   6.229   3.115  0.1055  0.1087 -0.0094
37601W        W46201  12.489   7.112   4.756  0.3125 -0.1892  0.0655
37602W        W46202  13.733   3.945   9.242  0.0597  0.0065 -0.1530
37603W        W46203  19.424   7.344  20.072  0.0332 -0.1966 -0.1505
37604W        W46204   0.175   7.337   3.778 -0.1046 -0.1603 -0.1131
37605W        W46205   9.052   3.058  24.087  0.1544 -0.3095 -0.2459
37606W        W46206   4.068   7.021   9.730 -0.1948 -0.1948  0.2077
37607W        W46207  23.034   2.627  26.967 -0.0804  0.0068  0.0508
37608W        W46208  22.016   1.661   9.010 -0.0450  0.0111 -0.3005
37609W        W46209  10.524   4.148   9.503 -0.1074 -0.0789 -0.1127
37610W        W46210  23.938   2.357  32.816  0.2066 -0.2053 -0.0322
37611W        W46211  20.859   5.104  32.001  0.0466 -0.1178  0.1705
37612W        W46212  22.342   3.348  28.453  0.1098 -0.1021 -0.2341
37613W        W46213  12.203   4.435  21.941  0.2012  0.0976 -0.1531
37614W        W46214  18.517   5.418  23.166  0.0777  0.0483  0.0398
37615W        W46215  19.116   4.245   4.206 -0.1563 -0.0037  0.2512
37616W        W46216   1.403   1.515  25.794 -0.0661 -0.0563 -0.2240
37617W        W46217  24.548   4.986  30.185 -0.0196 -0.1745  0.1108
37618W        W46218   6.070   5.365  17.185  0.0586  0.4665  0.0006
37619W        W46219  22.277   0.072  12.527 -0.0672 -0.0119  0.1405
37620W        W46220  14.399   7.480   2.833 -0.0242  0.0010  0.1247
37621W        W46221  22.156   0.283  11.672  0.0266 -0.0020 -0.0690
37622W        W46222  11.135   3.698   1.028  0.0627  0.1880 -0.0761
37623W        W46223  21.756   7.665   2.867  0.2273  0.3805  0.1143
37624W        W46224  15.538   4.902  32.157  0.1361 -0.0019  0.0409
37625W        W46225  19.540   5.098  22.937  0.1507 -0.0034 -0.2108
37626W        W46226   3.649   4.103   6.045 -0.1721 -0.1235 -0.1224
37627W        W46227  15.564   6.306  18.464  0.1375  0.0064  0.2801
37628W        W46228  17.492   1.981  23.743  0.4898 -0.2850  0.1231
37629W        W46229  18.796   5.578   4.339  0.1492 -0.1078 -0.3155
37630W        W46230  17.859   0.742   8.321 -0.0376 -0.3188  0.0987
37631W        W46231  14.515   1.016  32.653 -0.2186  0.1403  0.0971
37632W        W46232  18.743   1.008  27.326 -0.4523 -0.0935  0.0023
37633W        W46233   0.270   4.559  12.056  0.0371  0.1915 -0.0003
37634W        W46234  19.704   7.787  18.724  0.1998  0.1518  0.4446
37635W        W46235  20.749   3.563   9.351  0.0787  0.2769 -0.0926
37636W        W46236  19.139   1.912  32.447 -0.2492  0.1173 -0.0217
37637W        W46237  20.999   0.156   2.547 -0.0971  0.0101 -0.0612
37638W        W46238  14.711   2.629   1.314 -0.0693 -0.1484 -0.0455
37639W        W46239   6.805   1.428   1.049  0.1946 -0.0995 -0.1898
37640W        W46240   2.432   3.146   8.664  0.0642  0.1219  0.2561
37641W        W46241  22.015   7.767  32.131  0.0238  0.0755 -0.3039
37642W        W46242   8.760   5.326  28.590  0.0009 -0.0398 -0.0378
37643W        W46243  18.088   0.384  16.923 -0.1731  0.3520  0.1641
37644W        W46244  20.917   4.198  27.854 -0.1532  0.1275 -0.1754
37645W        W46245  13.248   6.377   4.649 -0.2366 -0.0567 -0.1903
37646W        W46246   2.864   5.091  10.087  0.2251  0.2043 -0.2936
37647W        W46247  23.052   5.041   1.135 -0.1688 -0.1383  0.0559
37648W        W46248  16.977   7.760  22.655  0.3787 -0.1340  0.1122
37649W        W46249  21.262   4.813  29.000  0.0382 -0.3729 -0.2244
37650W        W46250  11.963   7.191  22.241  0.1831 -0.0259 -0.0600
37651W        W46251  20.015   0.161  28.313 -0.2038 -0.0978 -0.1026
37652W        W46252   1.124   5.136   9.306  0.1114  0.1060  0.2786
37653W        W46253  10.172   4.481  31.773  0.1299 -0.1516 -0.0414
37654W        W46254   7.418   5.625  16.414  0.0745 -0.3990  0.0764
37655W        W46255  10.943   4.719  18.473  0.1468  0.2716 -0.0699
37656W        W46256  21.825   2.129   6.654  0.2605 -0.0496  0.1810
37657W        W46257   7.651   3.670   1.076 -0.0317 -0.0020  0.0247
37658W        W46258  10.247   0.443   8.540 -0.0392 -0.0063 -0.1728
37659W        W46259   0.834   0.179   4.203  0.2760  0.2810 -0.0841
37660W        W46260   9.002   5.854   7.318  0.1177 -0.0780  0.4225
37661W        W46261  15.270   3.741  26.965  0.2003 -0.0599 -0.0686
37662W        W46262  15.318   6.167  14.758  0.1977  0.1607 -0.0231
37663W        W46263   4.970   3.112  27.587 -0.0447  0.2546 -0.2702
37664W        W46264  22.867   2.017  32.923 -0.2820  0.0286  0.0718
37665W        W46265  12.450   0.148   9.537 -0.0224 -0.3861  0.1137
37666W        W46266   5.587   6.700   3.447 -0.1881 -0.1168 -0.2657
37667W        W46267   0.357   4.276   0.676 -0.0152  0.0089  0.3752
37668W        W46268  22.794   0.935   7.617  0.0100 -0.2002 -0.0414
37669W        W46269   2.738   2.724   1.935 -0.1481 -0.2739 -0.3819
37670W        W46270   5.013   4.560   1.597 -0.0755  0.2676 -0.1806
37671W        W46271  18.045   2.262   6.079 -0.2150 -0.1653  0.0593
37672W        W46272   6.904   7.432  16.493  0.2390  0.2859 -0.2228
37673W        W46273   4.406   5.224   7.274 -0.2624 -0.4120  0.4006
37674W        W46274  12.822   3.917   0.266  0.0245 -0.1325  0.4721
37675W        W46275   6.682   0.403  30.477  0.1433 -0.0371 -0.0747
37676W        W46276  20.859   5.424   2.550 -0.2299  0.0017  0.0442
37677W        W46277   6.862   4.734   2.386  0.3012 -0.1008 -0.0174
37678W        W46278  20.841   6.914   8.486  0.0280 -0.1005 -0.0370
37679W        W46279  17.864   1.303   1.928 -0.0241 -0.2921 -0.1438
37680W        W46280  17.504   4.776   8.860  0.2884  0.1626  0.0907
37681W        W46281  23.957   4.467  21.381  0.0939 -0.0536 -0.5103
37682W        W46282  19.337   7.436  23.644 -0.0528 -0.0383  0.1217
37683W        W46283   6.532   1.372  29.317  0.0036  0.3683 -0.2818
37684W        W46284   3.629   2.876  22.437  0.2544  0.0317 -0.2557
37685W        W46285  13.486   1.646  20.849  0.0431  0.2607 -0.3338
37686W        W46286  20.527   1.631  32.653 -0.0838  0.0413 -0.0772
37687W        W46287  12.417   4.746  27.910 -0.0204 -0.1211 -0.0664
37688W        W46288  20.622   4.858  23.463 -0.1512 -0.1254 -0.2623
37689W        W46289  21.884   4.572   2.309  0.1645  0.0042 -0.1410
37690W        W46290   3.069   1.883   0.739  0.1269  0.1343  0.1625
37691W        W46291   6.561   0.971   8.802 -0.1564  0.1462  0.2561
37692W        W46292  19.904   2.385   0.631  0.0229 -0.2259 -0.1660
37693W        W46293  19.023   6.480  31.780  0.0271  0.2050  0.0335
37694W        W46294  19.674   3.994  24.490  0.4017 -0.1322  0.1195
37695W        W46295  20.582   5.128  23.919  0.2108 -0.1927  0.1041
37696W        W46296  15.086   3.809  16.624 -0.1555  0.2431  0.0170
37697W        W46297  14.069   0.091   2.863 -0.2037  0.4542  0.3586
37698W        W46298  19.900   1.182   8.635 -0.0070 -0.0649 -0.1140
37699W        W46299  24.330   7.176   4.027 -0.0684  0.3471  0.2241
37700W        W46300  17.970   1.174  21.317 -0.1759  0.3439 -0.0355
37701W        W46301  18.099   6.775  28.897 -0.1095 -0.1036  0.1037
37702W        W46302  19.310   3.603  32.807  0.0545  0.0681  0.1183
37703W        W46303   4.403   4.813  28.979  0.2031 -0.0427 -0.0116
37704W        W46304   5.990   3.836   5.275 -0.0065  0.0677  0.0161
37705W        W46305  10.739   1.234  21.982  0.0570  0.2671 -0.0942
37706W        W46306  12.068   5.299  29.305 -0.0074  0.1223 -0.0300
37707W        W46307   1.776   7.207  16.581 -0.0128 -0.0426  0.4271
37708W        W46308  12.900   3.918   8.601 -0.3931  0.1747 -0.0408
37709W        W46309  15.926   4.380  20.745 -0.2175  0.3842 -0.3494
37710W        W46310  22.837   2.601  23.612 -0.2592  0.2382 -0.0554
37711W        W46311  17.790   6.315  32.542 -0.1727 -0.0670 -0.1114
37712W        W46312   3.745   4.036  12.898 -0.2234 -0.0042  0.1273
37713W        W46313   5.637   4.184  22.959 -0.0138 -0.0280  0.3750
37714W        W46314   2.170   4.151   2.884  0.1965 -0.2422  0.0983
37715W        W46315  21.113   5.252   8.706 -0.5012  0.0679  0.0307
37716W        W46316  17.763   4.016   4.792 -0.2058  0.0547 -0.1960
37717W        W46317   3.637   4.623  32.485  0.0991  0.3566  0.2851
37718W        W46318  12.841   5.527  27.376  0.1581 -0.0719  0.1639
37719W        W46319   0.799   1.008  13.519  0.3263 -0.3763  0.3691
37720W        W46320   7.102   2.648  26.705  0.3287  0.2099  0.2133
37721W        W46321  18.221   3.151  22.451 -0.2477 -0.4682  0.0467
37722W        W46322  14.902   7.112  32.539  0.0202  0.3657  0.2775
37723W        W46323   1.651   2.998  24.650 -0.1348  0.1640 -0.1333
37724W        W46324  10.382   3.124  30.092 -0.2640  0.0921 -0.1093
37725W        W46325  10.938   5.066  26.727 -0.4913 -0.2886  0.3549
37726W        W46326   3.436   6.936   5.318  0.1388 -0.2289  0.5921
37727W        W46327  11.785   4.520  10.780  0.0869 -0.0171 -0.0800
37728W        W46328   1.448   6.464   7.953 -0.1562 -0.3141 -0.0483
37729W        W46329   5.397   1.005  25.873  0.0187 -0.0408 -0.0396
37730W        W46330  16.003   0.960  19.057  0.2137  0.0866  0.0164
37731W        W46331   9.632   5.741  21.764  0.2275  0.1942  0.0531
37732W        W46332  21.002   3.064  20.064  0.2502 -0.1510 -0.2311
37733W        W46333  10.187   3.119  29.275 -0.4462 -0.1631  0.0256
37734W        W46334  13.999   2.328  17.528  0.1059 -0.0116  0.0816
37735W        W46335   6.721   0.759   6.609  0.1602  0.0817 -0.1195
37736W        W46336   4.544   7.107  25.918 -0.0766 -0.0184  0.1523
37737W        W46337  16.202   5.167   1.280 -0.0752 -0.2415  0.0422
37738W        W46338  15.495   4.466   4.100 -0.2002 -0.0996  0.1859
37739W        W46339  22.687   0.481   2.562  0.0854  0.0962 -0.1252
37740W        W46340   0.792   7.456  12.350  0.1297 -0.0323 -0.1030
37741W        W46341   8.063   2.779  15.587  0.0720  0.1443  0.2542
37742W        W46342  11.241   3.971   5.331  0.0659 -0.2447  0.0045
37743W        W46343   6.579   6.212   2.561  0.2657  0.0099  0.0299
37744W        W46344   2.326   4.025  11.213  0.0564 -0.2051 -0.3011
37745W        W46345   1.412   4.821  32.755 -0.0795 -0.1291 -0.2673
37746W        W46346  10.845   0.064  31.030  0.0867  0.1178 -0.2208
37747W        W46347  12.542   3.944  30.668  0.2834  0.3765 -0.0177
37748W        W46348  19.970   4.664  17.907  0.2427  0.0473 -0.0520
37749W        W46349   1.160   3.229   9.395  0.2473  0.0096 -0.0137
37750W        W46350  22.535   3.516   2.340  0.0695 -0.0082 -0.0983
37751W        W46351   9.674   3.509   9.764 -0.0793  0.0684 -0.0741
37752W        W46352  23.729   1.595   2.822  0.0217  0.0343 -0.0530
37753W        W46353   6.408   0.992  28.958 -0.0066  0.2821  0.2112
37754W        W46354   8.132   2.949  12.546 -0.0922  0.1945 -0.0998
37755W        W46355  24.438   4.540  30.318  0.0592 -0.0948 -0.3047
37756W        W46356  15.010   6.500   9.816 -0.1103 -0.1701  0.1295
37757W        W46357  23.033   7.572   7.237  0.1080 -0.0646 -0.2429
37758W        W46358  12.916   2.653  18.677 -0.0555  0.0394 -0.0512
37759W        W46359   0.518   4.895  31.854  0.0466 -0.0152  0.0391
37760W        W46360  10.859   4.467  13.338  0.0909 -0.1471 -0.3060
37761W        W46361   2.005   6.303   6.727 -0.0350 -0.1632  0.1876
37762W        W46362  23.974   2.405   8.585 -0.2508 -0.0072  0.0112
37763W        W46363   7.832   5.043  12.312 -0.1734  0.0138  0.1387
37764W        W46364   6.360   5.677   2.329  0.0013 -0.2932  0.0152
37765W        W46365  17.891   7.172  27.528 -0.1766 -0.1425  0.0150
37766W        W46366   7.030   3.602   4.802 -0.1228  0.1088  0.2120
37767W        W46367   6.123   5.466   0.141 -0.4274 -0.0390  0.2241
37768W        W46368   8.932   0.501  22.749 -0.1241  0.0104 -0.0006
37769W        W46369   6.847   4.631   5.266  0.0459 -0.1031 -0.1702
37770W        W46370  10.818   0.480  19.888  0.1988 -0.1926  0.0978
37771W        W46371  23.336   0.146  26.034 -0.1910 -0.0446 -0.1715
37772W        W46372   6.583   4.850  29.907 -0.0247  0.1404 -0.1170
37773W        W46373  22.253   1.281  31.102 -0.0787 -0.4507  0.0374
37774W        W46374  19.935   7.684   8.822  0.0611 -0.2352 -0.5029
37775W        W46375  20.781   7.679  26.176 -0.0245  0.1904 -0.0618
37776W        W46376  15.392   3.424  28.360 -0.2282 -0.3165 -0.1042
37777W        W46377   1.387   3.476  25.483 -0.1876  0.1396 -0.0555
37778W        W46378   1.562   4.088  28.317 -0.1706 -0.3827  0.1885
37779W        W46379   8.298   3.153   5.129  0.1843  0.1001 -0.1371
37780W        W46380   8.451   7.224  13.864  0.0613  0.0898  0.0575
37781W        W46381   6.016   2.023  23.268  0.2914  0.0432  0.1399
37782W        W46382  13.311   6.765   2.719  0.1105 -0.0885 -0.0955
37783W        W46383   5.048   7.063  17.599  0.1205 -0.0369 -0.0645
37784W        W46384  13.679   4.674   1.328 -0.1749  0.1321  0.3191
37785W        W46385   5.760   2.494  11.576 -0.1711 -0.0149  0.3317
37786W        W46386  11.486   2.051  22.513  0.1984  0.1441  0.0013
37787W        W46387  20.305   0.936   6.209  0.0949 -0.0806  0.0105
37788W        W46388   4.575   4.101  24.107 -0.0076  0.2915  0.0066
37789W        W46389  14.947   5.907   2.860  0.1054  0.0576  0.1266
37790W        W46390   2.535   7.284  12.761 -0.2221 -0.2277  0.3348
37791W        W46391  16.971   2.599  28.243  0.0205  0.0544  0.1284
37792W        W46392   0.669   5.717   8.030  0.1994 -0.3281 -0.0403
37793W        W46393   2.221   3.084   5.750 -0.0857  0.0546  0.3577
37794W        W46394  21.893   6.981  29.774 -0.1113  0.1139  0.1989
37795W        W46395   9.684   0.812  23.138  0.2253  0.2290 -0.3364
37796W        W46396   4.945   4.260  10.858 -0.1009 -0.2029 -0.0164
37797W        W46397  12.120   4.043  17.510 -0.2622 -0.0547  0.0019
37798W        W46398  19.712   7.034  26.273  0.0570 -0.2468 -0.2020
37799W        W46399   0.360   3.612  25.943  0.0083 -0.5072  0.0655
37800W        W46400   2.249   1.691   2.789 -0.2025 -0.0677 -0.0278
37801W        W46401   1.369   4.716   7.156 -0.0744  0.3032 -0.0878
37802W        W46402  15.806   5.515   0.338 -0.3652 -0.0646 -0.0111
37803W        W46403   0.650   4.733   5.769 -0.0387  0.1366 -0.0688
37804W        W46404  14.326   6.685  27.063 -0.2079  0.1022  0.0350
37805W        W46405   8.885   5.272  27.204 -0.2909  0.1029  0.2016
37806W        W46406   9.452   1.624  12.494  0.0974  0.1872 -0.2262
37807W        W46407  23.106   3.570  25.267  0.1729 -0.2169  0.2223
37808W        W46408   1.795   6.050  25.536  0.0200 -0.4841 -0.0758
37809W        W46409   4.328   1.357  23.328 -0.1263  0.1015 -0.2697
37810W        W46410   3.568   4.736  29.175  0.3044 -0.0789  0.2406
37811W        W46411  21.718   1.257   8.751  0.0174 -0.1806 -0.3175
37812W        W46412   8.763   0.317  30.176  0.0574 -0.2084  0.2165
37813W        W46413  23.698   2.454  11.389 -0.0031  0.2098 -0.0258
37814W        W46414   2.162   0.795   7.150  0.0217 -0.0614  0.1328
37815W        W46415  10.449   6.913  10.282  0.0665  0.2021 -0.0374
37816W        W46416  13.320   1.073  25.636 -0.4497 -0.2856 -0.1261
37817W        W46417  19.141   5.246  23.982  0.1836  0.0068 -0.0310
37818W        W46418  17.025   7.270  19.425  0.0886  0.0118  0.2843
37819W        W46419   6.442   2.292  27.841  0.3688 -0.2100 -0.2854
37820W        W46420   1.225   3.028  32.050  0.0605  0.0172 -0.0614
37821W        W46421  24.153   4.880  27.251  0.1881 -0.2967  0.1058
37822W        W46422  11.698   3.519  18.765  0.0257  0.2325  0.1737
37823W        W46423  20.586   6.915  30.154 -0.1525 -0.0430 -0.1491
37824W        W46424  15.232   1.393   8.822  0.4780 -0.1367  0.3321
37825W        W46425  18.020   2.038  21.219  0.0524  0.2426  0.0983
37826W        W46426  12.991   5.991   9.998 -0.0475 -0.1330  0.1051
37827W        W46427   1.995   2.630  15.995 -0.1665 -0.2755 -0.2877
37828W        W46428  12.010   2.762  26.083  0.0743  0.0966 -0.0651
37829W        W46429   9.722   1.663   7.305 -0.1824  0.0059 -0.1727
37830W        W46430  10.850   3.616  33.011  0.0239 -0.5620 -0.2808
37831W        W46431  15.555   2.053  17.265 -0.1071 -0.1034  0.0290
37832W        W46432   1.483   6.099   5.149  0.0278  0.1459 -0.0046
37833W        W46433  21.341   5.871   9.211 -0.1442  0.1065  0.2220
37834W        W46434   7.659   4.533  13.806 -0.1856  0.4564  0.2401
37835W        W46435  23.753   1.836  20.747  0.1346  0.0082  0.1036
37836W        W46436  15.305   4.034  14.681 -0.3331  0.0777  0.0072
37837W        W46437  20.254   4.585  26.287 -0.0121 -0.0616 -0.4248
37838W        W46438  18.365   3.637  18.355 -0.2505  0.1622  0.2751
37839W        W46439   7.084   6.252  23.929 -0.0139 -0.0264 -0.0150
37840W        W46440   3.183   7.121   6.903 -0.0849 -0.1377 -0.2379
37841W        W46441  17.222   0.624  27.120  0.2281 -0.4561 -0.0891
37842W        W46442   1.462   7.544   2.713 -0.1784 -0.1664  0.3164
37843W        W46443  17.253   0.906  15.288  0.1369  0.0078  0.1425
37844W        W46444   1.451   6.418  26.577  0.0191  0.0296  0.1005
37845W        W46445   7.299   0.832   5.805  0.1007  0.1311  0.1087
37846W        W46446  12.065   2.014   6.399 -0.2937  0.0550  0.0450
37847W        W46447  11.210   0.684  25.811  0.2096  0.1707  0.3105
37848W        W46448  24.074   3.179  25.227 -0.1746  0.0064 -0.0577
37849W        W46449  10.510   6.143  22.853  0.1802 -0.0913  0.3119
37850W        W46450   6.817   1.067  24.278  0.0605  0.1529  0.0076
37851W        W46451  17.594   2.641  15.012  0.0567 -0.0438 -0.3466
37852W        W46452  14.122   4.145  27.710  0.0105 -0.0248 -0.0732
37853W        W46453   7.587   2.042  15.776 -0.0194 -0.0448  0.0039
37854W        W46454   0.253   5.920  29.479  0.0808 -0.0866  0.1534
37855W        W46455   2.349   1.561  24.520  0.0719  0.2080 -0.2500
37856W        W46456  23.096   4.572  24.954 -0.0354  0.1607 -0.0781
37857W        W46457   5.098   2.232  17.534 -0.0047  0.1887  0.0047
37858W        W46458  10.354   0.780  24.761  0.1103 -0.1088 -0.0098
37859W        W46459   8.664   4.251   0.139 -0.0621 -0.1465  0.3347
37860W        W46460   5.820   6.694  26.897 -0.1741 -0.1245  0.2483
37861W        W46461  10.079   3.839  27.072  0.3998 -0.0793 -0.0077
37862W        W46462  20.202   0.106  24.847 -0.0376  0.0613  0.1828
37863W        W46463  21.868   2.262  24.766  0.0074 -0.1004  0.2432
37864W        W46464  21.034   3.569  11.995 -0.1758  0.1508  0.2271
37865W        W46465  18.186   4.196   3.279 -0.1311 -0.0533 -0.0808
37866W        W46466   6.498   7.167   6.426  0.4160 -0.0184 -0.1922
37867W        W46467   2.272   5.057   1.149  0.1775 -0.2288 -0.0272
37868W        W46468  11.011   5.893  26.076  0.1062  0.0491  0.1274
37869W        W46469  21.850   0.852  22.068 -0.2374  0.3435 -0.0123
37870W        W46470   7.749   6.171  23.080  0.0157 -0.1377  0.0660
37871W        W46471  21.392   0.677   4.882  0.0780  0.1947 -0.1415
37872W        W46472  11.226   3.901  31.107 -0.1765  0.1651  0.0439
37873W        W46473   8.927   1.672  21.306  0.0609 -0.3841 -0.0741
37874W        W46474  21.601   7.158  31.466  0.0544 -0.0308  0.2507
37875W        W46475   9.863   1.922   6.710 -0.0193  0.0932 -0.0785
37876W        W46476  16.607   2.923   7.712 -0.0425 -0.1680  0.2582
37877W        W46477   4.342   0.914   7.386 -0.0499  0.0119 -0.0797
37878W        W46478  22.599   7.441  13.957  0.2137  0.1678 -0.0932
37879W        W46479   6.819   5.719  28.575  0.2186  0.0211  0.4430
37880W        W46480  24.298   0.398   8.449 -0.2472  0.2268  0.3814
37881W        W46481  14.068   7.758  25.147  0.0114 -0.0419  0.0966
37882W        W46482  17.332   2.278  28.434  0.2137  0.0284  0.1308
37883W        W46483  15.213   2.330  26.062 -0.0720  0.1826 -0.1823
37884W        W46484  13.427   6.293   5.819 -0.1023 -0.0612  0.2528
37885W        W46485  20.430   7.037  32.329 -0.0107  0.1271  0.0579
37886W        W46486   1.956   4.758   6.275  0.1636 -0.3291 -0.1266
37887W        W46487   3.451   2.667  17.542 -0.1577 -0.2627  0.4098
37888W        W46488   8.603   6.454  26.735 -0.0172  0.3372 -0.3574
37889W        W46489   5.995   6.618  31.835  0.1682  0.3456 -0.0190
37890W        W46490  22.358   7.419  27.626 -0.1256  0.0727 -0.0864
37891W        W46491   8.037   1.015  23.450  0.0038 -0.1070  0.1452
37892W        W46492  10.368   7.648   3.910  0.2944  0.0174  0.0624
37893W        W46493  16.954   2.407  27.555  0.0985 -0.2812 -0.2026
37894W        W46494  17.432   0.754  25.167 -0.0100 -0.0140 -0.0221
37895W        W46495   1.741   3.830   9.672 -0.0745 -0.3683  0.3843
37896W        W46496   6.420   4.133  10.748  0.1442  0.0416  0.0128
37897W        W46497  11.075   0.218   6.917  0.1376 -0.0810 -0.3183
37898W        W46498  20.585   4.355  31.855 -0.0627 -0.0429  0.0545
37899W        W46499  21.488   5.993  10.228  0.3193 -0.4522  0.1989
37900W        W46500   4.993   7.087  15.981  0.0780  0.0064 -0.0705
37901W        W46501  21.912   7.522  32.951 -0.1589 -0.0116  0.1030
37902W        W46502  16.915   2.817  16.825 -0.0902 -0.0988 -0.0086
37903W        W46503   0.761   0.743  16.547  0.1636 -0.0413 -0.1045
37904W        W46504  24.650   6.539  11.868 -0.0758 -0.0094 -0.1146
37905W        W46505   1.617   6.205  12.950 -0.0448  0.1253 -0.0569
37906W        W46506   7.630   6.038  27.061  0.1139  0.0594 -0.1994
37907W        W46507  15.029   5.302  31.348 -0.1176 -0.4488  0.0788
37908W        W46508  20.254   1.111  21.376  0.1310 -0.1808  0.5319
37909W        W46509   9.846   0.247   1.961  0.1971  0.2008  0.0452
37910W        W46510  24.584   1.894   3.211 -0.3395 -0.4649  0.1696
37911W        W46511   3.483   2.664  27.446  0.3128  0.1075 -0.0213
37912W        W46512   1.244   5.947   2.471  0.0453  0.1379  0.3473
37913W        W46513  21.615   4.898  26.416 -0.3579 -0.0015 -0.0952
37914W        W46514   4.356   0.713  28.126  0.1082 -0.2006  0.4557
37915W        W46515   0.455   2.940  28.383  0.2777  0.0913  0.1981
37916W        W46516   1.425   5.852  10.939  0.1783 -0.1026  0.0434
37917W        W46517   6.209   0.780  26.994  0.1284 -0.0629 -0.1297
37918W        W46518  22.664   5.423  25.025  0.0379  0.1113  0.0094
37919W        W46519  10.503   0.110   5.757 -0.2339  0.3028 -0.1209
37920W        W46520   7.214   5.332  29.156  0.1825  0.2323  0.0434
37921W        W46521  17.513   6.015  27.440  0.0663 -0.2517  0.0761
37922W        W46522  15.423   4.176  23.630 -0.1722 -0.1623  0.1872
37923W        W46523   4.147   1.004  22.990  0.0264  0.1059 -0.0350
37924W        W46524  11.075   3.766  32.008  0.1010  0.0567 -0.1044
37925W        W46525  11.058   0.870  25.324  0.1423  0.2547  0.0680
37926W        W46526   4.045   2.228   7.203 -0.0706  0.0553 -0.0199
37927W        W46527  20.922   1.663   3.822 -0.1574  0.0713  0.2046
37928W        W46528  15.073   4.324  16.685  0.5071  0.0213  0.0445
37929W        W46529  22.832   1.164   3.679 -0.1468  0.0713  0.2112
37930W        W46530  17.820   6.675   0.378 -0.0590 -0.0039 -0.1966
37931W        W46531   5.625   1.559  17.891 -0.2738  0.1233  0.0693
37932W        W46532   8.873   6.677  27.198  0.2134 -0.1519 -0.0578
37933W        W46533   2.999   5.568   4.551  0.1735 -0.2627  0.1175
37934W        W46534  19.025   1.631   3.043  0.0193 -0.3158  0.1278
37935W        W46535   6.606   3.980   8.602  0.0431 -0.1758 -0.3811
37936W        W46536   5.013   4.995  28.292 -0.2054 -0.0698 -0.0833
37937W        W46537   3.213   7.669  10.869 -0.0110 -0.1110  0.1291
37938W        W46538  15.595   1.271  31.627  0.1749 -0.1854  0.2199
37939W        W46539  17.640   3.788   9.026  0.0674 -0.1338 -0.0637
37940W        W46540   4.690   7.511   8.230 -0.0326 -0.2650 -0.0723
37941W        W46541   5.505   4.344  10.212  0.0052 -0.1380 -0.0355
37942W        W46542  22.625   7.412  23.794  0.1113  0.1257  0.2400
37943W        W46543  18.523   3.627  28.589 -0.1771  0.0070  0.0559
37944W        W46544   4.705   7.564   1.343  0.2181  0.3660  0.0347
37945W        W46545   2.544   0.004  16.882  0.2090 -0.1483 -0.0261
37946W        W46546   1.091   0.208  26.594  0.0193  0.0233  0.0470
37947W        W46547  14.697   5.783   2.413  0.3863 -0.2339 -0.4234
37948W        W46548  22.528   7.365  26.763  0.3230  0.0391 -0.0271
37949W        W46549   7.997   0.873  11.781 -0.1080  0.0754  0.1185
37950W        W46550   6.262   5.651   3.899  0.1309  0.0211  0.2726
37951W        W46551  20.332   4.846   7.737 -0.0895  0.0332 -0.0595
37952W        W46552  10.300   5.161  32.335 -0.2554 -0.0293  0.1222
37953W        W46553   2.465   3.362  16.248 -0.0565  0.1107  0.1068
37954W        W46554   3.934   7.219   3.532  0.0906  0.0603  0.1381
37955W        W46555   1.185   1.073   0.888 -0.0284  0.3275  0.2283
37956W        W46556   4.818   3.784  16.639  0.2440  0.1407  0.0087
37957W        W46557  19.443   2.446  19.933  0.2476  0.2188  0.3441
37958W        W46558   0.587   5.547  29.266 -0.0603  0.0294 -0.2708
37959W        W46559   6.774   1.234  13.544  0.0191 -0.2770  0.2356
37960W        W46560  24.949   4.882   3.132 -0.0809  0.2820 -0.1486
37961W        W46561  12.965   2.329  17.535 -0.0013 -0.2479  0.0089
37962W        W46562   7.162   0.881  29.619 -0.2344  0.1908  0.0729
37963W        W46563   4.826   6.498  25.653  0.0781  0.1276 -0.0533
37964W        W46564  18.041   0.255   5.982  0.0576 -0.2649  0.1045
37965W        W46565  12.295   2.586  21.124  0.2464 -0.2767  0.0694
37966W        W46566  14.066   6.503   0.658 -0.1463 -0.1589 -0.0082
37967W        W46567  12.873   5.475  20.094  0.1017 -0.4171 -0.2373
37968W        W46568  23.249   7.364   5.271 -0.0249  0.2905 -0.0458
37969W        W46569  15.639   1.029  24.686 -0.0548 -0.0923 -0.0482
37970W        W46570  12.242   3.439  24.303  0.0117  0.0441 -0.3089
37971W        W46571   8.453   5.216   7.746  0.0245 -0.1534 -0.1640
37972W        W46572  23.123   3.365   0.262  0.3326  0.0999  0.2543
37973W        W46573  14.950   3.212  32.727  0.1562  0.0934  0.0761
37974W        W46574   3.218   5.597  27.885  0.0203  0.0396 -0.0902
37975W        W46575  15.668   3.144   7.467 -0.0232 -0.4680  0.2080
37976W        W46576   9.018   1.935  10.746  0.0503 -0.2048 -0.0982
37977W        W46577  12.929   0.081  27.802 -0.2521  0.0742  0.1884
37978W        W46578  11.131   0.617   1.632 -0.0877  0.0086  0.1252
37979W        W46579   8.709   1.117   6.391  0.1626  0.1039 -0.1185
37980W        W46580  24.648   1.301  10.493 -0.0064 -0.1415 -0.1597
37981W        W46581   0.385   3.651  15.819  0.1731  0.3587  0.0107
37982W        W46582   3.648   3.021   1.891 -0.0984 -0.2037 -0.0825
37983W        W46583   6.875   3.580  12.003 -0.1831 -0.0943  0.0212
37984W        W46584  23.427   7.193  31.122  0.1354 -0.1090  0.2041
37985W        W46585  15.078   0.168   6.897 -0.0162 -0.4025 -0.1266
37986W        W46586  13.556   7.027  18.376  0.0817 -0.1953  0.2652
37987W        W46587  23.860   1.259   0.403 -0.2256  0.1687  0.0279
37988W        W46588  16.095   1.880  23.867 -0.0997  0.1527 -0.1618
37989W        W46589   8.329   6.334   4.187 -0.1131 -0.0973  0.1440
37990W        W46590   2.877   1.508   4.964  0.0057 -0.1081 -0.0970
37991W        W46591  20.627   5.445  21.550 -0.1373 -0.0421  0.2868
37992W        W46592   8.591   2.552   8.269  0.0959  0.0203  0.0057
37993W        W46593   5.549   5.772  30.627 -0.0283 -0.3239 -0.2967
37994W        W46594   9.743   1.327  22.128  0.1203 -0.2194 -0.1213
37995W        W46595   7.561   6.325  15.242 -0.5771  0.1121 -0.2554
37996W        W46596   0.706   7.248  10.739 -0.2799 -0.0694 -0.0519
37997W        W46597   3.042   4.048  24.312 -0.2483  0.0984 -0.0583
37998W        W46598  13.429   7.135  10.946 -0.0862  0.0367  0.0739
37999W        W46599  22.611   1.918   1.233  0.2221 -0.0949 -0.0224
38000W        W46600   1.101   3.232  30.105  0.0785 -0.0885 -0.5314
38001W        W46601  20.100   3.417  32.590  0.1634  0.1094  0.2243
38002W        W46602   6.053   6.252  15.239 -0.0349  0.3335 -0.1443
38003W        W46603  22.506   6.314  33.025 -0.0398 -0.0148  0.1713
38004W        W46604  13.004   6.495   8.378 -0.1735 -0.2043 -0.1173
38005W        W46605   8.068   7.067  25.800  0.0167  0.1076 -0.1507
38006W        W46606  19.006   5.044  28.573 -0.0286 -0.0198  0.0805
38007W        W46607   0.215   0.167  27.068 -0.1334 -0.0346 -0.0293
38008W        W46608   4.478   0.019  18.432  0.0103 -0.1926 -0.0549
38009W        W46609  17.881   5.264  14.661  0.2088  0.1761  0.0584
38010W        W46610  18.755   4.524   2.528 -0.0879  0.3454 -0.1204
38011W        W46611   5.989   1.778  30.137  0.1409  0.3222  0.1093
38012W        W46612   6.859   7.469   7.785  0.0549 -0.1088 -0.0987
38013W        W46613  10.800   3.381  20.466  0.2960  0.0722 -0.0764
38014W        W46614  15.671   2.481  22.363  0.0133  0.0055  0.0550
38015W        W46615  19.081   1.690  25.744 -0.5079 -0.0840  0.1912
38016W        W46616  15.189   4.276   5.768 -0.0616  0.0521 -0.1789
38017W        W46617  13.875   1.519   4.266 -0.0152  0.0018  0.0291
38018W        W46618   8.737   5.011  32.437 -0.1302  0.3961 -0.1106
38019W        W46619   6.823   0.200  25.675  0.0915  0.0479 -0.1912
38020W        W46620  15.608   4.497  18.847  0.2030 -0.1820 -0.2698
38021W        W46621  19.108   5.864  11.075 -0.0273  0.1005  0.0328
38022W        W46622  15.947   3.072  31.859 -0.0786 -0.0375 -0.0223
38023W        W46623  23.444   6.347  26.467 -0.2133  0.2051  0.0348
38024W        W46624  11.432   0.443   4.233  0.1958  0.1200  0.1704
38025W        W46625  23.026   7.048  24.467  0.0078 -0.0489  0.0559
38026W        W46626  21.398   7.032  18.493 -0.0343 -0.1898  0.1978
38027W        W46627  21.045   3.912  30.569 -0.0534 -0.0897 -0.0739
38028W        W46628  13.940   4.420  30.530 -0.0105  0.0925  0.0868
38029W        W46629  16.006   4.763   4.426 -0.0330 -0.2272  0.0973
38030W        W46630  24.514   4.396  13.658  0.3656 -0.0182 -0.0919
38031W        W46631   7.171   2.635  16.974  0.0633 -0.0228  0.0867
38032W        W46632  22.199   5.286   8.966  0.1579 -0.2584  0.0262
38033W        W46633  19.029   3.277   8.628  0.0094  0.1235  0.1293
38034W        W46634  10.575   3.003  22.290 -0.2627 -0.0806  0.0907
38035W        W46635  22.425   3.794  22.637 -0.2872 -0.3102 -0.1662
38036W        W46636  21.089   7.039   0.367  0.0310 -0.4017  0.0533
38037W        W46637  19.780   1.095  22.675 -0.0162 -0.2196  0.0219
38038W        W46638  21.451   0.950   7.268 -0.0459  0.2439 -0.0019
38039W        W46639   3.260   6.960  11.212  0.4127  0.0005  0.0169
38040W        W46640  17.633   6.183  24.191  0.1979  0.3284 -0.0120
38041W        W46641   3.969   0.555  24.273 -0.0253  0.0239 -0.0060
38042W        W46642  22.440   0.907   2.838 -0.4729  0.1833  0.3749
38043W        W46643   3.085   5.535   0.598  0.1224 -0.0340 -0.2390
38044W        W46644  17.026   3.385  19.489 -0.1068 -0.3404 -0.2257
38045W        W46645  20.080   2.511  30.615 -0.0734  0.0267  0.2296
38046W        W46646  17.809   0.065  16.006  0.1434 -0.1413  0.2500
38047W        W46647  21.641   5.924  25.592  0.1465 -0.2858 -0.0671
38048W        W46648  10.027   0.576   3.475  0.0580  0.1138  0.1389
38049W        W46649   7.035   0.939  26.125 -0.0234  0.2596  0.0547
38050W        W46650  15.747   4.030   9.617 -0.0845 -0.1461  0.0724
38051W        W46651  10.737   1.940  25.134 -0.1469 -0.0907  0.2357
38052W        W46652  13.621   1.618  23.905 -0.1613  0.1058 -0.2417
38053W        W46653   0.808   0.738   2.983  0.1456  0.1145  0.0015
38054W        W46654   0.167   4.721   3.926 -0.0348 -0.2771 -0.2291
38055W        W46655   3.966   5.097  31.656  0.3454  0.0956 -0.0579
38056W        W46656   2.349   1.110  17.735 -0.2592  0.1016 -0.0301
38057W        W46657  13.466   6.498   8.300 -0.2208  0.0107  0.3357
38058W        W46658   0.525   4.967  14.779 -0.0234  0.2255  0.1306
38059W        W46659  10.118   3.019   1.944 -0.2939  0.0152 -0.1426
38060W        W46660  14.339   1.116  23.755 -0.1400  0.1954 -0.1231
38061W        W46661  15.106   3.221  32.255 -0.1392 -0.1526  0.1947
38062W        W46662  15.991   3.419   7.707  0.1493 -0.0307 -0.1822
38063W        W46663  22.388   1.847   0.287 -0.0446 -0.0072  0.1401
38064W        W46664   3.832   6.095  13.889 -0.2681  0.1796 -0.1276
38065W        W46665   8.317   6.698  27.097 -0.0566  0.1066  0.2312
38066W        W46666   2.621   0.231   5.585 -0.0525  0.1659 -0.1228
38067W        W46667   4.090   1.412  27.247 -0.1396  0.0886  0.2820
38068W        W46668  20.728   2.139   2.761  0.0896 -0.3765  0.3146
38069W        W46669   9.558   4.949  27.753  0.0004  0.1913 -0.0509
38070W        W46670  18.456   1.812  10.625 -0.0199  0.1422 -0.1623
38071W        W46671  18.683   7.566   7.173  0.3413 -0.0761 -0.2107
38072W        W46672  17.232   4.903  10.897 -0.2905 -0.3201  0.2209
38073W        W46673   6.268   3.020  27.320 -0.1516 -0.0803 -0.0510
38074W        W46674   2.335   1.682   4.759 -0.0608  0.1709 -0.1285
38075W        W46675   1.715   5.647  27.178 -0.2473  0.0763  0.0384
38076W        W46676   8.806   5.172  10.973 -0.0313 -0.1979  0.0523
38077W        W46677  24.790   6.143   2.106 -0.2332  0.1870 -0.2568
38078W        W46678  14.446   5.335   2.228  0.0329  0.0399 -0.1007
38079W        W46679   6.792   0.580   7.163 -0.2602  0.0343 -0.1507
38080W        W46680  10.626   0.736  26.808  0.2499 -0.0146 -0.0635
38081W        W46681  19.887   6.399   5.704 -0.0652 -0.3816  0.3114
38082W        W46682   2.167   7.114   1.728 -0.1732 -0.2137  0.0315
38083W        W46683   2.156   6.714   8.342  0.0128  0.2598  0.1752
38084W        W46684   6.833   6.003   1.056 -0.0241 -0.2681  0.3360
38085W        W46685  22.444   4.968   3.282 -0.1291 -0.0092 -0.2066
38086W        W46686  13.392   7.501   7.449 -0.0649  0.0599  0.1274
38087W        W46687  12.589   1.324  28.729  0.0399  0.2416 -0.2158
38088W        W46688   6.382   3.102  29.568 -0.0771 -0.0998  0.1012
38089W        W46689  12.163   2.077  23.997 -0.0795 -0.2760 -0.3552
38090W        W46690  10.633   5.747  22.630 -0.1478  0.1305 -0.1646
38091W        W46691  21.585   7.195   0.670 -0.2620 -0.2202 -0.0272
38092W        W46692   4.302   7.656   7.875  0.0232 -0.1609 -0.1054
38093W        W46693  18.289   5.561   4.408 -0.0627 -0.0623  0.0877
38094W        W46694  22.444   5.438   3.552  0.0433 -0.1070 -0.3108
38095W        W46695   1.770   2.595  29.010  0.2357  0.0891 -0.0737
38096W        W46696  10.831   5.308  27.803 -0.0482 -0.1579 -0.2017
38097W        W46697  13.676   0.099   6.948  0.0120  0.1733  0.2030
38098W        W46698   9.903   2.932  25.699  0.1842  0.1352  0.0604
38099W        W46699  16.770   0.582  21.305  0.1651 -0.1097  0.1060
38100W        W46700   3.686   4.959  23.994 -0.2891  0.1359  0.1488
38101W        W46701  21.255   4.724   3.888 -0.0689  0.2356 -0.0983
38102W        W46702   1.925   0.766   6.060  0.3750  0.1727 -0.0727
38103W        W46703  12.781   7.196  19.694 -0.0161  0.3124 -0.2291
38104W        W46704   7.951   4.246   5.661 -0.2263 -0.0329 -0.1546
38105W        W46705  20.175   5.792  19.759  0.1933  0.1348 -0.1100
38106W        W46706  22.739   7.451   4.466  0.0161  0.0914  0.1547
38107W        W46707   6.886   0.855  22.992  0.1257 -0.0332  0.2402
38108W        W46708  24.847   4.653  30.704 -0.1072  0.1424 -0.0591
38109W        W46709  21.832   3.233  30.287  0.0378  0.0575 -0.3913
38110W        W46710  14.802   5.870   4.225  0.3011  0.1994  0.2656
38111W        W46711  24.168   7.530  31.684 -0.1287  0.0994 -0.1625
38112W        W46712   9.262   5.143  31.061 -0.0285  0.1166 -0.3031
38113W        W46713  18.440   4.439  10.483  0.1019 -0.3209 -0.0304
38114W        W46714   6.406   5.752   3.336  0.4116  0.2273 -0.2424
38115W        W46715  22.178   0.853  26.599 -0.3567  0.0132  0.4120
38116W        W46716   3.847   2.646  31.899 -0.1195 -0.0345 -0.0471
38117W        W46717   2.241   6.954   3.713 -0.0957  0.0389  0.2085
38118W        W46718  11.565   0.376   6.940 -0.0092 -0.1523  0.0798
38119W        W46719  15.587   5.872  31.676  0.1059 -0.0978  0.2840
38120W        W46720  19.772   4.468  20.368 -0.1550 -0.2749  0.2812
38121W        W46721  12.496   7.391  22.445  0.0230 -0.2362 -0.2241
38122W        W46722   1.676   6.059  28.568 -0.0745  0.3135 -0.0403
38123W        W46723  18.733   6.482  16.724  0.1388  0.2407  0.3848
38124W        W46724  17.120   7.745  31.915 -0.0774 -0.0014  0.2439
38125W        W46725  15.268   2.802  32.675 -0.0885  0.0807  0.3148
38126W        W46726   8.800   2.888   3.928  0.1118 -0.0039 -0.0649
38127W        W46727   6.928   3.179  31.906  0.0157 -0.3092  0.1092
38128W        W46728   9.558   1.745  24.234 -0.1119  0.0670 -0.2039
38129W        W46729  23.434   2.773  20.696 -0.1360  0.1909 -0.2380
38130W        W46730   5.061   6.270  26.192  0.1379  0.3410  0.5006
38131W        W46731  12.781   5.536  17.253  0.1575  0.1362 -0.0257
38132W        W46732  14.165   5.932   8.461  0.0101  0.3366  0.0816
38133W        W46733  18.222   1.077   3.344  0.0065  0.2786 -0.1651
38134W        W46734  20.457   0.349  30.877  0.0698  0.0840 -0.2956
38135W        W46735   1.284   4.162  14.160 -0.0718 -0.0820  0.3843
38136W        W46736  14.649   5.072  16.446 -0.0321 -0.1369 -0.0174
38137W        W46737  19.786   6.893   9.397  0.1336  0.0167 -0.0092
38138W        W46738   8.578   2.166  25.760  0.1742 -0.2790  0.0802
38139W        W46739   5.212   2.469  30.810  0.3076 -0.0298 -0.1292
38140W        W46740  16.743   6.447  19.319  0.1390  0.0999  0.1288
38141W        W46741   3.547   7.111  27.086  0.1798 -0.0160  0.0010
38142W        W46742  16.985   6.498  16.854 -0.0402 -0.2398  0.0578
38143W        W46743   7.702   5.984   7.698 -0.0069 -0.0420  0.2776
38144W        W46744   1.237   3.443   7.596  0.1414  0.0699 -0.3523
38145W        W46745   3.442   6.365  32.408  0.0326  0.2343  0.2388
38146W        W46746  17.170   6.432  21.511 -0.0150  0.1587 -0.0958
38147W        W46747  19.828   1.188   8.130  0.0975  0.0908  0.0280
38148W        W46748   8.501   5.556  24.693  0.5068 -0.2508  0.4429
38149W        W46749  21.970   2.827  20.540 -0.1430  0.1009  0.1522
38150W        W46750  19.582   1.794  17.215 -0.1857 -0.2721  0.1288
38151W        W46751  11.768   3.955  27.309  0.1006 -0.1378  0.2512
38152W        W46752   9.476   6.282  23.019  0.0833 -0.3247 -0.0341
38153W        W46753  16.617   2.115  21.332 -0.0518 -0.1083  0.0608
38154W        W46754  24.669   1.172   9.973  0.2103 -0.0857 -0.0030
38155W        W46755   7.749   3.472   6.657 -0.0215  0.1593  0.0695
38156W        W46756   5.434   1.340   4.525 -0.1117  0.1174  0.0412
38157W        W46757   8.315   0.478   9.224  0.0645 -0.3197 -0.2177
38158W        W46758  20.378   0.727  28.280  0.4595  0.1905 -0.5603
38159W        W46759  24.703   5.032  23.855  0.0020  0.2819 -0.3249
38160W        W46760  11.152   4.532   2.750  0.3736 -0.0544 -0.0229
38161W        W46761   5.193   4.321  30.266  0.0994 -0.2179 -0.2106
38162W        W46762  17.162   7.247  26.509 -0.3548  0.1038  0.1130
38163W        W46763  24.399   6.020  32.971  0.1132 -0.2360  0.0150
38164W        W46764   6.357   0.386   2.042 -0.4811 -0.2467 -0.0896
38165W        W46765  10.755   1.071  20.863  0.3404 -0.2394 -0.1367
38166W        W46766  11.456   4.265  31.339 -0.1251  0.0313 -0.3074
38167W        W46767   9.564   1.028   5.343 -0.0619 -0.0058 -0.1078
38168W        W46768   5.596   7.030  28.951 -0.1426  0.1312  0.2695
38169W        W46769  17.220   1.455   3.563 -0.0356  0.0639 -0.2154
38170W        W46770  14.024   6.566   6.520  0.0805  0.0825  0.1606
38171W        W46771   2.253   7.714   1.776 -0.0351  0.0665 -0.2670
38172W        W46772  20.632   5.961  21.802 -0.1567  0.0330  0.0127
38173W        W46773  14.918   3.044  31.824 -0.1341 -0.0622 -0.0545
38174W        W46774   4.707   6.425  26.983  0.2979  0.1530 -0.0705
38175W        W46775  18.011   3.408   4.471  0.2610  0.0772  0.0412
38176W        W46776   0.992   6.830   9.842  0.0858  0.2565 -0.0420
38177W        W46777  15.648   4.857  31.644  0.1752  0.0811  0.1054
38178W        W46778   6.798   0.659   0.449 -0.2178 -0.1146 -0.0058
38179W        W46779  12.559   1.316  22.985 -0.0565  0.0036 -0.0938
38180W        W46780  19.349   5.219  16.400  0.1828  0.1051  0.1641
38181W        W46781  15.483   5.328  20.280 -0.2053  0.2636 -0.3210
38182W        W46782  15.353   3.914  28.591 -0.4825  0.1111 -0.2257
38183W        W46783  19.030   6.976  23.724  0.0237 -0.2019  0.1130
38184W        W46784   7.721   1.837  27.214 -0.1260 -0.0083 -0.0614
38185W        W46785   0.351   4.604  26.039 -0.2495  0.0927  0.2318
38186W        W46786  18.683   2.506  24.701  0.0308  0.4708  0.1898
38187W        W46787   7.428   1.333  29.859 -0.0787 -0.0304 -0.3622
38188W        W46788  15.754   3.374  27.746  0.0692  0.0867 -0.1333
38189W        W46789   2.245   6.514   3.369  0.0327  0.1880  0.0482
38190W        W46790   1.927   0.308  11.632  0.0503  0.2427 -0.1267
38191W        W46791   1.314   2.954   3.807 -0.2307 -0.0069 -0.0198
38192W        W46792   5.837   7.435   1.688  0.1135 -0.0366  0.2285
38193W        W46793   6.936   7.073  11.953 -0.1781  0.1300  0.0299
38194W        W46794  23.929   7.465  21.906 -0.0339  0.0562 -0.3453
38195W        W46795  10.993   0.010   8.127 -0.4559 -0.2356  0.1503
38196W        W46796   5.162   0.511   9.635 -0.2157 -0.0755 -0.0619
38197W        W46797  22.470   3.389  19.180  0.0512  0.0556  0.2159
38198W        W46798  13.734   7.080  25.994 -0.1933 -0.2162 -0.1340
38199W        W46799  11.026   6.042   6.774  0.2360 -0.0983  0.0843
38200W        W46800   9.851   2.129   7.135 -0.2217 -0.0066 -0.1431
38201W        W46801   1.055   6.457  12.086 -0.2102 -0.2992  0.0280
38202W        W46802   0.533   7.250   8.239 -0.4695 -0.0698 -0.2242
38203W        W46803   4.067   5.685   4.346  0.0051  0.1068 -0.0091
38204W        W46804   1.181   0.780  22.591  0.1428  0.2093 -0.1076
38205W        W46805  10.819   0.844   4.052  0.0128 -0.0530  0.0317
38206W        W46806   5.429   3.256   4.079 -0.1194  0.1202 -0.1883
38207W        W46807  21.072   1.639  11.385 -0.0540 -0.0272 -0.2241
38208W        W46808  15.366   1.834  21.359 -0.0063 -0.1535 -0.0011
38209W        W46809  23.503   0.380  10.494 -0.1325  0.0419  0.2814
38210W        W46810   5.421   3.611  32.808  0.1179  0.1554 -0.1285
38211W        W46811  12.864   2.976  18.214 -0.0525 -0.0416 -0.0460
38212W        W46812   5.713   0.296  27.502  0.0245 -0.1779  0.0200
38213W        W46813   7.022   6.993  28.095  0.1558 -0.2145  0.2243
38214W        W46814   9.587   5.418   0.272 -0.1638 -0.0732  0.0422
38215W        W46815  11.804   1.021   4.031 -0.0793  0.0799 -0.0703
38216W        W46816  15.319   5.843  22.629  0.0495 -0.1454  0.1699
38217W        W46817  10.354   7.723  25.389  0.3709  0.1427  0.0809
38218W        W46818  18.624   0.093  24.070  0.4399  0.2377 -0.0586
38219W        W46819   0.669   0.335   6.531 -0.0849 -0.0653 -0.2090
38220W        W46820   4.243   7.465  24.152 -0.0084 -0.0268 -0.0977
38221W        W46821  21.826   0.679   4.641  0.0316 -0.2674  0.0044
38222W        W46822  22.055   7.180   2.896  0.0592 -0.4390  0.2534
38223W        W46823   0.769   2.793   1.223 -0.1735  0.1840 -0.3591
38224W        W46824  22.944   5.762  27.800 -0.2313  0.3614 -0.0603
38225W        W46825  22.625   7.050  30.133  0.0680  0.1985  0.0238
38226W        W46826  13.668   6.698  22.476  0.0331  0.3043  0.1189
38227W        W46827   0.373   5.482  15.523 -0.0886 -0.0822 -0.6442
38228W        W46828  14.708   4.025  22.261 -0.0502 -0.2655 -0.1615
38229W        W46829   4.509   1.400   0.803  0.1456 -0.1799 -0.1750
38230W        W46830   4.850   2.454  29.283 -0.2392 -0.0975 -0.0208
38231W        W46831  14.801   0.085  17.568  0.0094  0.0700 -0.0607
38232W        W46832  20.846   3.155   9.694 -0.0103 -0.0217 -0.4564
38233W        W46833  22.246   0.815  10.927  0.0964 -0.0885  0.0537
38234W        W46834  14.559   1.010  17.640  0.1199  0.2845 -0.0406
38235W        W46835  17.092   1.119  20.530 -0.1149  0.2711 -0.0820
38236W        W46836   4.414   4.143  23.519 -0.2286  0.1548  0.0846
38237W        W46837   7.708   2.900  25.947 -0.4740  0.0842 -0.0239
38238W        W46838   8.596   3.074   0.394  0.2025  0.2789  0.0685
38239W        W46839  23.642   5.537  20.565 -0.0815 -0.1184 -0.0778
38240W        W46840  15.435   7.619   6.481  0.2904 -0.2093 -0.1568
38241W        W46841  11.960   0.221  26.031  0.1703  0.0085  0.3226
38242W        W46842  15.515   4.908  19.410 -0.0901  0.4229 -0.0779
38243W        W46843   6.996   5.544  30.426 -0.0308  0.0814  0.1116
38244W        W46844   5.516   4.741   8.484  0.1861 -0.0203  0.0637
38245W        W46845   5.689   4.586  15.746  0.2800  0.1657  0.0932
38246W        W46846  19.937   1.993  29.811  0.0524  0.0221  0.3585
38247W        W46847  23.399   4.003  31.886  0.3526  0.1301  0.0377
38248W        W46848  20.780   1.048  10.638  0.0494 -0.0516  0.0692
38249W        W46849   0.574   2.211  21.684  0.0042  0.2308 -0.1185
38250W        W46850   7.225   0.332   3.368 -0.1526  0.1211 -0.2595
38251W        W46851   4.668   1.621  15.788  0.0715 -0.1540 -0.4899
38252W        W46852   3.897   3.763  25.477 -0.0950 -0.2221 -0.2611
38253W        W46853   5.523   6.263  10.148 -0.1696 -0.1874  0.2165
38254W        W46854  15.159   1.734  14.945 -0.3678  0.0935  0.0414
38255W        W46855  10.097   6.729   3.066 -0.2222  0.1601  0.3557
38256W        W46856  12.787   2.652  26.712 -0.1889  0.0458  0.1102
38257W        W46857  12.577   0.916   1.511  0.0504 -0.0638  0.1294
38258W        W46858  17.983   2.208  18.575  0.0563 -0.2174 -0.1712
38259W        W46859  19.383   5.223  32.167  0.1332 -0.1160 -0.2596
38260W        W46860  21.471   4.403  30.948 -0.2115  0.0280 -0.0711
38261W        W46861  23.896   4.831  28.183 -0.0913 -0.0994 -0.2187
38262W        W46862   0.181   4.596  27.139 -0.0580  0.0219  0.2613
38263W        W46863  12.668   6.433   0.862 -0.0780  0.0959  0.0798
38264W        W46864  16.410   1.366  15.336  0.1986 -0.1553  0.0784
38265W        W46865  24.056   0.651   1.200  0.1664  0.2030 -0.0154
38266W        W46866  10.116   1.034  30.361 -0.0518 -0.1501  0.2169
38267W        W46867   4.335   4.122   1.020 -0.0339  0.0259 -0.1508
38268W        W46868  20.110   6.621  18.619 -0.2658  0.1917 -0.0577
38269W        W46869  24.546   0.997   9.326 -0.0493 -0.2600 -0.0915
38270W        W46870   4.864   7.436  10.772  0.0850 -0.3243 -0.2348
38271W        W46871  19.902   6.229  23.261 -0.0102 -0.5556  0.0814
38272W        W46872  16.259   4.856  21.376  0.0732  0.1370  0.0136
38273W        W46873  15.540   5.811  10.131 -0.1381 -0.2387  0.0746
38274W        W46874  12.841   6.901  26.516  0.1153  0.0183 -0.1360
38275W        W46875   1.239   4.105  27.785 -0.1932  0.4904 -0.2116
38276W        W46876   5.882   4.242  13.458  0.1207  0.0981 -0.1411
38277W        W46877  19.605   4.507   2.211  0.2359  0.0848 -0.2095
38278W        W46878   2.500   7.545  29.384  0.1922  0.1474  0.0549
38279W        W46879   4.828   6.528  16.024  0.2011 -0.3530 -0.0263
38280W        W46880   6.839   4.645   7.281  0.1811 -0.0646 -0.1832
38281W        W46881  15.681   6.538  16.990 -0.4090  0.2890 -0.1133
38282W        W46882  11.708   7.441   8.226  0.1639  0.0594 -0.1571
38283W        W46883  17.548   6.965  22.651 -0.5702 -0.0616 -0.1329
38284W        W46884   0.366   3.895   5.944  0.3811  0.2187  0.0263
38285W        W46885  16.337   1.297   4.999 -0.2979 -0.0450  0.0055
38286W        W46886  20.918   6.264   7.017 -0.2208 -0.0043 -0.0071
38287W        W46887  15.634   1.930   9.566  0.4600  0.0474 -0.0604
38288W        W46888   4.959   0.532   7.517  0.1015  0.1093 -0.2617
38289W        W46889   1.004   4.631  16.257  0.0961  0.1091  0.0258
38290W        W46890  21.979   3.515   7.042  0.2687  0.3389 -0.4077
38291W        W46891  24.035   4.953   6.852 -0.0429  0.0612 -0.0022
38292W        W46892   1.965   3.868   8.053 -0.2053 -0.2645  0.2005
38293W        W46893   7.557   3.056   6.586 -0.3848  0.2117 -0.0082
38294W        W46894  23.528   3.099  12.989 -0.1612  0.4003  0.0147
38295W        W46895  20.959   2.433  30.167 -0.2136  0.0770  0.1646
38296W        W46896  20.267   6.376  17.376  0.2155 -0.0524 -0.1865
38297W        W46897   8.100   7.542  14.137  0.1103  0.1835 -0.0572
38298W        W46898  24.853   4.118   5.792 -0.1978 -0.1078 -0.1409
38299W        W46899   5.988   2.619   4.771  0.0399  0.0060 -0.2044
38300W        W46900  17.416   7.199  28.403  0.2456 -0.1246 -0.0652
38301W        W46901  15.567   6.630   5.151  0.0288 -0.0229 -0.0782
38302W        W46902  23.235   5.417   1.437 -0.0226 -0.0457  0.1190
38303W        W46903  10.177   4.269  28.499  0.1992  0.2523  0.1995
38304W        W46904  15.079   0.915   8.928 -0.1608  0.0812  0.0669
38305W        W46905  23.068   2.830  26.224 -0.0135 -0.0354 -0.1702
38306W        W46906  11.923   4.035  21.712 -0.0866  0.0662  0.1719
38307W        W46907  15.574   7.521   4.971  0.0805 -0.0636  0.2384
38308W        W46908   6.437   7.621  23.760 -0.0991 -0.0740  0.1338
38309W        W46909   8.196   3.020  26.021  0.3179  0.0448  0.1384
38310W        W46910  20.048   6.998  19.071 -0.2290  0.1463  0.1337
38311W        W46911  19.077   6.756  16.291 -0.0618  0.0779 -0.3348
38312W        W46912  20.405   4.326  32.331  0.1182 -0.1412 -0.2282
38313W        W46913  20.332   7.172  22.769 -0.2107 -0.1529  0.1111
38314W        W46914   3.703   2.016   3.849  0.0363 -0.1183 -0.0452
38315W        W46915   0.733   5.050   9.677 -0.0373 -0.0676 -0.1089
38316W        W46916  18.691   1.343   2.307 -0.1478 -0.3980  0.1365
38317W        W46917  23.851   4.620  23.580 -0.4037  0.0372  0.1007
38318W        W46918   7.666   2.904  27.371  0.0792  0.3833  0.1470
38319W        W46919  16.637   5.934   8.393  0.0034 -0.1030  0.1909
38320W        W46920  11.599   0.195  10.825  0.1075 -0.0585 -0.0633
38321W        W46921   4.528   2.212  17.361 -0.1136 -0.2551 -0.1554
38322W        W46922  17.596   1.185  30.029 -0.0107  0.3674 -0.1468
38323W        W46923  10.805   7.372   6.478  0.1935  0.0671 -0.0492
38324W        W46924  12.819   6.596   4.908  0.0812 -0.2039 -0.0879
38325W        W46925   2.211   6.708  17.180  0.1134  0.2029 -0.3320
38326W        W46926  19.600   3.635  21.379  0.1816  0.0095 -0.0522
38327W        W46927   2.472   4.424   2.089 -0.1900  0.3046  0.0774
38328W        W46928  14.971   7.063   3.481  0.3985  0.2552  0.1519
38329W        W46929   1.662   7.706  13.861  0.2785 -0.0541  0.1039
38330W        W46930  11.763   4.610  25.942 -0.2857 -0.2652 -0.0218
38331W        W46931   5.263   0.893  25.121 -0.3056  0.3163 -0.3174
38332W        W46932   9.809   7.117   4.785 -0.1869 -0.0484  0.3667
38333W        W46933   2.597   7.305   3.417  0.1077 -0.1181 -0.2326
38334W        W46934  13.589   6.323   0.724 -0.0607 -0.1654  0.0607
38335W        W46935  10.432   6.177  23.382  0.0291 -0.0998  0.1561
38336W        W46936   9.197   0.848  23.027  0.3081  0.0955  0.3427
38337W        W46937   3.027   7.340  29.140  0.0313 -0.1095  0.1531
38338W        W46938  12.819   6.512   1.867 -0.3399  0.1933  0.3707
38339W        W46939   5.899   4.002  23.377  0.3945 -0.0408  0.1322
38340W        W46940   7.250   4.937  12.535 -0.0748  0.2301  0.0877
38341W        W46941  15.592   4.652   2.647  0.1410 -0.2196 -0.0081
38342W        W46942   6.586   6.058  24.867 -0.2372 -0.1159  0.1429
38343W        W46943   1.843   1.259   1.454  0.2516 -0.0910  0.0595
38344W        W46944   2.142   1.472  29.836 -0.1193 -0.1552  0.0556
38345W        W46945   1.564   6.642   6.754 -0.2196 -0.0956  0.0001
38346W        W46946  14.578   5.253  18.621  0.2682 -0.2547  0.2265
38347W        W46947  16.788   5.296  21.974  0.0794 -0.1835  0.1323
38348W        W46948   4.243   0.035   0.159  0.2668 -0.1271 -0.0235
38349W        W46949  11.177   5.676  28.025 -0.2659  0.0321  0.3335
38350W        W46950   0.569   5.997  24.713  0.0468  0.1830  0.0382
38351W        W46951   5.031   5.672  18.337  0.3043  0.1755  0.0079
38352W        W46952  15.583   1.561  25.513 -0.1840 -0.2344 -0.2144
38353W        W46953  19.311   6.415  18.962 -0.1909 -0.0167 -0.2348
38354W        W46954  21.331   3.946   5.488  0.3747 -0.1481  0.1280
38355W        W46955  24.234   3.785  31.520 -0.1999  0.0870 -0.0361
38356W        W46956   7.671   3.609  24.428 -0.2011  0.1772  0.1209
38357W        W46957  21.209   3.846   7.388 -0.0393 -0.1696  0.2736
38358W        W46958   1.652   7.276  14.927  0.3730  0.2155  0.0405
38359W        W46959   6.770   6.845   5.923  0.2305 -0.2806 -0.0028
38360W        W46960   7.211   2.764   8.101 -0.1899 -0.2010 -0.0942
38361W        W46961  19.653   3.054   1.125 -0.0849 -0.0206  0.1059
38362W        W46962  12.829   1.119  20.083  0.3385  0.0159 -0.4468
38363W        W46963  22.219   6.302  24.937  0.0123 -0.2999  0.0413
38364W        W46964  19.925   3.357   0.817  0.4391 -0.3106 -0.1931
38365W        W46965  19.125   3.819  29.164  0.1819 -0.0730  0.0191
38366W        W46966  15.690   5.961  24.906 -0.1453 -0.0480  0.0488
38367W        W46967  20.231   5.615  10.636  0.0100 -0.1915  0.2770
38368W        W46968  10.737   4.572   3.041  0.0225 -0.0768  0.1025
38369W        W46969   5.502   5.890  32.411 -0.0531 -0.2429 -0.0039
38370W        W46970   4.240   5.778  26.030  0.0195  0.2404 -0.0321
38371W        W46971  23.443   6.850   4.207  0.1130 -0.1714  0.3016
38372W        W46972  22.222   0.660  31.405  0.1661 -0.0761  0.3994
38373W        W46973  21.414   2.142   6.960 -0.2900  0.2814  0.2171
38374W        W46974  17.915   1.083  10.033 -0.2961  0.2756 -0.1336
38375W        W46975  24.840   6.656  13.001  0.0017 -0.3077  0.4207
38376W        W46976  11.829   0.771   7.144 -0.0860  0.0511 -0.3617
38377W        W46977  18.208   6.401  16.542 -0.0914  0.0984 -0.0855
38378W        W46978   5.263   2.595   5.941 -0.2187  0.1044 -0.1423
38379W        W46979  11.901   6.586   9.417  0.5764 -0.4940  0.3496
38380W        W46980  22.424   0.511  20.714  0.1015  0.0460 -0.0889
38381W        W46981   4.366   3.844   9.602  0.2654 -0.0593  0.2329
38382W        W46982   3.550   3.106  24.335 -0.0053  0.0220  0.1223
38383W        W46983   8.066   1.378  10.148 -0.4154  0.0863 -0.1004
38384W        W46984  11.295   0.417  18.808 -0.0348 -0.2108 -0.1165
38385W        W46985   6.496   3.325  11.004  0.0673 -0.0594 -0.2908
38386W        W46986  23.136   0.627   1.266  0.1868 -0.0848 -0.0223
38387W        W46987  12.023   5.710  22.779  0.1614  0.1004 -0.2038
38388W        W46988  24.705   1.835  11.948 -0.1361  0.3446 -0.1132
38389W        W46989  16.769   5.367  17.814  0.1224  0.0896  0.0533
38390W        W46990  17.195   5.613  29.893  0.0193 -0.1523  0.4408
38391W        W46991  19.346   7.390  16.842  0.2583  0.5172  0.0414
38392W        W46992   2.522   7.771   2.190 -0.2786  0.0895  0.1537
38393W        W46993  18.476   6.688  24.317  0.1259 -0.1366 -0.2638
38394W        W46994  19.528   3.905   4.026 -0.0035 -0.2092 -0.3266
38395W        W46995  12.946   4.394  17.076 -0.2703 -0.1298  0.0940
38396W        W46996  11.331   0.807   6.191 -0.0792 -0.1702 -0.0174
38397W        W46997   9.881   2.586   7.925  0.0530  0.1057 -0.0247
38398W        W46998  14.261   2.349  26.426 -0.0717  0.1889  0.4461
38399W        W46999   6.629   4.681   6.814 -0.1174 -0.1467  0.4008
38400W        W47000  19.525   5.225   5.674  0.0250 -0.0246 -0.0550
38401W        W47001  20.188   0.266  17.424  0.0977  0.0763 -0.1456
38402W        W47002  18.321   0.858  19.220  0.0600 -0.3053 -0.1225
38403W        W47003   9.660   3.051   7.189 -0.0837  0.0947  0.1981
38404W        W47004   5.480   5.431   7.808  0.0225 -0.1934  0.1535
38405W        W47005  14.422   4.805   5.027 -0.1777  0.2285  0.0200
38406W        W47006   5.212   4.510  10.536 -0.1374 -0.0149 -0.1934
38407W        W47007   4.944   6.842  16.406 -0.0235 -0.1012  0.0415
38408W        W47008   3.330   4.493   1.729  0.0660 -0.3950  0.1495
38409W        W47009  18.364   5.920  17.811 -0.1614  0.1469 -0.1484
38410W        W47010  17.529   0.424  24.270 -0.1544 -0.0724 -0.0095
38411W        W47011  20.785   2.652  23.634  0.0270 -0.1882 -0.0959
38412W        W47012  22.693   3.545  32.384 -0.0997 -0.2978 -0.1304
38413W        W47013   0.547   2.433  24.193  0.0878  0.1697  0.1961
38414W        W47014  18.464   3.760   3.479  0.2666 -0.1714  0.0932
38415W        W47015  21.513   4.619   7.711 -0.1213 -0.0816 -0.1453
38416W        W47016   5.587   0.273  11.215  0.3082  0.1653  0.3064
38417W        W47017   2.984   5.848   5.066 -0.2207  0.3789 -0.2157
38418W        W47018  12.791   3.166   3.910 -0.0731  0.2778 -0.1077
38419W        W47019   4.160   4.941   1.184 -0.0397  0.0830  0.1383
38420W        W47020   4.168   3.352  32.217 -0.0328  0.0351 -0.4857
38421W        W47021  21.972   0.126  32.623 -0.0236 -0.2321  0.1094
38422W        W47022   4.806   4.241  29.996  0.2273  0.1127 -0.1704
38423W        W47023  17.100   0.207  28.059 -0.1227  0.1232  0.0307
38424W        W47024  16.520   2.657  27.988 -0.1351  0.0741  0.0861
38425W        W47025  16.189   5.841   1.868 -0.0648 -0.2225 -0.2150
38426W        W47026   0.130   3.102  21.628 -0.1837 -0.1463  0.1164
38427W        W47027  10.034   1.196  29.450  0.0943  0.2880 -0.2643
38428W        W47028  20.253   2.123   3.546 -0.0967 -0.0931  0.1610
38429W        W47029   5.920   3.046  31.689 -0.5338 -0.1660  0.2100
38430W        W47030  18.819   0.479  27.431 -0.0650 -0.1393  0.0983
38431W        W47031   2.679   1.599  31.714  0.0397  0.0292  0.1027
38432W        W47032   2.862   5.257   3.574 -0.0218 -0.4560  0.0506
38433W        W47033  15.306   7.360   4.585  0.1752  0.0028  0.3659
38434W        W47034   3.515   0.840  14.001  0.1555 -0.3183  0.0677
38435W        W47035  13.441   2.398  25.154 -0.2564  0.0037 -0.2329
38436W        W47036  16.587   6.703  23.979 -0.0401  0.2802  0.0076
38437W        W47037  21.755   6.807  11.715 -0.1711  0.2115  0.0213
38438W        W47038  24.369   7.326  28.059  0.0894  0.0471  0.1968
38439W        W47039   4.033   7.785  27.372  0.0857 -0.0385 -0.1220
38440W        W47040   1.811   4.490  13.534  0.5072  0.2912 -0.1115
38441W        W47041   7.415   5.228   6.747 -0.0434  0.1788 -0.1360
38442W        W47042  22.867   5.013  21.486  0.1882 -0.1088 -0.1318
38443W        W47043   3.927   0.368  10.423  0.0133 -0.1259 -0.0249
38444W        W47044   3.074   5.509  15.968 -0.0700  0.3671  0.0159
38445W        W47045  16.252   1.938   1.627  0.1417  0.1546  0.1406
38446W        W47046  15.182   7.233  15.839  0.3658 -0.2395 -0.0611
38447W        W47047   1.320   4.247   2.696 -0.0882 -0.1548  0.0955
38448W        W47048  17.404   7.554   1.837 -0.1312  0.2119  0.0985
38449W        W47049   7.079   4.413  30.343 -0.0524  0.0343  0.4994
38450W        W47050  24.386   4.053  12.206 -0.2985  0.2861  0.0630
38451W        W47051   6.913   6.890  16.361 -0.0522  0.1441  0.1514
38452W        W47052  10.601   0.332   6.234 -0.4390 -0.0882 -0.0924
38453W        W47053  14.040   6.840  21.564 -0.1237  0.0144 -0.4242
38454W        W47054   9.323   0.093  21.919  0.1307  0.0643  0.1805
38455W        W47055   1.432   6.729  31.637  0.2291  0.1685  0.1328
38456W        W47056   6.809   7.763  11.609  0.2215  0.0860 -0.1304
38457W        W47057  21.517   4.627  29.383  0.5125 -0.0167  0.2479
38458W        W47058  13.851   3.001  16.287 -0.1255  0.2021 -0.3133
38459W        W47059  22.688   4.382  21.002 -0.0737  0.2103  0.1834
38460W        W47060  16.545   0.504  22.935  0.0183  0.1730 -0.0286
38461W        W47061  17.912   6.418   8.459  0.0118  0.0683  0.2529
38462W        W47062  17.044   1.987   4.993  0.0577 -0.3532  0.1486
38463W        W47063   6.557   1.507   8.900  0.2154 -0.1576  0.0689
38464W        W47064  13.513   3.587   8.427  0.0021  0.1365 -0.0499
38465W        W47065   1.351   1.992  22.789  0.2334  0.2964 -0.0954
38466W        W47066   8.797   0.063   5.248 -0.0205  0.0404  0.0377
38467W        W47067  14.132   4.094   8.936  0.0902 -0.0292  0.0920
38468W        W47068  14.262   1.943  18.549  0.0298  0.1242 -0.0419
38469W        W47069  24.003   5.055  24.766  0.3917  0.1295 -0.2462
38470W        W47070  13.968   5.104  32.949  0.0417  0.2217 -0.0113
38471W        W47071  11.038   6.733  20.882  0.0583 -0.0835  0.1444
38472W        W47072   0.334   1.177   8.890 -0.2648  0.1961 -0.1105
38473W        W47073   4.249   5.235   5.854 -0.1634 -0.1970  0.1636
38474W        W47074  13.666   1.680  16.235  0.3662  0.2296 -0.0117
38475W        W47075  21.512   4.453  18.552  0.0264 -0.0876  0.2733
38476W        W47076  10.158   4.049   2.547  0.3552 -0.0576  0.2597
38477W        W47077   7.877   3.054  31.015 -0.0434 -0.1791 -0.0733
38478W        W47078   2.095   1.832  28.163  0.1774  0.1713 -0.0784
38479W        W47079   6.381   7.301  18.083  0.1017 -0.1455  0.1089
38480W        W47080   5.155   6.115   0.866 -0.1851  0.0678  0.0822
38481W        W47081   8.817   2.417  11.506 -0.1183 -0.1762  0.0093
38482W        W47082  12.871   2.565  19.149 -0.3364  0.1152 -0.0760
38483W        W47083  24.517   4.634  10.584 -0.1561  0.1029 -0.1026
38484W        W47084  19.658   1.784  20.553 -0.1293 -0.2098  0.0197
38485W        W47085  13.168   3.390  24.432 -0.1576  0.0199  0.3179
38486W        W47086   7.219   1.251  13.291 -0.2599  0.1870 -0.2342
38487W        W47087   9.362   4.047  14.149 -0.0189  0.3490 -0.3653
38488W        W47088  10.733   6.450  31.961 -0.0303 -0.0938  0.1361
38489W        W47089  24.506   5.461  30.932  0.2129  0.0269  0.1459
38490W        W47090  21.796   4.834  23.350  0.1826 -0.2523 -0.3809
38491W        W47091   4.693   5.085  12.507 -0.0790  0.0562 -0.2155
38492W        W47092  20.375   6.469  29.795 -0.0684 -0.0460 -0.1737
38493W        W47093  21.047   1.786  23.834 -0.0045 -0.0401  0.0105
38494W        W47094   7.963   7.542  13.636 -0.2345  0.0378  0.0069
38495W        W47095   5.658   2.033  26.859  0.1089 -0.2463 -0.1247
38496W        W47096  15.448   1.931  19.441 -0.1349 -0.0331 -0.0468
38497W        W47097  10.541   4.833   1.797  0.0107 -0.0036  0.1649
38498W        W47098   3.927   5.395   8.945  0.2385 -0.0449 -0.1614
38499W        W47099   8.956   0.504   1.986 -0.1773 -0.0600 -0.0678
38500W        W47100   7.325   2.415  12.429  0.0132  0.1924 -0.0453
38501W        W47101  20.942   5.572  29.082 -0.0350 -0.2744 -0.1002
38502W        W47102   3.545   1.908  23.919 -0.1119  0.1192  0.1679
38503W        W47103   7.615   0.831  11.404 -0.1533 -0.3188  0.0168
38504W        W47104   6.874   3.675  29.969 -0.1389 -0.1412 -0.1007
38505W        W47105   8.607   1.366  28.406 -0.0611  0.1948  0.2578
38506W        W47106   5.199   2.434  33.011  0.1773  0.0937  0.1272
38507W        W47107  21.391   1.077  12.085  0.0291 -0.1047  0.0625
38508W        W47108  22.508   7.620  19.802 -0.0855  0.1262 -0.0382
38509W        W47109  19.841   4.774   3.901 -0.2930  0.0253  0.3819
38510W        W47110  16.071   4.792  27.633 -0.0170 -0.0441 -0.0162
38511W        W47111   1.792   1.730  12.876  0.1760 -0.3870 -0.0928
38512W        W47112  18.478   7.400  19.924  0.0027  0.1153 -0.0709
38513W        W47113   2.707   0.821  25.099  0.0417  0.2818  0.0411
38514W        W47114  16.417   5.326  18.454  0.0656  0.1564 -0.1421
38515W        W47115  23.864   3.106   0.797  0.1006  0.0289 -0.2118
38516W        W47116   4.695   4.341  33.041 -0.0738  0.1025  0.1767
38517W        W47117  19.011   3.499  17.895  0.3223  0.0900 -0.0223
38518W        W47118  14.965   5.968  17.514  0.0227 -0.0040  0.1230
38519W        W47119  22.063   4.094  22.402  0.3290 -0.0488  0.3631
38520W        W47120  12.644   6.880   7.119  0.1195  0.0167 -0.3653
38521W        W47121  22.215   3.289   2.705 -0.2610  0.0174 -0.3021
38522W        W47122  13.499   4.535   5.488 -0.1009 -0.1161  0.0352
38523W        W47123  19.741   4.392  27.469 -0.0583  0.0393 -0.0255
38524W        W47124  12.761   3.994   3.318 -0.1214  0.0553 -0.0000
38525W        W47125  18.719   5.610  19.866  0.1714  0.1885  0.2598
38526W        W47126  11.505   6.597  27.604  0.0356  0.0024 -0.0584
38527W        W47127  20.954   4.533  21.620 -0.0225 -0.1224  0.1199
38528W        W47128  24.022   4.733  11.394  0.0383  0.1823 -0.2576
38529W        W47129  21.989   3.088  21.275 -0.0543 -0.0597  0.3134
38530W        W47130   7.562   1.705  10.020 -0.1878  0.0392 -0.0318
38531W        W47131  13.969   1.215  18.373  0.1743 -0.0046  0.1207
38532W        W47132   9.924   3.491  23.996  0.1640 -0.2282  0.2713
38533W        W47133  24.788   2.706  27.946 -0.0262  0.1065  0.0239
38534W        W47134  15.266   1.373  24.623  0.1666 -0.0889  0.1575
38535W        W47135   3.104   3.319  27.097  0.0492  0.0705 -0.1040
38536W        W47136   5.426   2.944   1.315  0.0846  0.3248  0.1754
38537W        W47137   4.111   2.548  26.561 -0.3821 -0.1782 -0.0935
38538W        W47138  14.918   1.061   0.727 -0.1864  0.1828 -0.1601
38539W        W47139  21.728   7.621  22.868 -0.0306  0.1468  0.2146
38540W        W47140   0.947   2.737  31.743  0.0610  0.4296  0.1608
38541W        W47141  14.667   5.764  25.087 -0.0533 -0.0381  0.0993
38542W        W47142  17.127   1.501   9.025  0.1230  0.0317 -0.2986
38543W        W47143  15.740   0.883   0.498 -0.1278  0.0586 -0.2681
38544W        W47144  20.373   2.541   5.823 -0.1628  0.1357 -0.0095
38545W        W47145  21.639   1.316  26.632 -0.0358 -0.1832 -0.1052
38546W        W47146   4.512   4.376   3.603  0.1369 -0.2147  0.0253
38547W        W47147  17.861   5.837   1.719  0.0918  0.0454 -0.0070
38548W        W47148  10.574   0.113  12.415  0.2468  0.2364  0.1461
38549W        W47149   2.489   4.095   3.474  0.1779  0.3203 -0.0382
38550W        W47150   0.556   4.468   6.612  0.2957  0.0494  0.2081
38551W        W47151  21.036   5.463  24.838  0.0037  0.2075  0.1789
38552W        W47152  14.897   5.647   6.111 -0.2054 -0.2853  0.1360
38553W        W47153   6.396   7.419  12.381 -0.1042  0.1335 -0.0197
38554W        W47154  14.914   2.885  25.401  0.2392  0.2922  0.1198
38555W        W47155  16.571   7.225  32.288  0.1503 -0.3854 -0.0128
38556W        W47156   2.567   1.498  15.703  0.0919 -0.0322  0.1237
38557W        W47157   9.962   6.935   1.958 -0.1945 -0.4651 -0.1760
38558W        W47158  16.453   4.221  15.235  0.2028 -0.4093 -0.2187
38559W        W47159   6.194   3.123  24.823  0.1372 -0.0258  0.0095
38560W        W47160  23.518   2.569  22.471 -0.1206 -0.1047 -0.2491
38561W        W47161  23.348   2.021  21.167 -0.0719  0.0869  0.1384
38562W        W47162   9.872   0.497   5.167 -0.0175 -0.1553 -0.1714
38563W        W47163   8.860   4.667   5.806  0.0856 -0.0300 -0.2466
38564W        W47164  12.656   0.793  26.214  0.0307 -0.5203 -0.2698
38565W        W47165  24.529   2.914  22.167 -0.1278  0.1131  0.1753
38566W        W47166  23.463   0.854   2.722  0.0126 -0.1807 -0.1964
38567W        W47167  17.174   3.889   9.271  0.1048 -0.3349  0.2095
38568W        W47168   4.987   3.565  11.505 -0.0259 -0.4605  0.0644
38569W        W47169  19.087   4.632  32.957 -0.0824  0.0921  0.1423
38570W        W47170   0.732   4.231  12.134  0.2399  0.0047  0.0547
38571W        W47171  16.637   6.938   9.866  0.0863  0.0367 -0.3271
38572W        W47172   9.669   7.254  23.319  0.1395  0.1977 -0.2737
38573W        W47173   5.432   3.698   0.525  0.1126  0.2981  0.0532
38574W        W47174  17.306   4.239   1.589  0.0102  0.1842 -0.2510
38575W        W47175  23.684   0.876  25.428 -0.0852 -0.2773  0.2999
38576W        W47176   7.954   3.564  24.972  0.0248 -0.0302 -0.2510
38577W        W47177  19.609   6.886  18.777  0.1402 -0.0185  0.1538
38578W        W47178   3.760   6.787   3.677  0.0242 -0.0849  0.0565
38579W        W47179   7.408   3.189  16.805  0.1705  0.1814 -0.0104
38580W        W47180   4.163   1.270   5.161  0.1357 -0.3646 -0.3093
38581W        W47181  18.390   5.968  27.028 -0.1121  0.0819 -0.0135
38582W        W47182  11.475   3.488  10.935  0.1072  0.0377 -0.1515
38583W        W47183   9.395   7.742  29.913  0.0688  0.1052 -0.0717
38584W        W47184   8.504   0.430  10.467  0.1496  0.2040  0.0392
38585W        W47185  13.573   7.675   4.258 -0.1496 -0.0780  0.2148
38586W        W47186  13.500   2.893   1.429 -0.0015  0.0582  0.0517
38587W        W47187  23.248   1.834   7.628  0.1523 -0.3021 -0.3552
38588W        W47188  15.088   2.606  15.475 -0.0506  0.0751  0.2395
38589W        W47189  10.002   1.182  22.957  0.0848 -0.0300 -0.0270
38590W        W47190   2.508   6.752  16.826 -0.0384  0.4583  0.2784
38591W        W47191   8.435   0.356   7.142  0.2314 -0.1578  0.0423
38592W        W47192   2.300   0.840  28.520  0.0549 -0.0758  0.0813
38593W        W47193  13.311   1.636  24.859 -0.1535 -0.2542 -0.1451
38594W        W47194  20.969   7.700  11.098  0.1760  0.0250  0.0348
38595W        W47195  18.122   5.632   0.985  0.2026 -0.2645 -0.1185
38596W        W47196  11.164   4.165  22.019  0.2882  0.0572 -0.0783
38597W        W47197  10.873   7.438   3.817  0.0260  0.1386  0.0954
38598W        W47198  12.707   3.991   2.755 -0.0403  0.5148 -0.3403
38599W        W47199   5.658   1.090  24.498  0.0106 -0.2106  0.1116
38600W        W47200   8.622   2.400   3.090 -0.3131  0.4446  0.0273
38601W        W47201  15.980   2.203  28.263  0.1433 -0.1031  0.2471
38602W        W47202   1.948   5.474  14.576  0.1536  0.2487  0.0157
38603W        W47203  21.228   4.904   4.954 -0.0884  0.1658 -0.3353
38604W        W47204   7.065   0.031   2.358  0.2049 -0.2261  0.1492
38605W        W47205  10.189   6.643   4.192  0.0356 -0.0209 -0.0584
38606W        W47206  24.162   7.443  25.014 -0.0558 -0.3386  0.2620
38607W        W47207   7.642   5.614  31.738 -0.1674 -0.1306 -0.0260
38608W        W47208  15.813   4.757   6.060 -0.1914  0.1165 -0.0869
38609W        W47209  15.167   5.480  25.914 -0.0971  0.1294  0.1745
38610W        W47210   6.230   3.540  27.181 -0.2886  0.2070 -0.3042
38611W        W47211  14.937   1.982  30.674  0.1073  0.0077 -0.1638
38612W        W47212  13.290   1.772  21.433 -0.0667  0.0948  0.0377
38613W        W47213  14.397   2.545  32.343  0.0391 -0.1189 -0.1369
38614W        W47214   4.874   6.549  23.811  0.0206  0.0392  0.1128
38615W        W47215   3.304   3.025  26.061 -0.1551 -0.0796 -0.3033
38616W        W47216   2.061   1.499   5.574 -0.2614  0.0614 -0.1891
38617W        W47217  12.243   3.122   5.093 -0.1484  0.1421 -0.2316
38618W        W47218   7.026   7.246   6.052 -0.0352 -0.2583  0.3978
38619W        W47219  14.202   3.335   1.084  0.0968  0.0332  0.0462
38620W        W47220  15.898   6.115   4.897  0.0953  0.3036 -0.3035
38621W        W47221  19.083   1.813  17.209 -0.2473 -0.2850 -0.0949
38622W        W47222  19.618   0.018  10.751  0.0296  0.0171 -0.0205
38623W        W47223  10.347   5.169   7.243  0.0698  0.2688 -0.0502
38624W        W47224  17.563   4.944   1.623  0.3161  0.0109  0.1716
38625W        W47225  15.637   3.655  26.243  0.0681 -0.0536  0.1493
38626W        W47226  19.253   6.141   8.983 -0.0330 -0.0108  0.0086
38627W        W47227  24.027   0.996   1.571  0.0050 -0.5030  0.0264
38628W        W47228  23.098   1.347   1.848  0.0648 -0.0849 -0.1667
38629W        W47229   2.130   5.051  11.871 -0.2537  0.3378 -0.2716
38630W        W47230  17.053   2.544  30.626  0.1983  0.0114  0.2215
38631W        W47231  12.655   0.685  29.506  0.2196 -0.1611 -0.1875
38632W        W47232  11.105   5.716  19.949  0.0090 -0.1887  0.2377
38633W        W47233  22.886   2.864  29.165 -0.3745  0.2310  0.2971
38634W        W47234   4.353   4.962  15.297 -0.2064  0.1511 -0.0598
38635W        W47235  17.846   3.074  24.497  0.2388 -0.3691  0.0292
38636W        W47236  21.720   2.835   4.260 -0.1738 -0.0199 -0.2435
38637W        W47237   1.335   5.809  26.261  0.0170  0.3986  0.0072
38638W        W47238   3.694   0.619  10.782 -0.0962 -0.3098  0.1286
38639W        W47239  23.624   5.455  11.444  0.0440  0.0046  0.2024
38640W        W47240  11.386   2.565   4.416  0.0119 -0.0601  0.2242
38641W        W47241  21.727   5.715  32.610 -0.0215 -0.2380  0.0096
38642W        W47242  13.260   5.749  26.375 -0.4624 -0.2356  0.0600
38643W        W47243   2.036   5.117  29.449  0.1825 -0.0509  0.1138
38644W        W47244  14.521   6.978   5.548  0.1484 -0.0366 -0.1094
38645W        W47245   3.093   1.505   2.311  0.0810 -0.1791 -0.2561
38646W        W47246  11.896   6.238   3.753  0.0535  0.0023  0.0511
38647W        W47247  15.069   4.540   9.285 -0.3067 -0.1889 -0.0750
38648W        W47248  23.564   2.370  26.789  0.1336 -0.2024 -0.1560
38649W        W47249   1.995   3.739   6.465  0.1076 -0.1818 -0.2499
38650W        W47250   3.564   5.133  11.673 -0.0489 -0.0158 -0.0528
38651W        W47251   9.611   5.922   9.647  0.0650  0.0729  0.0161
38652W        W47252  17.695   3.241  22.320 -0.0339  0.1142 -0.5167
38653W        W47253  10.536   3.739  12.766 -0.2185 -0.0983 -0.1043
38654W        W47254  22.943   3.870  11.159 -0.0595  0.2307  0.1404
38655W        W47255  22.741   4.967  29.444  0.3867  0.0673 -0.0576
38656W        W47256   3.856   7.330  13.727 -0.1023  0.0375 -0.1288
38657W        W47257   4.832   2.057  10.129 -0.0511 -0.0037 -0.0616
38658W        W47258  18.410   6.755   2.015  0.0845 -0.0805 -0.1823
38659W        W47259   4.218   3.870   8.952 -0.0044  0.1939 -0.1361
38660W        W47260  16.328   3.169   9.137  0.3152 -0.1412  0.0283
38661W        W47261   6.388   2.553   7.766 -0.0140  0.2585 -0.1049
38662W        W47262  15.695   4.783  20.637 -0.1433 -0.1684 -0.2904
38663W        W47263   1.752   2.204  25.260 -0.0242 -0.1220 -0.0550
38664W        W47264  13.320   5.276  20.114 -0.0737 -0.0137 -0.2680
38665W        W47265  21.188   5.981  23.982 -0.2500 -0.0931 -0.1325
38666W        W47266   1.416   6.917  10.678 -0.1003  0.3324  0.1653
38667W        W47267  10.543   7.475  31.047  0.2605  0.1742  0.0494
38668W        W47268   6.411   1.004   2.603  0.2026 -0.0772  0.1758
38669W        W47269   5.252   0.559  26.011  0.1649 -0.0266 -0.0219
38670W        W47270  17.471   7.746   2.359  0.5401  0.1628 -0.1313
38671W        W47271   6.841   1.276  27.898 -0.0200  0.1888 -0.3253
38672W        W47272  24.231   3.359  11.792  0.0658 -0.0331  0.1486
38673W        W47273  20.231   5.138   5.835  0.0707  0.0150  0.2187
38674W        W47274  23.500   6.470   7.252  0.2514  0.0881 -0.2093
38675W        W47275   2.475   7.569   4.626 -0.3269  0.0001 -0.2534
38676W        W47276   6.783   0.783  17.373 -0.0245  0.1399  0.0776
38677W        W47277   5.030   5.719  28.197  0.0348  0.1818  0.0904
38678W        W47278  13.198   4.843   7.056  0.1727  0.3026  0.0746
38679W        W47279  13.275   2.707  21.576 -0.1534 -0.0405  0.0771
38680W        W47280  18.692   2.083  29.197  0.0322 -0.2157  0.1384
38681W        W47281  19.081   5.491   8.078  0.0077 -0.0274 -0.2348
38682W        W47282   1.725   7.591  17.862  0.3225 -0.0515 -0.2369
38683W        W47283  18.396   6.474  29.129 -0.1059 -0.1495  0.3404
38684W        W47284   0.573   6.599  12.063 -0.0811 -0.1412 -0.0726
38685W        W47285  18.751   7.682  23.310 -0.1472 -0.1003 -0.2890
38686W        W47286  19.651   6.975  29.031  0.2769  0.1986  0.1053
38687W        W47287  12.111   7.175   1.433 -0.2250  0.1749  0.1007
38688W        W47288  19.334   1.926  21.800  0.2591 -0.2894  0.0131
38689W        W47289   4.678   1.361  28.489 -0.2491 -0.0223 -0.0973
38690W        W47290   3.505   5.350  10.707  0.1619 -0.1725 -0.1507
38691W        W47291  20.127   5.158  23.694 -0.1646 -0.0808  0.2018
38692W        W47292  12.147   3.109  28.861  0.3362  0.0141  0.0431
38693W        W47293   9.659   0.318  30.590  0.0603 -0.1979 -0.4129
38694W        W47294  23.000   3.105  24.935 -0.0425 -0.0676  0.1578
38695W        W47295   1.362   4.356  13.651  0.2717 -0.0534 -0.4055
38696W        W47296   5.311   5.057  28.862  0.0718  0.0281 -0.0572
38697W        W47297  16.075   3.046  17.068  0.0209  0.2728  0.0632
38698W        W47298   0.468   5.282  24.776  0.2288 -0.0598 -0.0951
38699W        W47299  17.848   3.821  17.017  0.1232  0.2653 -0.0414
38700W        W47300  21.764   1.272  21.142  0.0842  0.0990  0.0950
38701W        W47301   3.970   4.959  10.196 -0.2383  0.1704 -0.0331
38702W        W47302  15.865   1.826  30.279  0.2143 -0.0551 -0.1305
38703W        W47303  17.082   4.426  20.649 -0.2084 -0.1122  0.0851
38704W        W47304  15.592   0.264  10.087 -0.4618  0.2139 -0.0120
38705W        W47305  11.657   2.619   5.299  0.2901  0.2189 -0.0305
38706W        W47306  22.350   4.566   0.304 -0.0219 -0.0518 -0.1904
38707W        W47307   2.928   0.690   1.955 -0.2395  0.0593  0.1967
38708W        W47308   6.009   3.943   3.776 -0.2107 -0.1562  0.0375
38709W        W47309  11.935   6.875  28.891  0.2437 -0.0813  0.0653
38710W        W47310   0.759   6.231   7.260 -0.0678 -0.1362 -0.3321
38711W        W47311  22.518   0.100   5.780 -0.0438  0.0423  0.0124
38712W        W47312  14.682   2.095  26.625  0.0028  0.1765 -0.2119
38713W        W47313  10.032   5.229   2.165  0.1869  0.0584  0.1366
38714W        W47314  24.375   5.323   3.881 -0.0804  0.0310  0.1491
38715W        W47315   7.881   7.296   7.345  0.2031  0.0520 -0.1050
38716W        W47316  15.204   0.045   9.294 -0.1541 -0.0053  0.2085
38717W        W47317  10.392   3.585   1.812 -0.1330 -0.1803 -0.1602
38718W        W47318   2.540   5.526  27.068 -0.2437  0.1643  0.0915
38719W        W47319   8.502   0.860   9.586  0.0133  0.0655  0.0475
38720W        W47320   9.342   1.302   4.881  0.2412 -0.0939  0.1345
38721W        W47321  22.408   2.935   9.396 -0.2569 -0.2085  0.0913
38722W        W47322   7.104   6.900   7.270 -0.3347 -0.0050  0.0438
38723W        W47323  17.861   1.792   9.258  0.0598 -0.2552  0.0850
38724W        W47324  17.965   5.089  23.706 -0.1125  0.1253  0.0639
38725W        W47325  14.800   3.638   0.067  0.1056  0.3279 -0.0588
38726W        W47326   9.440   5.451  25.297 -0.0095 -0.4119  0.0758
38727W        W47327   5.285   5.411  24.966 -0.0520  0.0011  0.1081
38728W        W47328   9.077   1.299  10.209  0.2317  0.1243  0.2041
38729W        W47329  13.930   3.321   2.029 -0.0660 -0.0485 -0.2010
38730W        W47330  24.107   5.888   0.794  0.0793 -0.0516  0.1522
38731W        W47331   1.881   2.550   2.725  0.0637 -0.0850 -0.0407
38732W        W47332  10.182   0.547  32.110  0.0386 -0.0243 -0.1165
38733W        W47333  10.404   3.845   4.295 -0.2457 -0.0497  0.1524
38734W        W47334  12.164   3.204  20.173 -0.0123 -0.2421 -0.1057
38735W        W47335  14.976   5.299   1.272 -0.2326 -0.3892  0.1175
38736W        W47336   2.987   3.489  15.612  0.0085  0.0466  0.0938
38737W        W47337   5.810   7.522  29.516 -0.1194 -0.0279  0.2449
38738W        W47338  13.363   7.277  27.429 -0.1812 -0.0025  0.0706
38739W        W47339   8.931   5.682  26.888  0.0091  0.0031 -0.0122
38740W        W47340  17.126   4.860  20.884 -0.0694 -0.2413  0.1392
38741W        W47341  11.124   0.728  32.109 -0.2354  0.1258 -0.2567
38742W        W47342   6.677   7.208  10.155  0.1490  0.0405  0.3086
38743W        W47343  10.424   5.288  29.274  0.2777 -0.1009  0.2053
38744W        W47344  11.990   0.323  11.868 -0.0863 -0.1719 -0.0402
38745W        W47345   0.260   4.986  21.576  0.0497  0.3250  0.0592
38746W        W47346   4.889   5.725  15.252  0.0101  0.1293  0.1455
38747W        W47347   0.698   5.780   0.719 -0.0598 -0.3031 -0.0436
38748W        W47348   5.048   2.969  32.530  0.0320  0.0793 -0.4004
38749W        W47349   4.708   2.547   8.616 -0.1771 -0.3333  0.2483
38750W        W47350  19.439   3.616  18.115  0.1546 -0.1417 -0.0029
38751W        W47351   7.539   3.600  31.482 -0.1604  0.0729 -0.0895
38752W        W47352  13.769   2.994  10.691 -0.0601  0.2000 -0.1166
38753W        W47353  24.761   5.074  31.112 -0.0217  0.3026  0.1487
38754W        W47354   6.105   7.233   7.709  0.2857 -0.1146  0.1946
38755W        W47355  20.836   1.987  31.168  0.0055  0.0456  0.0071
38756W        W47356  15.691   5.319  32.341  0.0220 -0.0705  0.1731
38757W        W47357   0.781   2.111  26.125  0.0712  0.2523 -0.1115
38758W        W47358  24.115   4.177   8.687  0.0840  0.1416 -0.2079
38759W        W47359  24.022   2.282   5.084  0.1538 -0.2073  0.0712
38760W        W47360  14.983   4.695  29.741  0.1717 -0.3414 -0.1028
38761W        W47361   2.286   5.131   6.996 -0.0677  0.1876 -0.0308
38762W        W47362   8.523   4.078  13.771 -0.0700 -0.2174 -0.2278
38763W        W47363   7.170   1.378  17.140 -0.0431 -0.1084  0.2228
38764W        W47364  14.142   2.241   6.476 -0.1133  0.0925 -0.3346
38765W        W47365   4.681   2.920  16.871 -0.3040  0.0040  0.0374
38766W        W47366   3.581   3.588  23.162 -0.0305 -0.1083 -0.0718
38767W        W47367   9.754   7.152  28.281  0.2496  0.0847 -0.2760
38768W        W47368  19.667   1.645   6.356 -0.3710  0.0253  0.1120
38769W        W47369   3.249   5.060  16.185  0.1929 -0.2153 -0.0813
38770W        W47370   0.806   3.582  23.151  0.1215  0.1260  0.1320
38771W        W47371   5.325   6.800   6.647 -0.0110  0.2877 -0.1215
38772W        W47372  13.378   2.908   2.745 -0.1929 -0.1233 -0.2181
38773W        W47373  11.119   6.887   1.533 -0.1851 -0.2982 -0.2592
38774W        W47374  20.581   0.201   3.921 -0.0876  0.2503 -0.2786
38775W        W47375  15.272   0.317   4.985 -0.0036  0.2752 -0.1094
38776W        W47376  13.177   0.513  32.249  0.2052 -0.0689 -0.3108
38777W        W47377  22.155   7.567  23.538 -0.0746 -0.0586  0.0006
38778W        W47378   6.725   3.859  31.485  0.2484  0.1299 -0.0642
38779W        W47379  18.200   4.032   9.704  0.0880 -0.0388  0.0840
38780W        W47380   9.196   2.960   1.575  0.0891 -0.1670 -0.0089
38781W        W47381  15.744   0.231  15.061 -0.2979 -0.3935  0.1692
38782W        W47382  18.430   0.068  23.641 -0.1092 -0.4700 -0.0257
38783W        W47383  14.892   4.974   8.237 -0.0067 -0.2358  0.1552
38784W        W47384  16.985   3.397  19.017  0.0882 -0.0871  0.0250
38785W        W47385   5.531   6.083  14.149 -0.0362 -0.1308 -0.1005
38786W        W47386  23.195   6.318   8.456  0.1905  0.2931  0.0065
38787W        W47387  21.185   6.487  23.463  0.0896  0.1746  0.3469
38788W        W47388  13.073   0.203  16.424 -0.1292  0.0043 -0.1044
38789W        W47389  16.030   6.893   6.789  0.2312  0.1305 -0.2481
38790W        W47390  18.852   5.842   2.183  0.2304 -0.0274  0.1898
38791W        W47391   4.254   6.863   3.783  0.0373  0.0219 -0.0289
38792W        W47392  14.784   0.517   4.638  0.0654 -0.0381  0.0770
38793W        W47393  19.418   6.899  27.616 -0.0070 -0.1837  0.1246
38794W        W47394  16.182   0.740  29.924 -0.0433 -0.1261 -0.0015
38795W        W47395   1.080   1.094  14.624  0.1588  0.0582 -0.0924
38796W        W47396  11.911   5.554   6.124 -0.1143 -0.0301  0.0338
38797W        W47397   3.859   1.120   4.784 -0.0142  0.3176  0.1861
38798W        W47398   2.086   4.588   0.894  0.1177 -0.1172  0.2514
38799W        W47399  15.636   4.318  29.197  0.1568 -0.0724  0.1108
38800W        W47400   7.523   5.809  32.790  0.0724  0.1406 -0.0183
38801W        W47401  19.592   4.516  31.594 -0.2992 -0.0044 -0.0686
38802W        W47402  19.552   7.380  18.525 -0.1107  0.0872  0.2053
38803W        W47403  19.697   5.870  25.636  0.1938 -0.0177  0.1759
38804W        W47404   7.489   1.409  26.399 -0.0072 -0.1619  0.0974
38805W        W47405  19.776   0.428  24.450  0.1528 -0.1628  0.2334
38806W        W47406   0.257   6.012   6.913 -0.1694  0.0459 -0.0511
38807W        W47407   1.388   7.356  30.356  0.0128  0.1316  0.1629
38808W        W47408  19.417   2.616  10.519  0.0793  0.4126 -0.0168
38809W        W47409  19.486   4.607  24.266  0.0597 -0.1782  0.1134
38810W        W47410   1.548   1.620  29.803 -0.0590 -0.0498  0.0776
38811W        W47411   4.068   0.802  17.987 -0.1093 -0.2550 -0.0222
38812W        W47412   1.453   7.677   9.516  0.1667 -0.0013  0.0617
38813W        W47413   7.553   4.524  25.356  0.2422 -0.1209 -0.2059
38814W        W47414   8.125   6.185  13.818  0.1559 -0.0437  0.0674
38815W        W47415   2.937   1.265   1.876 -0.0052  0.5933  0.1353
38816W        W47416   4.301   2.086   5.188 -0.2044 -0.1540  0.2775
38817W        W47417  17.268   0.016  20.280 -0.0261  0.1052  0.1606
38818W        W47418  24.500   3.324  31.298 -0.3134  0.0459  0.0617
38819W        W47419  14.587   0.432  17.800 -0.0492  0.0527 -0.0090
38820W        W47420  16.366   0.046  20.213 -0.1702 -0.3160  0.0426
38821W        W47421  17.528   3.477  24.600 -0.0665  0.1087 -0.1846
38822W        W47422  22.377   1.776   5.710  0.0248 -0.1990 -0.0358
38823W        W47423   7.586   7.760  32.532 -0.0096 -0.0947 -0.0831
38824W        W47424   2.271   3.041   7.862  0.1805 -0.0089  0.0563
38825W        W47425   5.951   7.492  30.397  0.3708  0.2137  0.1681
38826W        W47426  11.726   5.632  21.884  0.0718 -0.1208  0.0920
38827W        W47427   4.753   5.569   1.707  0.0433 -0.3308  0.0962
38828W        W47428  21.875   0.338  31.732  0.0881  0.4087 -0.2903
38829W        W47429  15.080   3.784  25.345 -0.1079  0.2712 -0.2805
38830W        W47430  11.669   2.300  24.324 -0.0449  0.0232 -0.1410
38831W        W47431  21.477   1.461  12.942 -0.2004  0.2157  0.0839
38832W        W47432  18.249   3.004   7.487 -0.3250  0.0286  0.1376
38833W        W47433  12.631   5.909  28.935 -0.1375 -0.1384 -0.0094
38834W        W47434  20.344   5.594  24.002  0.0794 -0.1753 -0.3608
38835W        W47435  12.713   3.249  20.178 -0.0745  0.2155 -0.0414
38836W        W47436  10.802   2.497  28.901 -0.0556  0.0947  0.1927
38837W        W47437  11.715   4.191  19.991 -0.2408 -0.1489 -0.0562
38838W        W47438   8.103   5.881   5.307 -0.1437  0.1772 -0.2772
38839W        W47439   1.187   0.537  31.906 -0.0389  0.0769  0.0435
38840W        W47440   7.799   3.236  28.881  0.0305  0.1232  0.1144
38841W        W47441  17.830   3.748  17.598  0.1360 -0.0457  0.0261
38842W        W47442  21.831   5.382  23.234 -0.0733  0.0201 -0.0397
38843W        W47443  21.338   3.396  32.198  0.3016  0.5634  0.1315
38844W        W47444  16.518   0.104  10.110 -0.0439  0.2748  0.2946
38845W        W47445  14.632   7.681   7.214  0.1140  0.1226  0.0791
38846W        W47446  18.614   6.835  31.840 -0.0045  0.0668 -0.0204
38847W        W47447   2.786   3.298  11.754 -0.3990  0.0177  0.2871
38848W        W47448   6.194   0.923  12.273 -0.1574  0.1234  0.0760
38849W        W47449  15.791   7.046  19.770  0.1936  0.1636 -0.1744
38850W        W47450   1.045   0.578   0.999  0.1224 -0.0185 -0.3133
38851W        W47451  22.062   1.218  10.640 -0.2881 -0.0634  0.0604
38852W        W47452   4.601   0.250   0.514  0.0305  0.0475 -0.3192
38853W        W47453   9.617   6.050  13.970  0.1045  0.1812  0.0454
38854W        W47454   5.248   0.500  31.898 -0.0656 -0.1554  0.0607
38855W        W47455   5.442   2.890  31.689  0.1249  0.0814 -0.2459
38856W        W47456  22.025   0.143   5.952 -0.0562 -0.0499  0.1359
38857W        W47457  10.584   4.476  23.367 -0.2491  0.1585 -0.2068
38858W        W47458  18.479   5.480  30.553  0.1713  0.1244  0.0052
38859W        W47459  18.301   7.601  26.394  0.0099 -0.3266  0.3275
38860W        W47460   1.908   5.619  24.476 -0.1021  0.3062  0.3076
38861W        W47461   1.334   7.118  24.648 -0.2808 -0.2571 -0.0303
38862W        W47462   1.656   2.537  10.317  0.0309  0.3534  0.2268
38863W        W47463   3.476   5.529  17.406  0.0019 -0.0164 -0.2139
38864W        W47464  17.460   7.018  17.918 -0.1011 -0.1383 -0.0908
38865W        W47465  17.462   6.685  30.524 -0.2005 -0.0328  0.2205
38866W        W47466  20.514   7.468   5.914 -0.2916  0.2086 -0.1337
38867W        W47467   1.559   2.897   9.296  0.1221 -0.1795  0.1511
38868W        W47468  16.099   1.236   7.854  0.3279 -0.1393 -0.0387
38869W        W47469   4.370   3.930  28.874 -0.0116 -0.1460  0.1680
38870W        W47470   2.009   1.258   8.009 -0.0608  0.2408 -0.0165
38871W        W47471  24.757   4.525  13.003 -0.3349  0.2410 -0.0445
38872W        W47472   8.496   1.817  12.978  0.0412 -0.1002  0.2840
38873W        W47473  23.308   0.688   0.185 -0.2090  0.0307 -0.0746
38874W        W47474   3.128   0.650  17.927 -0.0061  0.0522 -0.0237
38875W        W47475  11.303   5.194  27.807  0.0557  0.0974 -0.1347
38876W        W47476   9.670   5.431  29.161 -0.0707  0.0092 -0.1451
38877W        W47477  19.043   6.459  15.947  0.0669 -0.1950 -0.0515
38878W        W47478   9.901   3.964  13.518  0.0414 -0.1891 -0.1630
38879W        W47479  15.524   5.961  15.142  0.0237  0.1922  0.0710
38880W        W47480  10.086   2.116   1.761  0.1588 -0.0232  0.0269
38881W        W47481   5.608   1.655  30.685 -0.0578  0.2711  0.2629
38882W        W47482  14.139   2.581  28.388 -0.2133 -0.1383 -0.0404
38883W        W47483   6.165   3.349  13.491 -0.1082  0.4361  0.4200
38884W        W47484  19.589   2.758  21.332 -0.0055 -0.2933 -0.0039
38885W        W47485   5.263   6.064   5.726 -0.0244 -0.1727 -0.1790
38886W        W47486   3.746   3.854  26.002  0.1054  0.0922 -0.0389
38887W        W47487  18.172   2.671  32.731  0.0376 -0.2919 -0.1468
38888W        W47488  16.884   2.401  31.768 -0.2426 -0.0817 -0.0923
38889W        W47489   2.228   0.275  27.328  0.2720 -0.1475 -0.1226
38890W        W47490  12.416   1.817   5.481  0.1274 -0.2648 -0.0192
38891W        W47491  23.873   1.713  11.834 -0.1667  0.0847  0.1185
38892W        W47492   7.347   6.852   5.707  0.1490  0.1622  0.1089
38893W        W47493  11.120   1.207  21.122 -0.2006 -0.0662 -0.0337
38894W        W47494   5.154   7.720   1.119 -0.0495 -0.3726  0.1451
38895W        W47495  19.467   3.577  27.770 -0.1592  0.2004 -0.1741
38896W        W47496  15.080   5.954  28.761  0.1155 -0.0254  0.2399
38897W        W47497  21.836   3.332  22.036  0.3842  0.2546 -0.2726
38898W        W47498  19.686   2.707  30.955 -0.0533 -0.0020 -0.2061
38899W        W47499   7.570   3.351  10.172  0.0533 -0.1052 -0.0228
38900W        W47500  13.449   2.991  18.598 -0.1895  0.0514 -0.4179
38901W        W47501   5.714   5.284  15.527 -0.0374 -0.1822  0.0202
38902W        W47502  14.993   7.316  19.797 -0.0273 -0.0632 -0.3099
38903W        W47503   4.831   7.410  16.338  0.0979  0.1883 -0.3275
38904W        W47504   0.395   0.952  13.808  0.1560 -0.3629  0.1581
38905W        W47505  11.269   3.170  31.091  0.0599 -0.3520 -0.0030
38906W        W47506  13.467   3.324   1.850  0.0339  0.3502  0.0992
38907W        W47507  19.308   2.801   1.928 -0.1357  0.2257  0.2084
38908W        W47508  17.059   5.704  15.770 -0.1288  0.3059 -0.0780
38909W        W47509   9.282   5.954  26.061 -0.0408 -0.0964  0.0724
38910W        W47510  18.209   2.609   0.280 -0.0184 -0.0298  0.1501
38911W        W47511  17.887   0.947   2.467  0.1397 -0.1134 -0.4579
38912W        W47512  23.786   1.337  26.922 -0.0853  0.1682 -0.3209
38913W        W47513   7.524   2.946  23.667  0.2196  0.0024  0.0222
38914W        W47514   9.105   5.723  13.699  0.1413 -0.1710  0.0606
38915W        W47515  12.780   1.878  29.786 -0.3050 -0.0268  0.0214
38916W        W47516   2.819   5.826   5.690  0.0941 -0.1718  0.0289
38917W        W47517  24.442   2.780  24.603  0.1323 -0.0888 -0.0727
38918W        W47518   9.571   6.942   2.944  0.1930 -0.2976 -0.2074
38919W        W47519   8.516   6.650  31.976  0.1443 -0.1576  0.1276
38920W        W47520   2.111   4.423  16.640  0.1401  0.0720 -0.1218
38921W        W47521   8.369   3.948  26.744  0.1268 -0.1409  0.0611
38922W        W47522  17.853   0.176  18.312  0.0095 -0.0536  0.1313
38923W        W47523  14.692   4.508   3.803 -0.0922 -0.2532 -0.2136
38924W        W47524   4.448   4.966  25.233  0.3935 -0.3125  0.0327
38925W        W47525   0.203   1.918  13.726  0.1517  0.0900 -0.0644
38926W        W47526   7.505   0.006   9.451 -0.0926 -0.1435 -0.0695
38927W        W47527  13.344   2.750   0.914 -0.1496  0.3101  0.2015
38928W        W47528  24.863   7.348  11.152  0.0180 -0.3542  0.2511
38929W        W47529  20.411   1.234  30.086  0.1225  0.2012  0.0880
38930W        W47530  11.623   7.688  22.315  0.2207 -0.1462 -0.0492
38931W        W47531   3.288   6.509  24.576  0.1255 -0.0126 -0.1049
38932W        W47532  24.100   6.074  21.680 -0.1541 -0.2203  0.1945
38933W        W47533   9.999   4.814  22.595  0.0162  0.0649 -0.1640
38934W        W47534  24.062   2.394  26.871  0.1159 -0.2053 -0.0557
38935W        W47535  15.815   7.070  15.829  0.2833 -0.0303  0.3405
38936W        W47536  12.677   1.571  20.085 -0.1112 -0.1450  0.1337
38937W        W47537  20.243   0.708   1.800 -0.0133  0.2632  0.2523
38938W        W47538   5.195   1.968  10.687  0.1273 -0.0372 -0.1901
38939W        W47539  16.602   3.693  24.102 -0.1939  0.0812 -0.1523
38940W        W47540   2.666   7.213   4.259  0.1183  0.3902 -0.0330
38941W        W47541  18.975   6.162  18.137  0.4284 -0.4310  0.2584
38942W        W47542  11.146   2.893  12.678 -0.1539  0.2126 -0.2304
38943W        W47543  13.199   2.752  21.028  0.1864 -0.1443  0.1528
38944W        W47544   7.300   1.670   7.228  0.0959 -0.1681 -0.2140
38945W        W47545  24.267   7.276   3.205  0.2450 -0.2544  0.2265
38946W        W47546  19.951   5.065  19.733  0.2719  0.0525 -0.0137
38947W        W47547   2.624   7.358   7.952 -0.0032 -0.0648 -0.3866
38948W        W47548  16.201   4.043   5.410  0.2068  0.0493  0.1897
38949W        W47549   1.551   3.883  16.200 -0.3689  0.0562 -0.1907
38950W        W47550  14.609   5.952  10.563 -0.2720  0.0455 -0.0060
38951W        W47551  13.544   2.764  16.742  0.1746  0.0648 -0.2241
38952W        W47552  10.677   1.641   7.298  0.0417  0.2754  0.4287
38953W        W47553  12.467   0.459  26.622  0.1568 -0.1949  0.0519
38954W        W47554   4.112   6.737   6.948 -0.0323 -0.1510  0.2580
38955W        W47555  17.706   7.733   7.345 -0.2333 -0.0141 -0.0878
38956W        W47556  12.179   2.850  21.615  0.0054 -0.0293 -0.2740
38957W        W47557  19.597   3.182  19.592 -0.0609 -0.1637 -0.2683
38958W        W47558  12.894   0.167  30.161  0.0094  0.0089  0.0650
38959W        W47559   9.295   7.339  26.237  0.4051  0.0955  0.4712
38960W        W47560   8.487   0.230  12.941  0.0276  0.2230 -0.1879
38961W        W47561   3.952   0.194  26.291  0.1343  0.2730 -0.0594
38962W        W47562  12.439   5.207  30.624 -0.0417 -0.1139 -0.1580
38963W        W47563  19.649   4.326  18.146 -0.1620 -0.0409  0.0098
38964W        W47564  14.542   0.356  28.675 -0.0414 -0.0755 -0.1496
38965W        W47565  12.867   4.118  24.661 -0.2004  0.2623  0.1436
38966W        W47566  19.284   0.376  27.605  0.1737 -0.0095  0.0474
38967W        W47567  23.579   2.428   8.967 -0.2267  0.3236 -0.2314
38968W        W47568   3.993   4.289  15.087  0.0875 -0.4293 -0.0347
38969W        W47569  11.778   7.177   6.048 -0.1076 -0.0807  0.2427
38970W        W47570   8.411   6.598  23.584  0.0646 -0.2029 -0.2887
38971W        W47571  18.919   4.141  19.242 -0.3767  0.1136 -0.0064
38972W        W47572  14.976   0.569  16.761  0.1273  0.1800 -0.1687
38973W        W47573  15.895   2.959  31.014 -0.0850  0.4349  0.2703
38974W        W47574   6.495   6.034   8.211 -0.1871  0.1141 -0.0890
38975W        W47575  18.458   2.291   5.194 -0.1928  0.2108 -0.0254
38976W        W47576  13.628   3.225  22.285 -0.1475  0.1089 -0.2113
38977W        W47577   1.006   5.449  13.662  0.0133  0.2722  0.2902
38978W        W47578  19.880   0.690  22.288  0.0919 -0.0634  0.0895
38979W        W47579  21.075   1.365  10.766 -0.1353  0.2970  0.0198
38980W        W47580  20.168   3.289  30.159  0.0337 -0.1711  0.4070
38981W        W47581  22.864   1.029  14.023  0.2178 -0.0807 -0.0626
38982W        W47582  14.212   4.348  22.337 -0.0858  0.0890  0.0400
38983W        W47583   3.176   5.667   8.292  0.1102 -0.1353 -0.2323
38984W        W47584  18.053   4.684  24.873  0.2690  0.0054  0.1513
38985W        W47585  20.193   6.493   6.150  0.1588  0.0883  0.0821
38986W        W47586   3.225   7.154   5.751  0.1761 -0.0927  0.1902
38987W        W47587  14.186   1.825   2.320  0.0114 -0.0469  0.0910
38988W        W47588   5.930   4.030  16.247 -0.1811  0.0500 -0.1035
38989W        W47589   8.673   6.448   5.689  0.2197 -0.0325  0.2103
38990W        W47590  15.041   2.106  19.047  0.0462  0.0923  0.0915
38991W        W47591  12.585   6.543  27.422 -0.0112 -0.1007 -0.0903
38992W        W47592  22.030   7.682   9.888  0.3532  0.1406  0.2114
38993W        W47593  17.077   4.057  16.867 -0.0806  0.1240 -0.0183
38994W        W47594  14.647   3.610  32.557  0.0665 -0.0368 -0.1899
38995W        W47595  10.297   6.146  13.127 -0.0411 -0.0860  0.3944
38996W        W47596  10.731   2.515  10.111 -0.2393 -0.0067  0.1238
38997W        W47597  21.261   7.603  22.596  0.0142  0.1563 -0.0670
38998W        W47598   5.496   1.528  14.088  0.4016  0.0275  0.0516
38999W        W47599   9.227   0.136   0.139 -0.2957 -0.0308 -0.1051
39000W        W47600   5.974   4.018  23.929 -0.0897 -0.0019 -0.0329
39001W        W47601   4.202   1.775   1.003 -0.0718 -0.0173  0.1103
39002W        W47602   9.556   0.656  13.521  0.0556  0.0684  0.0789
39003W        W47603  15.416   3.955   9.179  0.2400 -0.0569 -0.1472
39004W        W47604  22.040   4.632  23.865  0.0352  0.0259 -0.3353
39005W        W47605  22.632   1.025  12.765 -0.0461  0.0927 -0.2544
39006W        W47606   0.921   3.396   5.261 -0.1991  0.2279 -0.0670
39007W        W47607  13.694   7.132  21.901  0.3715 -0.0608  0.0549
39008W        W47608  11.829   0.719   2.957  0.1557  0.0186  0.0634
39009W        W47609  15.754   2.494   2.923 -0.1480  0.0335  0.2515
39010W        W47610  12.653   1.719  19.285  0.1774 -0.3242 -0.0879
39011W        W47611   8.284   1.173  22.979  0.1793  0.0575  0.2146
39012W        W47612   0.326   6.233  23.363  0.3441 -0.0720 -0.0728
39013W        W47613  22.012   0.709   3.781  0.1412 -0.0227 -0.0054
39014W        W47614  10.845   3.774  26.418  0.1140  0.1203 -0.3266
39015W        W47615   7.106   4.807  22.133  0.0662  0.0707  0.2188
39016W        W47616  19.334   0.300   1.682 -0.0261  0.1795 -0.0595
39017W        W47617   5.184   2.799   3.010 -0.2124 -0.0361  0.0439
39018W        W47618  16.870   4.005  16.392  0.1461  0.0438  0.1266
39019W        W47619  10.134   1.080  19.829  0.0298  0.1767  0.2048
39020W        W47620   3.750   3.226  13.805 -0.1271 -0.1142  0.1878
39021W        W47621   5.804   7.260   3.711  0.3416  0.0638  0.0960
39022W        W47622   3.138   0.742  23.180  0.2236 -0.0378 -0.1321
39023W        W47623   6.446   6.224  11.579  0.3259  0.1750  0.2797
39024W        W47624  14.428   7.548   0.974  0.0459  0.0877 -0.0115
39025W        W47625  13.705   2.690  22.425  0.3491  0.1168 -0.2061
39026W        W47626  11.599   5.170  23.714 -0.2521  0.0548  0.0496
39027W        W47627  13.654   0.354  23.969  0.1450 -0.1407 -0.1731
39028W        W47628   5.146   1.660   4.212 -0.4661 -0.2670  0.1578
39029W        W47629   4.806   7.538  14.203 -0.1898 -0.1641 -0.0976
39030W        W47630   5.136   3.739   8.490  0.0140 -0.0176  0.0158
39031W        W47631   8.434   1.327   1.743  0.1097 -0.2022  0.1142
39032W        W47632  10.042   1.271   0.024 -0.0524  0.1151  0.1630
39033W        W47633  10.561   0.632   9.721  0.0222  0.1936 -0.0818
39034W        W47634  22.913   3.584  26.582  0.0810 -0.1152 -0.4057
39035W        W47635   2.027   0.403  17.311 -0.1035 -0.0640  0.0616
39036W        W47636   4.859   0.935   3.237  0.1483 -0.1921 -0.0833
39037W        W47637  12.607   4.923  20.721 -0.1607 -0.1632  0.2720
39038W        W47638  22.142   1.186  21.776  0.4371  0.1026  0.2297
39039W        W47639  13.499   3.254  25.473 -0.2327  0.1939 -0.4120
39040W        W47640  24.218   6.938  27.725 -0.0967  0.0636 -0.2794
39041W        W47641  21.288   0.075  21.524  0.1405 -0.0477  0.1374
39042W        W47642   0.977   4.645  31.807  0.0077 -0.2437 -0.0507
39043W        W47643  22.032   3.679  30.075 -0.0165  0.0839 -0.2140
39044W        W47644  18.886   0.231  18.062 -0.1827  0.0988  0.2832
39045W        W47645   6.871   4.823  26.082 -0.1311  0.2823  0.0897
39046W        W47646   3.085   0.877   9.953 -0.1281 -0.0525 -0.1380
39047W        W47647  10.049   5.451  28.123 -0.0436 -0.0915 -0.0269
39048W        W47648  14.215   1.968  16.952 -0.1314  0.1953 -0.0111
39049W        W47649  24.496   6.465  12.371 -0.2260 -0.1145 -0.4797
39050W        W47650   6.260   0.895  16.467  0.2547  0.4141  0.0468
39051W        W47651   7.758   3.973  14.442 -0.1568 -0.1175  0.0399
39052W        W47652   7.398   0.825  12.523  0.0265 -0.1144  0.1610
39053W        W47653  21.011   3.336  19.020  0.2263 -0.0381 -0.1065
39054W        W47654   5.267   5.578  13.017 -0.1831  0.3024 -0.2917
39055W        W47655  20.455   0.030  22.336  0.0965 -0.0462 -0.2550
39056W        W47656   8.830   5.188   3.658 -0.0486  0.1172  0.0653
39057W        W47657   1.998   0.942  28.142  0.2017  0.0832  0.1293
39058W        W47658   3.250   1.612  26.105  0.3545  0.0177  0.2413
39059W        W47659  23.984   2.854   6.027 -0.3121  0.1133 -0.0116
39060W        W47660  20.585   4.413  27.561 -0.0394  0.2314 -0.1713
39061W        W47661  14.349   5.008   6.764  0.0516 -0.0185  0.3140
39062W        W47662  18.255   1.512  32.322 -0.1175 -0.2727 -0.1464
39063W        W47663  14.247   6.234  29.365  0.0779 -0.0929 -0.1349
39064W        W47664  19.902   3.205  23.019  0.0523 -0.3381 -0.0744
39065W        W47665  13.741   6.827  29.979 -0.5836 -0.0753 -0.1766
39066W        W47666  18.733   3.690   2.642 -0.1343 -0.2373 -0.2353
39067W        W47667  16.037   3.885  22.506  0.3416 -0.1117 -0.0349
39068W        W47668   9.112   2.498  30.260 -0.0671 -0.2422  0.0894
39069W        W47669   4.845   5.908  17.537 -0.0747 -0.1112  0.6675
39070W        W47670   5.422   2.182   9.056  0.0526 -0.3109  0.2963
39071W        W47671  11.537   0.509  10.482  0.0091 -0.0546  0.0532
39072W        W47672   8.066   6.328  21.817 -0.0598  0.1908 -0.0254
39073W        W47673   0.288   1.600  27.932  0.0713 -0.3016  0.3499
39074W        W47674  20.696   3.062   0.324 -0.1621  0.0579 -0.3112
39075W        W47675  24.031   6.968   0.150 -0.1942 -0.1491 -0.1624
39076W        W47676   4.991   3.170   4.816 -0.3944  0.4121  0.0312
39077W        W47677  18.016   1.590  17.367  0.1922 -0.1886 -0.0794
39078W        W47678   3.659   3.530  11.280 -0.0789  0.1661 -0.0079
39079W        W47679   4.499   4.800   3.905 -0.1249 -0.1541  0.0639
39080W        W47680  14.753   1.552  21.219  0.0889 -0.1691 -0.0725
39081W        W47681   6.797   2.386   3.455  0.0354  0.1808 -0.5605
39082W        W47682   9.613   5.510  11.932 -0.0213  0.1468  0.0546
39083W        W47683  15.019   1.878   5.855 -0.0136  0.0770 -0.0076
39084W        W47684   2.743   2.287  16.550  0.2671 -0.3457  0.2742
39085W        W47685  18.549   0.432  10.073  0.0070  0.1923  0.0528
39086W        W47686  13.088   2.042  25.020 -0.0124 -0.2630  0.2186
39087W        W47687  21.747   5.952  27.793  0.1197  0.2751  0.1234
39088W        W47688   3.701   5.299   4.555 -0.1105 -0.0181 -0.4292
39089W        W47689  11.416   0.277  32.111 -0.1055  0.0493 -0.2038
39090W        W47690  10.484   1.221   4.074  0.2722  0.0982 -0.1366
39091W        W47691  18.764   7.481  30.537 -0.0345 -0.1195  0.0437
39092W        W47692   8.429   0.330  22.929  0.2409 -0.1310  0.1181
39093W        W47693   9.126   5.622  30.886  0.1404  0.1282  0.2020
39094W        W47694   7.521   7.795  29.687 -0.0677  0.0119  0.1256
39095W        W47695   8.995   2.208   0.289 -0.2168 -0.0441  0.0463
39096W        W47696   8.928   6.446  26.228  0.0456 -0.0145  0.0800
39097W        W47697   7.626   1.368   1.452  0.1465  0.0232  0.0655
39098W        W47698  16.486   0.009  32.611  0.2153  0.0017 -0.0450
39099W        W47699  10.568   0.092   6.711 -0.0985  0.0919  0.1325
39100W        W47700  11.535   1.036  22.534  0.0965  0.0667  0.0011
39101W        W47701  13.671   5.317   4.857  0.0313 -0.0208  0.1985
39102W        W47702   8.691   5.373  10.548  0.3312  0.3040  0.0960
39103W        W47703   5.515   1.526  16.923  0.0669 -0.0192 -0.0322
39104W        W47704  13.068   7.733  31.492  0.2837  0.1168 -0.0501
39105W        W47705  18.709   1.410  22.525 -0.0246 -0.0566  0.1720
39106W        W47706   5.993   7.331  18.383 -0.0137  0.2322 -0.1406
39107W        W47707   4.697   1.169   9.933  0.3443 -0.1142 -0.1747
39108W        W47708  15.402   2.202  10.003  0.1506  0.0912  0.1402
39109W        W47709  14.073   2.708   6.317  0.0394  0.0184 -0.3610
39110W        W47710   3.552   6.070  27.056 -0.0772  0.0133 -0.1006
39111W        W47711  22.827   0.277  28.727 -0.2713 -0.0649 -0.0282
39112W        W47712  10.793   5.197   6.377  0.1761 -0.1693 -0.1965
39113W        W47713   4.276   4.004  24.665 -0.0628 -0.5396  0.1595
39114W        W47714   4.038   4.715  27.351 -0.0672 -0.2888  0.0004
39115W        W47715   1.278   0.431   9.367  0.0714 -0.2484  0.0081
39116W        W47716  11.286   3.151  30.532 -0.3527 -0.0013 -0.1458
39117W        W47717  12.654   2.606  33.022 -0.0497 -0.1282  0.1030
39118W        W47718  13.635   2.388   0.522  0.4343  0.1086  0.2236
39119W        W47719  12.331   3.106  32.845 -0.2341 -0.3137  0.0477
39120W        W47720  16.578   5.340  18.939 -0.2686  0.0636 -0.2689
39121W        W47721  12.029   0.792  32.955 -0.0182 -0.0152 -0.0713
39122W        W47722  18.094   5.956  25.453 -0.1714 -0.2855 -0.1218
39123W        W47723  14.847   4.910  17.443 -0.0239 -0.1488  0.3364
39124W        W47724  18.517   2.498   1.677 -0.2722  0.2822 -0.1292
39125W        W47725  10.756   2.084  19.880  0.0827 -0.0019 -0.1104
39126W        W47726  14.226   6.851   0.312 -0.1539 -0.0050 -0.1641
39127W        W47727  18.401   2.827  30.192 -0.0084  0.1352  0.2936
39128W        W47728  22.417   4.582   3.614  0.1562  0.2779  0.0174
39129W        W47729  19.240   1.256  27.176 -0.0871  0.1789  0.2279
39130W        W47730  13.521   0.567  10.327 -0.0325  0.3212 -0.1475
39131W        W47731   6.266   5.544  24.864 -0.0469 -0.2066 -0.3552
39132W        W47732   9.668   1.068  28.295  0.2626 -0.1488  0.1374
39133W        W47733  11.774   6.415   3.205 -0.4630 -0.0915  0.0067
39134W        W47734  20.697   2.669  31.527  0.0318 -0.3921  0.0507
39135W        W47735   2.916   7.044  25.828 -0.2577  0.1592 -0.0413
39136W        W47736  14.200   4.525   8.708  0.1709  0.2261 -0.3120
39137W        W47737   9.055   6.916  29.889  0.0978 -0.2815  0.0539
39138W        W47738   4.523   7.622  31.685  0.0550 -0.1770 -0.2263
39139W        W47739  16.676   3.358  15.685  0.0111  0.1173  0.1119
39140W        W47740  19.232   2.632  32.139 -0.0392  0.3307  0.0380
39141W        W47741  10.014   0.995  12.749 -0.0060  0.1714  0.1888
39142W        W47742  16.989   6.736  30.235  0.0497  0.0896  0.1569
39143W        W47743  24.459   3.771   4.898  0.2119  0.1136 -0.1358
39144W        W47744   1.598   6.347  10.590 -0.2557  0.0690  0.1958
39145W        W47745  12.243   3.876  25.679  0.0441 -0.1994 -0.0581
39146W        W47746  16.727   7.237   5.632 -0.0706 -0.3182 -0.0485
39147W        W47747  24.298   6.018  15.107  0.0594  0.0787 -0.0119
39148W        W47748  16.116   0.812   1.675 -0.0311 -0.2595  0.3619
39149W        W47749  22.857   5.363   2.175  0.2665  0.1093  0.0491
39150W        W47750   4.059   7.651   3.860 -0.1297 -0.0921  0.2320
39151W        W47751   9.542   3.059  30.864  0.1535 -0.2380 -0.3008
39152W        W47752   5.686   3.852   5.901  0.1260  0.1410 -0.2122
39153W        W47753  20.069   4.330  10.262 -0.4949 -0.4748 -0.0785
39154W        W47754   6.541   6.759   0.755  0.0236 -0.0143  0.0903
39155W        W47755  21.192   7.520  10.475 -0.0152 -0.2431 -0.0216
39156W        W47756  16.835   1.099   5.107 -0.1503  0.0881 -0.2633
39157W        W47757  14.550   5.335   8.213  0.3202 -0.1753  0.1870
39158W        W47758  22.349   4.425   8.979  0.0379 -0.2322  0.1230
39159W        W47759   8.539   3.193   6.433 -0.0472 -0.1515 -0.0494
39160W        W47760  18.344   1.027   6.634  0.0620 -0.2741 -0.1052
39161W        W47761   7.543   6.811  13.082  0.0670 -0.0833  0.0879
39162W        W47762  20.275   5.611  20.708  0.2891 -0.0869  0.2179
39163W        W47763   2.000   3.968  13.751  0.3026  0.2943 -0.2247
39164W        W47764   6.992   1.838   4.897 -0.0261  0.1819 -0.0414
39165W        W47765  24.947   2.229  15.214  0.1360  0.1775 -0.0971
39166W        W47766  20.962   1.923   9.100  0.2656  0.1064  0.1977
39167W        W47767  22.319   7.015  23.576 -0.0219 -0.1853 -0.2274
39168W        W47768  16.022   6.032   0.573 -0.0556  0.2430  0.0306
39169W        W47769   4.388   2.222  15.173  0.1301  0.0802  0.2882
39170W        W47770  24.570   2.261  14.298 -0.4004  0.0645 -0.2390
39171W        W47771   2.109   3.091   0.020 -0.2591 -0.0832  0.1385
39172W        W47772   6.310   5.228   1.189  0.1071 -0.2027 -0.0350
39173W        W47773  20.417   2.530  27.193 -0.1323  0.1009 -0.5567
39174W        W47774   9.448   0.539  32.688 -0.1187  0.0660 -0.0793
39175W        W47775   4.509   6.968  29.136  0.0335 -0.0766 -0.0576
39176W        W47776  16.769   0.282   0.772 -0.0645 -0.1960 -0.1362
39177W        W47777   1.767   0.323  13.034 -0.2167  0.0589  0.0341
39178W        W47778  17.965   7.491   9.878  0.0209  0.0447 -0.0463
39179W        W47779  19.210   0.627  10.300 -0.1080 -0.0853 -0.2101
39180W        W47780  14.801   0.517   6.175 -0.1728  0.1027 -0.2246
39181W        W47781   7.427   6.865   0.932 -0.3578 -0.0693 -0.2568
39182W        W47782  13.878   4.995   0.986 -0.2955  0.2754 -0.3680
39183W        W47783  23.722   2.337  20.773  0.3324 -0.1226  0.0686
39184W        W47784   7.352   7.484  28.728 -0.2582  0.0485 -0.2263
39185W        W47785  10.356   2.499   6.235  0.1225 -0.0554  0.2189
39186W        W47786  18.401   3.968   0.794 -0.2032  0.2869 -0.1686
39187W        W47787  15.280   2.846   0.472  0.0731 -0.0836  0.1062
39188W        W47788  14.117   1.014   4.443  0.0886 -0.0322  0.0319
39189W        W47789  23.930   3.605   0.618 -0.1713  0.0679 -0.1519
39190W        W47790   9.112   2.746   1.155 -0.0135  0.1315 -0.1489
39191W        W47791   3.048   0.390  13.484  0.2350 -0.1695 -0.3458
39192W        W47792  16.614   5.977  15.904  0.0346 -0.1230  0.1182
39193W        W47793   2.245   6.140  32.048  0.0398  0.1929  0.1418
39194W        W47794  22.931   6.348  13.243  0.1115  0.0112  0.1409
39195W        W47795   0.513   6.454  31.807 -0.0901 -0.0115 -0.1318
39196W        W47796   2.705   7.680   1.570 -0.0469 -0.0065 -0.1421
39197W        W47797  21.382   6.160   7.302  0.0258 -0.0406  0.0375
39198W        W47798  17.493   0.167  31.640 -0.2026 -0.1014  0.1448
39199W        W47799   8.408   1.698   5.187  0.0795 -0.4842  0.0943
39200W        W47800  16.391   7.689  22.416 -0.3409  0.2153  0.1088
39201W        W47801  19.936   4.911  29.724  0.6611 -0.1163 -0.1016
39202W        W47802  19.340   5.483   7.014  0.2064  0.1522  0.0858
39203W        W47803  10.922   7.077  10.329 -0.1365 -0.2209  0.1425
39204W        W47804   4.578   1.929   6.146  0.3009 -0.1632 -0.2975
39205W        W47805  10.484   6.503  27.395  0.2474 -0.0099  0.0112
39206W        W47806  17.405   6.905  26.878 -0.4323 -0.4468  0.0324
39207W        W47807  17.269   7.625  20.757 -0.3187 -0.0059  0.1204
39208W        W47808  22.993   6.777  30.449  0.1245  0.0556  0.0080
39209W        W47809  21.198   5.634  25.541  0.1043 -0.0408 -0.2016
39210W        W47810   5.304   0.562  13.377  0.1638 -0.1370 -0.0287
39211W        W47811   5.736   6.459   2.096 -0.0614 -0.0036 -0.2093
39212W        W47812   6.813   2.723  30.899 -0.3092 -0.0310 -0.0477
39213W        W47813  20.389   6.026  24.978 -0.0951  0.1467 -0.2048
39214W        W47814  17.030   7.693  24.071 -0.1659 -0.1136 -0.0949
39215W        W47815   2.531   6.812   7.099  0.1171  0.2520 -0.3880
39216W        W47816   2.005   6.497  22.086 -0.2437  0.2619 -0.1815
39217W        W47817  21.008   1.672  24.689  0.1908  0.1785  0.1463
39218W        W47818  16.705   5.782  25.557 -0.1579 -0.3141  0.1880
39219W        W47819  17.839   3.621  30.568  0.1150  0.0781 -0.2109
39220W        W47820  15.065   2.968  30.274 -0.1289 -0.2582 -0.1951
39221W        W47821  13.537   1.310  21.214  0.0103  0.1884  0.2336
39222W        W47822  22.277   5.228  32.164 -0.3954 -0.1880 -0.2237
39223W        W47823   9.150   3.389   3.949 -0.4661 -0.1843 -0.0219
39224W        W47824   2.573   7.524   2.603 -0.3125 -0.0469 -0.0894
39225W        W47825  22.272   2.825  23.725  0.1294  0.1500 -0.0997
39226W        W47826  24.745   4.696  10.085 -0.2582 -0.0385 -0.0595
39227W        W47827  23.839   5.143  11.030  0.2241 -0.0318 -0.2051
39228W        W47828  21.302   6.382  24.308 -0.0986 -0.0342 -0.0654
39229W        W47829  16.679   4.596   3.539  0.1554 -0.1427 -0.0464
39230W        W47830  19.789   6.152  28.554 -0.0371 -0.0746 -0.1834
39231W        W47831  12.225   0.582   2.672  0.0351 -0.1479 -0.0612
39232W        W47832  24.678   0.228   7.262  0.2031 -0.4475 -0.0545
39233W        W47833   1.891   4.010  24.455 -0.1038  0.1558 -0.0490
39234W        W47834  19.634   0.962  10.724 -0.0732  0.1442 -0.2405
39235W        W47835  17.432   2.421   5.068  0.0276 -0.0502 -0.2828
39236W        W47836   2.258   7.489  10.092  0.0066 -0.3359 -0.0625
39237W        W47837  22.111   1.081   6.980 -0.0501  0.2004  0.3447
39238W        W47838   8.807   5.852  12.394  0.0085  0.2553  0.0440
39239W        W47839  18.284   2.015   8.203 -0.1757  0.2264 -0.5289
39240W        W47840   8.125   1.015  30.592  0.0144 -0.0846 -0.1253
39241W        W47841   3.672   0.059  14.897 -0.0091  0.0278  0.0468
39242W        W47842   3.735   0.809  16.131  0.4095 -0.0883 -0.1486
39243W        W47843   3.772   4.293   4.860 -0.0879 -0.0633  0.1007
39244W        W47844  11.963   0.543  20.081  0.1584 -0.0359 -0.3950
39245W        W47845   8.496   6.827  24.035  0.1818  0.1046 -0.6049
39246W        W47846  14.871   2.920  20.967  0.0322 -0.2042 -0.0843
39247W        W47847  17.165   5.639  22.589 -0.0301 -0.3368 -0.1402
39248W        W47848   4.987   2.772   0.322  0.0352 -0.1294  0.0050
39249W        W47849  15.018   5.162   6.196  0.1887 -0.0169  0.0981
39250W        W47850  14.890   3.178  26.193  0.0263 -0.1887  0.0581
39251W        W47851   9.109   5.442  32.418  0.0382 -0.0992  0.0919
39252W        W47852   4.738   6.899   1.189 -0.0179 -0.0120  0.0567
39253W        W47853   0.464   0.619  11.735  0.2442  0.4984 -0.2164
39254W        W47854   3.058   5.040   5.783 -0.0032 -0.1105 -0.0565
39255W        W47855  21.718   6.643   2.543  0.0038  0.0405  0.1098
39256W        W47856  20.965   5.335   0.370 -0.1314 -0.0773  0.3063
39257W        W47857   3.988   1.037  17.593  0.0123  0.0094 -0.1233
39258W        W47858   3.215   5.086  15.197  0.3263 -0.1542  0.0307
39259W        W47859  24.368   4.216  25.095 -0.2044 -0.0539 -0.6350
39260W        W47860  22.214   5.873  26.990  0.3275  0.0069 -0.0988
39261W        W47861   7.297   2.655   7.533 -0.0011 -0.4494 -0.0546
39262W        W47862   8.327   2.425  28.174 -0.0448 -0.2727  0.2528
39263W        W47863   2.189   6.408  10.032 -0.2023  0.0677 -0.1144
39264W        W47864   5.172   2.624   6.457 -0.0604  0.0412 -0.2317
39265W        W47865  16.329   5.036   2.463 -0.0442  0.1425 -0.4088
39266W        W47866   8.878   3.969   4.177 -0.1721  0.0249 -0.2301
39267W        W47867   8.877   0.743  32.348  0.0030  0.2492  0.0287
39268W        W47868  24.186   0.104   1.177  0.1856 -0.1775 -0.0662
39269W        W47869   5.743   3.045  32.157 -0.3437  0.2802  0.1949
39270W        W47870   9.186   1.445  32.140  0.0595  0.0633  0.2403
39271W        W47871  18.538   0.424  30.531  0.0698 -0.3052 -0.1176
39272W        W47872  14.165   6.121  21.721  0.0891 -0.0344 -0.0238
39273W        W47873  15.325   0.619  24.618 -0.2184 -0.0950 -0.0014
39274W        W47874  12.949   2.647  27.794 -0.0461 -0.2627 -0.0250
39275W        W47875  15.792   3.602  32.721  0.2342 -0.0422 -0.1085
39276W        W47876   7.125   5.961  25.185  0.0511  0.2249 -0.1275
39277W        W47877  23.619   0.577  13.476 -0.1436 -0.0128 -0.1149
39278W        W47878   4.020   6.687  31.473  0.1019 -0.1632 -0.0247
39279W        W47879   0.847   5.457   2.596 -0.0148 -0.1625 -0.1495
39280W        W47880  15.052   3.542  10.768 -0.1725  0.0396  0.0937
39281W        W47881  24.890   6.385  29.480 -0.4550 -0.2873 -0.2740
39282W        W47882   9.702   3.826   1.556  0.1417 -0.2015  0.0873
39283W        W47883   7.949   1.900   4.403  0.1272 -0.2040 -0.0863
39284W        W47884   0.388   4.449   8.828  0.4474  0.2220 -0.2860
39285W        W47885   3.710   3.422   0.027 -0.3231 -0.2635  0.0205
39286W        W47886  19.026   3.608   5.195 -0.1555 -0.0402 -0.1748
39287W        W47887  11.957   2.429  10.696 -0.0040  0.3851  0.0620
39288W        W47888   8.519   2.944  21.954 -0.0831 -0.0604  0.1167
39289W        W47889   2.009   1.546  29.357  0.2227 -0.1019 -0.2223
39290W        W47890  20.468   3.053  24.422  0.1315  0.0241  0.1515
39291W        W47891   3.078   1.991  15.709 -0.0956  0.0453  0.1231
39292W        W47892   0.823   7.008  22.842  0.1291 -0.1754  0.0149
39293W        W47893  16.774   5.773   7.890  0.0901 -0.0249  0.1420
39294W        W47894   2.171   5.013   0.630  0.2708 -0.0096 -0.2280
39295W        W47895   5.496   0.119  32.218 -0.1936  0.2640  0.0935
39296W        W47896   1.322   1.109  13.581  0.0485  0.2658 -0.0226
39297W        W47897   3.060   3.605   0.904 -0.0674 -0.1342  0.1933
39298W        W47898  21.269   7.551  28.309  0.1218  0.1361 -0.1865
39299W        W47899  21.553   2.277   3.521  0.1829  0.2713 -0.2526
39300W        W47900  15.628   6.082  22.104 -0.0276 -0.1382 -0.0015
39301W        W47901   6.091   2.676  14.798 -0.1191 -0.2123  0.2632
39302W        W47902  24.435   0.504  32.214  0.1106  0.0482 -0.1703
39303W        W47903  13.851   2.709  29.764  0.1229  0.1962  0.2491
39304W        W47904   1.630   4.617  22.182  0.2854  0.1908 -0.0038
39305W        W47905  17.314   0.508  15.556  0.1247 -0.0031  0.1513
39306W        W47906  23.840   4.443  20.829  0.0497  0.1257 -0.1363
39307W        W47907  16.242   7.670  30.017 -0.1478  0.1578  0.0084
39308W        W47908  18.203   2.355   9.907  0.1360  0.0159  0.1385
39309W        W47909  12.995   3.526   7.701 -0.0443 -0.1229  0.0093
39310W        W47910   2.588   2.767   0.922  0.0264  0.1334  0.1992
39311W        W47911  11.324   0.502  24.942 -0.1949  0.0514  0.3564
39312W        W47912   9.808   4.164  30.197 -0.1218  0.0181 -0.0419
39313W        W47913  24.842   3.064  24.305  0.1322 -0.0557  0.1031
39314W        W47914   5.127   4.725   7.141 -0.0404  0.3087  0.1199
39315W        W47915   8.196   1.343  12.622  0.1536 -0.0309 -0.0343
39316W        W47916  13.397   1.533   2.649 -0.2791 -0.3517  0.3141
39317W        W47917  11.623   0.764   1.911  0.3105  0.3265 -0.1800
39318W        W47918  11.922   3.161   1.820 -0.2357 -0.2167  0.1357
39319W        W47919  22.949   6.904   3.040  0.3394 -0.0542  0.1158
39320W        W47920   4.642   0.339  18.858  0.1413 -0.0192  0.0433
39321W        W47921  16.960   2.265  16.340  0.0472  0.0137 -0.2475
39322W        W47922   5.043   3.615   0.122 -0.2048  0.1441 -0.0434
39323W        W47923  16.887   4.404  22.420  0.1305  0.0812 -0.1515
39324W        W47924  14.789   0.562  32.638  0.1859 -0.1342 -0.1076
39325W        W47925  12.746   5.090  31.549 -0.0990 -0.0582  0.0155
39326W        W47926   7.899   1.806  27.733 -0.0170 -0.0875  0.0753
39327W        W47927  11.565   2.386  18.517 -0.0790 -0.0752  0.2206
39328W        W47928  11.953   1.293  22.883  0.0345  0.1759 -0.0930
39329W        W47929  18.119   6.928  25.052  0.1800  0.3603 -0.2817
39330W        W47930  12.850   6.678   8.900  0.0585 -0.2734 -0.0310
39331W        W47931  13.528   0.768   1.121  0.0090  0.0286 -0.2311
39332W        W47932  19.423   4.863   5.227  0.0052  0.0772  0.3326
39333W        W47933  17.027   0.814  18.493 -0.2864 -0.0121 -0.3233
39334W        W47934  10.152   6.122   8.947 -0.1380 -0.3709  0.1863
39335W        W47935  11.433   4.787   9.540 -0.0586 -0.3542 -0.1502
39336W        W47936   8.874   3.966  12.388 -0.0268  0.2469  0.0237
39337W        W47937  20.355   5.843  17.085  0.1731  0.0921 -0.0842
39338W        W47938  17.777   6.114   6.203  0.2402 -0.0232 -0.2386
39339W        W47939  19.404   0.012  26.891 -0.0902  0.1071  0.2101
39340W        W47940  16.181   3.934  19.960 -0.2658  0.2706  0.0418
39341W        W47941  20.385   1.574  30.550 -0.0994  0.3561 -0.0966
39342W        W47942  21.763   6.209  32.455  0.2051  0.2019  0.0283
39343W        W47943  16.508   2.083   5.031 -0.0292  0.4211  0.1515
39344W        W47944  12.642   3.106   5.540 -0.1482 -0.0937 -0.0335
39345W        W47945  17.952   3.230   9.690  0.2229  0.0070  0.0729
39346W        W47946  22.925   3.381  29.035  0.0521 -0.1618 -0.0334
39347W        W47947  16.973   0.946  22.538  0.1041 -0.0106 -0.0019
39348W        W47948  13.221   4.279  20.942 -0.0510 -0.0787 -0.0003
39349W        W47949  21.442   1.929  18.962 -0.3503  0.0949 -0.3588
39350W        W47950  14.973   7.097   6.481  0.2358 -0.1943  0.1978
39351W        W47951  22.312   1.517   1.176 -0.0628  0.0459  0.0101
39352W        W47952  12.435   2.622   2.317 -0.0298  0.3551  0.0291
39353W        W47953  21.244   3.784  31.883  0.0562 -0.0360  0.2232
39354W        W47954  19.678   5.836  10.510  0.3297  0.0142  0.0413
39355W        W47955   2.549   1.848   1.568 -0.2297 -0.1543 -0.0300
39356W        W47956   9.510   5.273  14.485  0.0502 -0.0987 -0.1627
39357W        W47957   7.252   6.848   6.227  0.0114  0.1870 -0.1524
39358W        W47958   7.028   5.149  29.598 -0.1714  0.0443 -0.0614
39359W        W47959  15.166   2.151  15.296  0.0546  0.0901 -0.1533
39360W        W47960   3.527   5.661   0.332 -0.1795  0.2282  0.1363
39361W        W47961   4.052   5.743   8.531  0.1816  0.0240  0.0023
39362W        W47962  17.439   0.045  15.644  0.2135  0.0585  0.2688
39363W        W47963  21.040   3.936   1.906 -0.5439 -0.0451  0.0003
39364W        W47964   0.542   4.205  32.959  0.0962  0.2064  0.0481
39365W        W47965   5.124   2.600  24.865  0.1764 -0.1072 -0.0343
39366W        W47966  16.166   5.676   6.059 -0.2098  0.1990  0.4019
39367W        W47967  15.923   4.318  16.429 -0.0736  0.0532 -0.3157
39368W        W47968  21.209   5.900   1.392  0.2281  0.0167  0.2404
39369W        W47969  10.623   0.230  11.868  0.1433 -0.2236 -0.0846
39370W        W47970   9.037   6.949   2.771 -0.0877 -0.2822  0.0778
39371W        W47971  23.086   0.648  31.901 -0.0950 -0.0983 -0.0714
39372W        W47972  13.189   1.583   3.135 -0.1342  0.2002 -0.0058
39373W        W47973  13.677   5.603  17.815 -0.2674  0.0765 -0.1614
39374W        W47974   0.236   1.769   5.527 -0.1450 -0.2636 -0.0560
39375W        W47975  18.769   6.533  23.615 -0.3007 -0.0463 -0.2323
39376W        W47976   8.281   4.431   4.641 -0.2091 -0.3326 -0.2127
39377W        W47977   3.221   4.131  12.991  0.1156 -0.2451  0.0334
39378W        W47978  14.252   5.374  15.443 -0.1679 -0.4900  0.0807
39379W        W47979   1.999   5.181   3.996 -0.1073  0.0290 -0.1104
39380W        W47980  15.452   2.046   7.430  0.1743  0.1699 -0.6413
39381W        W47981   0.438   0.310  28.810  0.0206 -0.1285 -0.4084
39382W        W47982  16.591   7.760  19.789 -0.1317  0.3334  0.0360
39383W        W47983   6.984   7.331  27.110 -0.0667 -0.1425 -0.1578
39384W        W47984  22.592   2.627   8.591  0.4172 -0.0948  0.2005
39385W        W47985  20.006   1.069   5.825 -0.1781 -0.2395  0.1164
39386W        W47986  12.499   5.666  18.384  0.0138  0.0487  0.1577
39387W        W47987  22.567   5.503   8.747  0.1701 -0.0185  0.1429
39388W        W47988  22.638   3.738   0.790 -0.3835 -0.0633  0.2444
39389W        W47989  16.213   7.216  23.152  0.1772 -0.0712 -0.1662
39390W        W47990   9.540   6.611  12.610 -0.1178  0.0037 -0.3898
39391W        W47991  21.788   7.144  23.665 -0.0866 -0.1002  0.0621
39392W        W47992   4.621   1.783  28.074 -0.0894  0.0799 -0.0860
39393W        W47993  17.513   6.017  23.212 -0.0856  0.1146  0.0991
39394W        W47994  15.866   1.517   1.617 -0.0907 -0.2766 -0.0312
39395W        W47995   5.458   2.778  24.481  0.1081 -0.4681  0.0085
39396W        W47996  11.860   7.173   0.084  0.0362 -0.1920  0.2267
39397W        W47997  14.499   3.108  22.660  0.0710  0.3199 -0.0513
39398W        W47998   3.884   6.036  11.284 -0.0554 -0.0790 -0.1127
39399W        W47999  24.425   4.226   2.827 -0.1582 -0.0433 -0.1053
39400W        W48000   2.304   6.214  27.393  0.0984 -0.1482 -0.0004
39401W        W48001   9.678   2.713  26.470  0.0495 -0.3149  0.0444
39402W        W48002  15.318   7.325   7.916  0.0473 -0.1917 -0.0482
39403W        W48003  14.239   6.884  31.026  0.1323  0.0235  0.0162
39404W        W48004  11.528   1.100  21.367 -0.0961  0.1208  0.1875
39405W        W48005  23.963   6.299   0.564 -0.2018  0.2128 -0.1977
39406W        W48006   4.322   1.251  28.094  0.0547 -0.0349 -0.0361
39407W        W48007   7.342   0.850  29.088 -0.3079 -0.1131 -0.0746
39408W        W48008   1.038   3.052  25.468 -0.1010 -0.0980  0.2459
39409W        W48009  20.793   4.637  17.131 -0.2724 -0.0635  0.1037
39410W        W48010   8.977   6.475  32.730  0.2171 -0.1899  0.2233
39411W        W48011  16.082   3.887  18.130  0.2542  0.0777  0.0040
39412W        W48012   6.612   3.682  30.463  0.0559 -0.0908  0.1379
39413W        W48013  18.456   7.429   6.735 -0.0690 -0.2675 -0.0871
39414W        W48014  24.687   2.782  14.313  0.1735 -0.0357  0.2012
39415W        W48015  22.105   3.438  25.526  0.2643 -0.3339 -0.2360
39416W        W48016  22.988   0.710   8.795  0.3257  0.3783 -0.0957
39417W        W48017  21.756   1.834  22.501 -0.1248 -0.0614  0.1844
39418W        W48018  22.591   1.491   7.688  0.2033 -0.3260 -0.0216
39419W        W48019  19.542   5.946  24.856  0.0148  0.1404  0.0755
39420W        W48020  23.824   4.651   3.938  0.0262 -0.0486  0.3633
39421W        W48021  18.282   2.016  32.170 -0.1150  0.1363 -0.1472
39422W        W48022  14.173   3.879  22.409  0.1225  0.0485 -0.1279
39423W        W48023  18.498   0.889  31.333 -0.0125 -0.0733  0.0978
39424W        W48024  17.539   0.335   9.399  0.3230  0.2086  0.0898
39425W        W48025  17.018   4.691   1.741  0.0311  0.4350  0.0113
39426W        W48026   4.439   5.543  26.876 -0.1722 -0.2452 -0.0170
39427W        W48027  19.701   1.988  18.973 -0.1321  0.2142  0.2735
39428W        W48028  21.149   6.935  19.660  0.2285  0.1499 -0.0520
39429W        W48029  23.746   5.951  13.447 -0.1359 -0.1460 -0.0978
39430W        W48030  15.943   3.972  25.980 -0.0085 -0.3507 -0.1131
39431W        W48031  13.521   4.711  30.531 -0.1772  0.3172 -0.1037
39432W        W48032   3.625   7.668   1.329 -0.2158 -0.0767 -0.3764
39433W        W48033  15.999   2.734   8.427 -0.2416  0.1231  0.2490
39434W        W48034   2.227   5.292   8.142 -0.4201 -0.4589  0.2861
39435W        W48035  14.920   5.512  24.697 -0.0330 -0.2254  0.0806
39436W        W48036  20.657   4.245  32.817 -0.3062  0.0429 -0.0265
39437W        W48037  18.684   2.986   3.760  0.1742  0.0990 -0.2104
39438W        W48038  16.419   7.193  16.934  0.0602 -0.2197 -0.0321
39439W        W48039   5.638   1.904   4.353  0.0363  0.2452  0.0135
39440W        W48040  14.012   4.131   7.983 -0.2053  0.2008  0.0163
39441W        W48041   9.450   2.332  22.451  0.0753 -0.0627  0.1374
39442W        W48042  18.079   6.379  19.442  0.1118  0.1202 -0.1867
39443W        W48043   4.543   2.896  11.616 -0.0967  0.0781  0.1235
39444W        W48044   9.238   0.868  28.933  0.0557 -0.2610 -0.1270
39445W        W48045  16.307   6.796  18.469  0.0701  0.1253  0.3349
39446W        W48046  21.881   3.698  28.690 -0.0166  0.0121  0.2788
39447W        W48047   5.583   0.080   7.968  0.0374  0.0505 -0.3642
39448W        W48048  11.054   3.912  30.382  0.4913  0.0167  0.6566
39449W        W48049  11.593   3.036   6.395  0.3714  0.0658  0.1211
39450W        W48050   1.629   4.955  13.342 -0.2533 -0.2490  0.0393
39451W        W48051  16.170   4.848   8.452  0.0555  0.0166 -0.0255
39452W        W48052   6.988   2.243  31.574  0.1732  0.0542 -0.1099
39453W        W48053   0.899   7.397   8.897  0.1184 -0.0809 -0.4494
39454W        W48054  19.846   3.921   4.939 -0.1732 -0.0058  0.2346
39455W        W48055  20.243   6.975   1.496 -0.2432 -0.1805  0.1450
39456W        W48056   5.492   5.251  26.792 -0.1840 -0.0555 -0.0597
39457W        W48057   9.156   6.569   9.793  0.1232 -0.1371  0.0333
39458W        W48058  16.270   2.634   2.833 -0.2850 -0.4356 -0.3196
39459W        W48059  19.017   7.638  30.934  0.1147  0.1698  0.0767
39460W        W48060  21.563   6.073  20.678  0.3320 -0.2517 -0.4039
39461W        W48061  13.854   7.430  27.580  0.1386 -0.0334 -0.0420
39462W        W48062  12.147   1.667  30.198  0.0621 -0.1541  0.0944
39463W        W48063  18.331   7.474   3.830 -0.2240 -0.0711  0.3805
39464W        W48064  16.629   2.694  32.386  0.2104  0.2675  0.1192
39465W        W48065   5.914   2.949   4.401  0.2839  0.2544  0.0414
39466W        W48066   2.467   1.727  29.554 -0.2100  0.0823  0.2100
39467W        W48067  10.678   3.813  19.112  0.3183 -0.0760 -0.0629
39468W        W48068  21.491   0.836   3.068  0.0890  0.2095 -0.3893
39469W        W48069  14.377   0.273   1.952 -0.1772  0.0102  0.1048
39470W        W48070  21.949   5.207  29.762  0.0188  0.0884  0.0454
39471W        W48071  21.281   1.174  25.786 -0.0330 -0.2364 -0.0229
39472W        W48072   7.087   5.220  13.441  0.0702 -0.0362 -0.2179
39473W        W48073   4.340   0.425  27.274 -0.0573  0.0739  0.1647
39474W        W48074  24.902   7.440  31.238  0.1322  0.1679  0.0344
39475W        W48075   6.292   5.355   1.665  0.1495 -0.1035 -0.0966
39476W        W48076  13.530   4.504  23.374  0.1432 -0.0185  0.2445
39477W        W48077  22.898   6.153  25.663 -0.1095 -0.1180  0.0319
39478W        W48078   0.263   0.949   8.289 -0.1257  0.3999  0.1538
39479W        W48079   9.373   3.185   4.746 -0.0695  0.1363  0.0078
39480W        W48080  23.894   0.555  29.865  0.0919 -0.1117  0.1518
39481W        W48081   6.137   0.381   7.298 -0.0421  0.0363 -0.0986
39482W        W48082  20.462   5.704   7.404  0.3182 -0.4250 -0.1331
39483W        W48083   4.013   5.264   9.442 -0.0340  0.1412  0.0921
39484W        W48084  18.972   3.098  27.752 -0.0926  0.0731 -0.1297
39485W        W48085  10.999   6.183  19.903  0.1360  0.1604 -0.2122
39486W        W48086  14.609   1.965   8.928  0.1464 -0.1715  0.1298
39487W        W48087   1.575   0.871   0.523  0.4059  0.1212 -0.0794
39488W        W48088  19.467   3.332   9.541  0.1415  0.1031 -0.1483
39489W        W48089  10.121   6.615  22.726 -0.0894 -0.0105 -0.2235
39490W        W48090   0.904   4.010  12.540  0.1090  0.1579  0.0373
39491W        W48091   6.400   6.184  29.578 -0.1099 -0.0906 -0.2990
39492W        W48092   0.235   1.742  30.440 -0.0536 -0.3038 -0.0374
39493W        W48093  11.446   0.672  22.867 -0.0998  0.1030  0.1087
39494W        W48094   5.087   6.035  13.364 -0.0048  0.0299  0.0817
39495W        W48095  14.507   3.369   2.955  0.0535  0.1486  0.3103
39496W        W48096   8.506   0.876  12.619  0.1850 -0.1833 -0.3228
39497W        W48097  19.546   3.582  24.194  0.2155 -0.0193 -0.0342
39498W        W48098  22.370   0.593  14.045 -0.1205 -0.0632 -0.0270
39499W        W48099  12.964   0.912  19.472  0.0754 -0.0992 -0.2252
39500W        W48100  16.211   7.608  31.809 -0.0150 -0.0854  0.1135
39501W        W48101   0.654   1.272   1.689  0.0285  0.2461  0.0064
39502W        W48102  21.657   2.007  19.459 -0.0321 -0.0476 -0.0526
39503W        W48103  15.588   6.569   9.275  0.2822  0.0071  0.0899
39504W        W48104  12.516   6.414   7.099  0.1434  0.0858  0.1183
39505W        W48105   8.764   3.650   2.068  0.0020 -0.0733  0.0203
39506W        W48106   2.403   3.756  30.805  0.0863  0.1509  0.2283
39507W        W48107   9.014   6.286  25.275  0.1489 -0.2206  0.1108
39508W        W48108   3.739   4.445  13.082 -0.0274 -0.0115  0.0331
39509W        W48109   9.066   3.401  10.987 -0.1643  0.0055 -0.2537
39510W        W48110   6.357   2.716   1.149  0.2007  0.6397 -0.0491
39511W        W48111   2.017   6.695   2.073  0.0919 -0.2823 -0.0393
39512W        W48112   1.633   0.386  17.056  0.3038 -0.2773 -0.0619
39513W        W48113   0.645   5.939   5.523  0.0855 -0.1085  0.3328
39514W        W48114  13.844   4.934  27.393 -0.0690  0.0431  0.1014
39515W        W48115  20.017   2.084  17.146  0.1421 -0.0610 -0.2368
39516W        W48116   3.726   2.695   9.923 -0.1955 -0.3505 -0.2165
39517W        W48117  23.302   7.037  20.180 -0.3807  0.1444  0.1934
39518W        W48118  17.365   2.235  15.196  0.2585 -0.0729 -0.1930
39519W        W48119  16.411   2.466   8.373 -0.0527 -0.1264 -0.0479
39520W        W48120  12.741   5.220   5.162  0.2546 -0.0304  0.0641
39521W        W48121   8.911   4.656  24.391 -0.0965  0.0518  0.0293
39522W        W48122  12.476   7.155  10.272 -0.1387  0.0333 -0.1205
39523W        W48123  10.617   1.579  10.669 -0.0325 -0.1584  0.0773
39524W        W48124   3.824   5.829  29.740 -0.1444  0.1058 -0.0727
39525W        W48125  18.025   3.693  23.871 -0.2266 -0.1146  0.1982
39526W        W48126  16.795   6.336  31.877  0.4466  0.0622  0.1556
39527W        W48127   9.959   7.465   2.235  0.2815 -0.1763  0.2965
39528W        W48128   2.886   0.146   4.764 -0.3675 -0.1424 -0.3832
39529W        W48129  17.007   2.334  32.377  0.0858  0.4993 -0.2963
39530W        W48130  11.015   6.845  22.267  0.0938  0.0009  0.0336
39531W        W48131  10.694   4.666   1.240 -0.2137  0.2857 -0.0628
39532W        W48132  22.216   0.064   7.226  0.1290 -0.0312  0.1145
39533W        W48133   2.021   4.762   4.909 -0.0292  0.3047 -0.1679
39534W        W48134   8.401   5.113  28.149  0.0734 -0.0765 -0.0545
39535W        W48135   9.972   1.326  12.340  0.0139 -0.0458 -0.2068
39536W        W48136  12.437   4.347  22.889  0.1347  0.1691  0.1708
39537W        W48137  15.661   3.163   6.710 -0.2229  0.2266  0.0280
39538W        W48138  11.821   6.976   8.091 -0.1435 -0.0137  0.3589
39539W        W48139  23.158   0.781   2.310  0.1918  0.0123 -0.1875
39540W        W48140  22.077   7.764  24.985 -0.1927  0.0270  0.1408
39541W        W48141  12.766   2.254  17.047 -0.0252  0.1215 -0.3610
39542W        W48142   2.961   2.193  14.619 -0.1389  0.0708 -0.4630
39543W        W48143   0.790   6.235  30.261  0.0524  0.2393  0.2475
39544W        W48144  13.013   6.279   2.903 -0.2582 -0.1283  0.1277
39545W        W48145   7.454   4.804   7.110  0.0878 -0.0124 -0.1223
39546W        W48146  21.418   6.318  10.636  0.0947 -0.1422  0.1400
39547W        W48147   6.357   0.623   4.218 -0.2154  0.1478 -0.0793
39548W        W48148  19.521   1.518  26.818 -0.1200 -0.2695 -0.0030
39549W        W48149  23.536   3.792  22.668  0.3296 -0.0141 -0.1165
39550W        W48150  16.060   1.584   0.507 -0.1034 -0.0084 -0.0086
39551W        W48151   9.007   7.300  11.542 -0.6318 -0.0070 -0.0976
39552W        W48152  23.854   4.191  30.624 -0.1560 -0.2769 -0.1309
39553W        W48153   0.009   2.916  10.468  0.0368  0.2156  0.1445
39554W        W48154   4.532   0.413  29.556  0.3620  0.2731 -0.1780
39555W        W48155  14.669   1.461   4.082 -0.4958 -0.1303 -0.1272
39556W        W48156  11.866   7.702  11.208  0.0774  0.1429  0.0224
39557W        W48157   3.142   0.484  25.040 -0.0112  0.1055  0.1811
39558W        W48158   8.334   5.085  32.210 -0.4062 -0.2589  0.1591
39559W        W48159  17.877   6.307   6.741 -0.0295 -0.3933  0.0795
39560W        W48160  16.274   0.328  17.117  0.0259  0.0492 -0.1075
39561W        W48161   8.433   6.076  26.439  0.2517 -0.0779 -0.2201
39562W        W48162   5.314   5.461  24.450 -0.0504 -0.0544  0.0362
39563W        W48163   7.283   5.041  31.222 -0.0616 -0.1844  0.1829
39564W        W48164   1.618   0.718  32.286 -0.1967 -0.1412 -0.1421
39565W        W48165  16.477   5.748  32.369 -0.0437 -0.1278 -0.1241
39566W        W48166   0.263   1.412  22.645  0.0027  0.3804  0.0345
39567W        W48167  23.210   1.544  24.350 -0.0525 -0.2891 -0.0636
39568W        W48168  15.930   2.046   5.046 -0.1364 -0.3380  0.3149
39569W        W48169  11.788   3.723   3.945  0.1752 -0.1700  0.0991
39570W        W48170  15.970   3.672   5.653  0.0991  0.1343 -0.1811
39571W        W48171  11.559   2.403   2.011 -0.0568  0.0729 -0.0215
39572W        W48172  13.821   3.440  30.627 -0.0148  0.3685 -0.0241
39573W        W48173  14.831   5.678  21.706 -0.5065 -0.1140 -0.0392
39574W        W48174   2.843   3.398   6.973  0.3250  0.0187 -0.1065
39575W        W48175  22.574   0.381   0.753  0.0773  0.0104 -0.1091
39576W        W48176  18.925   0.656  15.778 -0.3051 -0.0528 -0.2319
39577W        W48177   7.970   4.096   0.573 -0.2616 -0.1832 -0.0618
39578W        W48178  17.421   4.141   7.257 -0.1899 -0.1062  0.2203
39579W        W48179  11.485   6.392   5.869 -0.0505  0.1861 -0.1012
39580W        W48180   9.926   3.532  25.511  0.0302 -0.0508 -0.1676
39581W        W48181  11.789   6.994  31.076 -0.1482 -0.0955  0.1263
39582W        W48182   6.403   1.589  32.564  0.1160 -0.2435 -0.0017
39583W        W48183   3.316   2.316   1.017 -0.2690  0.0843 -0.0098
39584W        W48184  12.746   3.721  23.124 -0.3189  0.0171 -0.0044
39585W        W48185  13.685   0.778   5.386  0.0703 -0.3008 -0.2413
39586W        W48186  21.653   1.265   2.021  0.2866 -0.1552 -0.1491
39587W        W48187  15.569   2.293  25.247  0.2772 -0.0897 -0.1512
39588W        W48188   0.276   6.127  13.592  0.1066  0.0475 -0.0854
39589W        W48189  22.001   5.011  21.014 -0.1750  0.0547  0.0219
39590W        W48190   2.567   2.473  28.691 -0.0236  0.1538 -0.0609
39591W        W48191  14.017   1.116  17.006  0.0809 -0.2568  0.0487
39592W        W48192   7.235   4.465  15.785 -0.0883 -0.3328 -0.0250
39593W        W48193   6.408   6.564  15.098 -0.0195 -0.2538 -0.1067
39594W        W48194  15.044   0.208  32.230 -0.1491 -0.1392  0.4550
39595W        W48195   7.537   1.737  31.515  0.1531  0.0580  0.0013
39596W        W48196   6.745   2.873  25.721 -0.2070 -0.0816  0.0941
39597W        W48197   5.724   1.166  30.601 -0.4278 -0.2483 -0.3168
39598W        W48198   3.956   5.079   3.192 -0.2306  0.1336  0.0730
39599W        W48199   6.719   4.837  15.714 -0.1105  0.2459  0.0590
39600W        W48200  22.239   0.115  31.517 -0.1328  0.2034 -0.0460
39601W        W48201  16.742   5.036  19.530 -0.0228 -0.1736 -0.0931
39602W        W48202  22.450   3.930  11.335 -0.1869 -0.1313 -0.0608
39603W        W48203  18.769   7.130   4.574  0.0085 -0.0483 -0.1696
39604W        W48204   4.955   6.717  24.305 -0.1754 -0.0500 -0.1688
39605W        W48205  20.114   5.775  22.618 -0.0792 -0.0641  0.0510
39606W        W48206   6.006   5.958   9.222  0.1044  0.3045  0.0120
39607W        W48207  22.275   0.562   7.071 -0.2865  0.5100 -0.1142
39608W        W48208   5.702   0.594  23.410 -0.1255 -0.1229  0.0487
39609W        W48209   0.855   0.911   2.005  0.1268 -0.0083 -0.1392
39610W        W48210  22.489   6.909  10.056 -0.0357 -0.0860 -0.0625
39611W        W48211  12.390   0.446   1.731 -0.0028  0.0690  0.2513
39612W        W48212  23.352   0.199   7.091 -0.0727 -0.1653 -0.1355
39613W        W48213   4.723   0.230  15.612  0.0976 -0.2617  0.2838
39614W        W48214  20.091   7.068  27.283 -0.1408  0.1275 -0.0036
39615W        W48215   3.855   3.838  29.849  0.1149 -0.1796  0.1450
39616W        W48216   4.873   4.629  25.305  0.1348 -0.0015 -0.1646
39617W        W48217   6.994   3.265   5.334  0.2359 -0.1114 -0.0437
39618W        W48218  17.561   6.768   2.488  0.6587 -0.0311 -0.1144
39619W        W48219  17.018   7.295  29.485  0.3095 -0.0451 -0.2012
39620W        W48220  14.948   2.520  17.173 -0.0296 -0.1081 -0.1084
39621W        W48221  10.226   2.176  29.567 -0.3543 -0.1994  0.1497
39622W        W48222  12.897   4.930  22.362  0.1190 -0.1109  0.2852
39623W        W48223  13.443   4.936  19.370 -0.0086  0.0005 -0.2950
39624W        W48224   0.285   4.131  11.301 -0.3242 -0.1131  0.3142
39625W        W48225   8.205   3.120  15.968 -0.1412  0.2505 -0.0104
39626W        W48226  24.176   6.218   8.014  0.1031 -0.0094  0.0327
39627W        W48227  22.018   4.274  21.901  0.0089 -0.0406 -0.3117
39628W        W48228  17.729   5.415  31.036 -0.0300 -0.1977 -0.1251
39629W        W48229  11.769   5.124   3.345  0.0429 -0.4159  0.3015
39630W        W48230  18.578   1.254   0.236 -0.0258 -0.1554 -0.0825
39631W        W48231  14.461   7.287  31.661 -0.0117  0.3738 -0.3106
39632W        W48232  23.642   3.002  21.279  0.1271  0.0287 -0.0987
39633W        W48233   6.012   0.770  15.652 -0.1328  0.0728 -0.1855
39634W        W48234   3.545   7.727  12.868  0.1656 -0.0269  0.1944
39635W        W48235  11.012   2.211  22.396 -0.1029 -0.0069  0.0121
39636W        W48236   1.320   5.491  27.641  0.0685  0.0325  0.0375
39637W        W48237  16.625   0.539  29.760  0.2527  0.0691  0.1416
39638W        W48238   8.049   7.232   3.675  0.0649  0.0951  0.0103
39639W        W48239  18.887   3.997   3.816  0.0770 -0.1050  0.0446
39640W        W48240   0.321   5.948  25.126 -0.2097 -0.1848 -0.2588
39641W        W48241   5.566   7.537  12.354 -0.2507  0.1485  0.4355
39642W        W48242   7.514   2.743  12.817 -0.3270 -0.1522  0.0702
39643W        W48243   0.578   6.876  32.157 -0.1472  0.3295  0.1614
39644W        W48244   1.005   4.326  22.721 -0.0041 -0.0721 -0.0306
39645W        W48245  21.548   0.504  12.149  0.0525  0.0509 -0.2021
39646W        W48246  22.773   5.767   8.024  0.0754  0.3087 -0.2029
39647W        W48247  14.131   2.490  25.488 -0.1691 -0.2101 -0.1277
39648W        W48248   1.400   6.262  14.253  0.0707 -0.1583 -0.2409
39649W        W48249   6.702   2.796  23.725 -0.1671  0.0918  0.0739
39650W        W48250   5.470   2.659  15.867 -0.0894  0.2411  0.4137
39651W        W48251   7.534   4.150  14.876  0.1857  0.3415  0.0523
39652W        W48252   0.413   6.772  31.341  0.1154  0.0541  0.2283
39653W        W48253  10.346   2.660  25.675  0.1080 -0.2536  0.2652
39654W        W48254   5.239   6.449  12.074 -0.0530 -0.2128 -0.3076
39655W        W48255   7.995   0.257  29.768 -0.0541  0.0567 -0.2762
39656W        W48256  12.716   4.868   1.702  0.2295 -0.0250 -0.0230
39657W        W48257  11.553   4.586  26.402  0.1436  0.1166 -0.1675
39658W        W48258  14.431   1.480  32.455 -0.1688 -0.1620  0.0055
39659W        W48259   8.952   1.259   7.990  0.0802 -0.0873 -0.5912
39660W        W48260  19.038   6.441  27.608 -0.0430 -0.3049  0.0240
39661W        W48261  16.121   0.705  32.244 -0.1296 -0.2440 -0.2247
39662W        W48262  14.910   1.882   3.063 -0.0472 -0.1919 -0.2181
39663W        W48263   2.128   5.593   8.976  0.2792  0.2763 -0.1747
39664W        W48264   0.458   1.225  13.215 -0.1401 -0.0471 -0.2677
39665W        W48265  24.674   4.562   5.483  0.1399 -0.0380  0.1496
39666W        W48266  10.406   1.666   5.019 -0.1875 -0.1264  0.1214
39667W        W48267  11.257   3.613  22.771 -0.1312  0.0595  0.2598
39668W        W48268  13.502   0.743  31.942  0.0561  0.0317 -0.0659
39669W        W48269   5.113   0.050  16.486  0.0528 -0.0286  0.1764
39670W        W48270  16.896   2.973   0.952 -0.2742  0.1992  0.2422
39671W        W48271  15.192   7.401  30.369 -0.1231 -0.3971 -0.2008
39672W        W48272  16.179   2.945  28.571 -0.1089  0.0063 -0.1249
39673W        W48273  10.416   3.031  25.357  0.2736  0.0585 -0.2685
39674W        W48274   5.881   6.380  24.541  0.0403  0.0216  0.2523
39675W        W48275  16.113   1.681  32.284 -0.0174  0.0252  0.0073
39676W        W48276   9.147   0.787  29.403 -0.3122  0.2702  0.3069
39677W        W48277   9.610   5.521  31.114  0.0571 -0.0894  0.0859
39678W        W48278  15.149   0.206   9.764 -0.2896  0.1124 -0.2489
39679W        W48279   6.777   5.917   5.023 -0.5208  0.3111  0.1478
39680W        W48280  21.893   7.243  12.105  0.2730 -0.2834  0.3747
39681W        W48281  24.747   1.097  32.929  0.0342 -0.0976  0.1453
39682W        W48282  13.046   3.493  16.872  0.0167 -0.1246  0.0769
39683W        W48283  13.087   2.348   7.200 -0.2688 -0.0921  0.1868
39684W        W48284  18.358   6.803   9.905 -0.0413 -0.0561  0.2180
39685W        W48285  20.792   0.636  30.602 -0.1859  0.3525 -0.0967
39686W        W48286  16.444   3.484  22.438  0.0160 -0.0101  0.1851
39687W        W48287   9.961   6.606  23.846 -0.0462  0.1245  0.1229
39688W        W48288   6.308   0.192  14.314 -0.1156 -0.1060  0.0328
39689W        W48289  13.948   4.034   2.481 -0.0863 -0.0907 -0.0445
39690W        W48290  15.434   2.721  26.805 -0.0845 -0.2331  0.1154
39691W        W48291  19.244   0.067  32.779 -0.0626  0.3269  0.0690
39692W        W48292   5.565   7.264  26.512  0.1963  0.2815  0.0561
39693W        W48293   9.477   1.579  10.061 -0.1278  0.2531  0.2643
39694W        W48294  22.045   3.385  29.405  0.0942  0.0613  0.1006
39695W        W48295   4.340   3.458   6.541  0.0941  0.1678  0.1103
39696W        W48296  12.063   1.993  19.322 -0.2273  0.0904 -0.1093
39697W        W48297   1.663   2.438   3.752 -0.3061 -0.2669 -0.0950
39698W        W48298  14.898   4.159  19.136 -0.0391  0.0067  0.1005
39699W        W48299  18.435   7.092   6.268  0.1149  0.1031 -0.1136
39700W        W48300   7.180   2.398  23.562 -0.2611  0.0543  0.0442
39701W        W48301   9.923   2.708  12.463 -0.4945  0.0072 -0.1517
39702W        W48302   6.302   3.988   7.524  0.1206 -0.1692 -0.1378
39703W        W48303   6.420   1.887   5.633  0.0214 -0.2423 -0.2208
39704W        W48304  12.298   4.960  10.027 -0.1355 -0.0647  0.1228
39705W        W48305  20.952   3.241  22.398 -0.0377  0.0359  0.0125
39706W        W48306  20.693   5.519  16.889  0.0818 -0.1361 -0.4047
39707W        W48307  17.339   5.320  26.786  0.1998  0.2320 -0.0260
39708W        W48308   8.063   4.003  32.592 -0.1102 -0.1215 -0.0106
39709W        W48309   9.688   0.654   7.430 -0.1250  0.3113  0.0573
39710W        W48310  19.040   2.487  20.695 -0.1010 -0.5028 -0.2154
39711W        W48311  23.180   4.742   3.618 -0.1950  0.1896  0.0055
39712W        W48312   0.851   4.138  14.312  0.0279  0.4526 -0.0546
39713W        W48313   4.165   2.038  27.335 -0.2777 -0.1006 -0.0897
39714W        W48314   4.848   2.075  12.198 -0.0256  0.1248 -0.0004
39715W        W48315   5.569   2.637  10.158  0.2516 -0.0529 -0.0958
39716W        W48316   5.455   1.582   1.055 -0.1460 -0.0351 -0.3195
39717W        W48317  17.589   6.585   7.045  0.1598  0.2114 -0.3560
39718W        W48318  22.532   1.986  28.052  0.1319 -0.2896  0.0952
39719W        W48319   2.016   3.584  15.085 -0.2646 -0.0322 -0.1818
39720W        W48320  14.662   4.535  18.795 -0.1170 -0.2963  0.3408
39721W        W48321  15.394   2.632  22.737 -0.1681  0.2265 -0.0355
39722W        W48322   1.923   4.330   5.255 -0.0558  0.0620  0.0347
39723W        W48323  15.450   0.040  29.028  0.2449  0.1874  0.0714
39724W        W48324  13.492   4.637  31.884  0.0935 -0.2610  0.1317
39725W        W48325  14.826   0.983  20.473  0.1651 -0.2933 -0.2396
39726W        W48326  17.697   0.138   1.957  0.4322  0.1067 -0.1236
39727W        W48327  11.977   2.721  19.606 -0.2975  0.1797 -0.1301
39728W        W48328  16.290   2.184  27.024  0.4721  0.0455  0.0059
39729W        W48329   3.059   2.399   4.603  0.1932  0.2423  0.1900
39730W        W48330  15.369   0.468   4.350  0.1647  0.2079 -0.2248
39731W        W48331   9.456   6.357  27.035  0.3903  0.3911  0.0734
39732W        W48332  11.771   5.089  18.564  0.1255  0.2016 -0.2324
39733W        W48333   8.940   4.658  20.851  0.3348  0.0528  0.0323
39734W        W48334   3.012   4.863   5.214  0.1764 -0.1415 -0.2346
39735W        W48335  12.101   4.340  22.404  0.0972  0.0076  0.0841
39736W        W48336   2.730   5.989  23.864 -0.1314  0.0942  0.1583
39737W        W48337  11.074   7.053   6.715 -0.4929 -0.0331  0.1995
39738W        W48338  17.512   5.310  22.100 -0.0126  0.0093 -0.0263
39739W        W48339  13.320   4.937  32.260  0.1749  0.0127  0.0083
39740W        W48340  16.348   4.042   2.169 -0.0153  0.2644  0.0357
39741W        W48341  21.216   3.225  31.707 -0.1637 -0.1767 -0.1271
39742W        W48342  19.605   0.681  32.682 -0.0961  0.0033  0.2797
39743W        W48343  22.534   6.309   1.927 -0.1217  0.2600 -0.0120
39744W        W48344  12.269   3.579  31.002  0.0607  0.2788 -0.1992
39745W        W48345   5.172   5.184  23.599 -0.2290  0.1478  0.0209
39746W        W48346  11.775   3.630   1.982  0.1307  0.0074  0.1764
39747W        W48347  24.588   3.637   9.167 -0.1798  0.1314 -0.3983
39748W        W48348   5.222   1.479  10.770 -0.2225 -0.1034  0.0760
39749W        W48349   4.984   1.506   8.686  0.0305  0.1703  0.3422
39750W        W48350   9.660   2.947   6.718  0.5726  0.1017 -0.1119
39751W        W48351  18.775   5.767   8.358 -0.1108  0.0934 -0.0239
39752W        W48352   3.475   4.834  29.991 -0.1649  0.1340  0.0127
39753W        W48353  18.347   0.618   3.602  0.0262 -0.0626  0.0419
39754W        W48354  22.674   4.771  19.376  0.1286  0.0556  0.1522
39755W        W48355   2.078   1.892   5.174  0.1366 -0.0019 -0.1416
39756W        W48356   0.090   0.068  21.901 -0.1779 -0.1013  0.0176
39757W        W48357  19.294   7.097   5.454 -0.0603  0.1438  0.1743
39758W        W48358   6.530   3.904   1.780  0.1563  0.2975  0.0401
39759W        W48359   2.581   6.506  32.787 -0.0523  0.0196  0.0715
39760W        W48360   6.918   0.484   4.250  0.0235  0.0284  0.0456
39761W        W48361   6.244   1.883  14.191  0.0915  0.0354 -0.2033
39762W        W48362   6.898   6.985  31.786 -0.0112  0.0922  0.0250
39763W        W48363  15.918   3.148  19.303 -0.0106  0.1765  0.2299
39764W        W48364   3.122   6.334  23.633 -0.0459  0.1242  0.0473
39765W        W48365  11.169   1.147  10.063  0.0644  0.4376  0.1001
39766W        W48366   7.289   1.290  25.918  0.0714 -0.1944  0.1313
39767W        W48367   6.395   1.250  26.983  0.1091  0.1905 -0.3002
39768W        W48368  16.878   3.144   8.135  0.1327  0.0243 -0.2520
39769W        W48369  19.248   2.607   4.993 -0.0394  0.1960 -0.0059
39770W        W48370   6.743   3.592   3.758 -0.0936 -0.0466 -0.0126
39771W        W48371  24.306   5.890  22.058 -0.1262 -0.0822 -0.2131
39772W        W48372  22.845   2.789   4.202  0.1025 -0.0692  0.0779
39773W        W48373  18.558   3.418  22.776  0.2644 -0.1578  0.1276
39774W        W48374   5.620   5.095   9.213  0.0631 -0.2618  0.1150
39775W        W48375   7.902   7.747  12.649  0.3725  0.1809  0.3281
39776W        W48376  19.751   0.940  30.697 -0.1892 -0.1708  0.1392
39777W        W48377  17.749   5.666  24.158  0.0791  0.2793  0.2671
39778W        W48378   3.248   3.697   8.771  0.2190 -0.0891 -0.0457
39779W        W48379   7.604   3.307  26.237  0.1978 -0.0562  0.0858
39780W        W48380  10.189   2.409  31.657 -0.0749 -0.0533  0.1834
39781W        W48381   3.900   5.106  14.381  0.2577  0.1417  0.1454
39782W        W48382   2.063   6.791  25.006  0.1722  0.0007  0.0081
39783W        W48383  11.214   4.304  28.205 -0.0074  0.0949 -0.1801
39784W        W48384   5.067   4.981  10.684 -0.4348 -0.0344  0.1030
39785W        W48385  10.616   4.634  31.099  0.0689 -0.4885  0.1429
39786W        W48386  17.791   5.359   7.104  0.1007  0.2481  0.0448
39787W        W48387  11.312   3.216  32.830 -0.1148  0.0547  0.0045
39788W        W48388  18.500   5.596  22.673  0.2406 -0.1406 -0.0072
39789W        W48389  16.193   5.216  19.379 -0.2322  0.2712 -0.0661
39790W        W48390  15.159   7.543   3.331 -0.0365  0.0286 -0.1247
39791W        W48391  16.331   1.023   3.174  0.1229  0.1146 -0.0834
39792W        W48392   0.558   3.960  24.144 -0.0287 -0.0257 -0.1221
39793W        W48393   6.738   2.571  14.344 -0.1895 -0.1241 -0.2305
39794W        W48394  16.490   4.125  16.998  0.0945  0.0235  0.0167
39795W        W48395  16.366   6.448  30.541  0.0857 -0.2355 -0.1371
39796W        W48396   4.952   4.847  22.701 -0.1671 -0.0638 -0.2836
39797W        W48397  14.204   3.812   3.908  0.0847  0.1325  0.2020
39798W        W48398  12.405   2.028  20.225 -0.1327  0.0505  0.1209
39799W        W48399   6.180   3.336  12.471  0.0199  0.2170 -0.0017
39800W        W48400  10.611   2.554  32.371 -0.0457  0.1335 -0.2542
39801W        W48401   4.448   1.708   9.815 -0.1993 -0.0678  0.1537
39802W        W48402  23.707   0.142  24.699 -0.1771  0.1537 -0.0936
39803W        W48403   3.567   1.821  24.949 -0.3367  0.2623 -0.2208
39804W        W48404   9.941   1.668  23.026 -0.0598 -0.1085  0.0325
39805W        W48405   1.456   1.727  31.658  0.0174  0.0167 -0.1123
39806W        W48406  24.108   4.355  26.404  0.1570 -0.2660  0.2830
39807W        W48407  24.738   0.430   8.133  0.0592  0.0310 -0.0738
39808W        W48408  12.264   4.813  30.151  0.4362  0.1307 -0.0780
39809W        W48409   3.500   4.957  26.710 -0.0301  0.2156  0.1564
39810W        W48410   8.099   4.180  24.809  0.3195  0.0933  0.2543
39811W        W48411   4.077   1.993  13.859 -0.2950 -0.1281 -0.1347
39812W        W48412   1.185   5.826  14.436 -0.1470 -0.2569 -0.0648
39813W        W48413  24.025   2.618   9.149  0.0214  0.0408  0.0384
39814W        W48414  14.644   3.789  24.165  0.0798  0.0043  0.0734
39815W        W48415   7.966   5.144  25.985  0.1609  0.1911  0.0102
39816W        W48416   6.726   4.689  12.727  0.1439 -0.0938 -0.0005
39817W        W48417  18.512   7.582  22.612 -0.2277  0.1594 -0.1257
39818W        W48418   7.935   7.500  32.212  0.0729 -0.0776  0.2548
39819W        W48419  16.580   3.906  31.750  0.3999 -0.2074  0.4224
39820W        W48420   9.509   2.860  29.991 -0.0279  0.1167  0.0884
39821W        W48421  20.354   3.505  31.730  0.0068  0.1270  0.1130
39822W        W48422   9.997   3.044  26.792  0.2477  0.2005  0.0346
39823W        W48423  14.060   4.138  18.922  0.0546  0.1137  0.0739
39824W        W48424  11.653   2.928   7.598 -0.1371  0.0416  0.1004
39825W        W48425   4.924   3.039  26.950 -0.0486  0.2066  0.4546
39826W        W48426   7.891   6.624  14.093 -0.3343 -0.0770 -0.0523
39827W        W48427   6.221   2.436  16.554 -0.3106  0.3073 -0.1528
39828W        W48428  22.483   5.112  11.497 -0.1059  0.1632 -0.0224
39829W        W48429   0.029   5.413  11.849  0.1365 -0.0017 -0.0872
39830W        W48430   8.336   7.297  28.208  0.0918  0.1945  0.1030
39831W        W48431  15.505   3.009   4.450  0.0040  0.0573  0.1757
39832W        W48432  12.959   7.425  30.146  0.0698 -0.0293 -0.2559
39833W        W48433  19.771   5.514  16.522 -0.0213  0.1040  0.2324
39834W        W48434  12.827   1.860  21.312 -0.2021 -0.0377 -0.3796
39835W        W48435   3.865   3.447   0.767 -0.0742  0.0185  0.3044
39836W        W48436   6.092   0.895  23.230  0.1707  0.1754  0.1588
39837W        W48437   8.834   1.971  30.895 -0.0576  0.0708 -0.1015
39838W        W48438   2.786   0.696  11.243  0.0881 -0.0134 -0.0940
39839W        W48439  11.846   4.743  11.226  0.2655 -0.0234  0.1022
39840W        W48440  18.579   5.185   2.632 -0.0038  0.1752 -0.0527
39841W        W48441   0.606   4.775   3.697  0.2348  0.2865 -0.1400
39842W        W48442   7.252   3.689  24.127 -0.1637 -0.2510 -0.0995
39843W        W48443   9.872   4.877   7.375  0.0564  0.1731  0.3107
39844W        W48444  22.378   0.546  28.266 -0.0457  0.2785 -0.1085
39845W        W48445  10.977   2.746  30.493  0.0343 -0.0949  0.0985
39846W        W48446  18.972   1.714  18.369 -0.1122  0.0989  0.1058
39847W        W48447   8.888   1.255  23.766 -0.3404  0.3326  0.0120
39848W        W48448   6.549   7.338   5.947  0.0312 -0.0303 -0.0616
39849W        W48449   4.972   5.356  17.455 -0.0656 -0.0648  0.2596
39850W        W48450  12.062   0.231  28.604  0.0084 -0.1770 -0.0415
39851W        W48451  13.957   3.628  17.944  0.2526  0.0273 -0.0419
39852W        W48452  18.353   6.213  21.845 -0.1100 -0.0838 -0.0490
39853W        W48453   0.754   6.531  10.507 -0.1731  0.2445 -0.1127
39854W        W48454   1.796   7.427  29.513 -0.1138  0.0654  0.2625
39855W        W48455  11.415   6.703   8.610 -0.0269 -0.2203  0.2928
39856W        W48456  14.976   4.443  15.442  0.0078  0.0172 -0.0317
39857W        W48457  16.093   4.706   3.249 -0.0962  0.1935  0.0860
39858W        W48458   5.507   5.768  22.324  0.0414  0.0104  0.2193
39859W        W48459  19.548   7.043   5.044  0.0392  0.2714  0.0125
39860W        W48460  19.560   7.128  15.811 -0.2063 -0.0446  0.2287
39861W        W48461  11.009   2.427   1.740 -0.0313  0.0067  0.0145
39862W        W48462  11.554   0.933  30.201 -0.1351  0.0296  0.4243
39863W        W48463   2.612   1.132  24.099 -0.2258  0.0126  0.2014
39864W        W48464  14.205   3.783   0.761  0.3140 -0.1835 -0.1787
39865W        W48465  22.834   7.524   8.559  0.0339 -0.0276  0.1355
39866W        W48466  19.651   0.139   7.990  0.4201 -0.0637 -0.3632
39867W        W48467  15.233   7.005  21.128 -0.1233 -0.0831 -0.1369
39868W        W48468   8.060   1.521  25.017  0.2228 -0.1502 -0.0393
39869W        W48469  20.876   6.129  29.751 -0.0128  0.0534  0.1579
39870W        W48470   5.338   0.298  24.644 -0.1728  0.1298  0.3085
39871W        W48471  23.156   1.002   0.949 -0.0170 -0.1116 -0.0306
39872W        W48472  12.914   1.271   1.276 -0.0436  0.1011 -0.0043
39873W        W48473  11.328   0.664  19.431  0.2883 -0.1287 -0.0461
39874W        W48474   1.926   7.506  23.360  0.2110 -0.0537 -0.0971
39875W        W48475  15.597   7.163  24.863  0.0691 -0.0557 -0.4211
39876W        W48476  24.662   3.392   2.876  0.0371  0.0222 -0.1594
39877W        W48477  15.275   5.180  26.387  0.0678 -0.0695 -0.0484
39878W        W48478  20.399   5.014  20.480  0.3303  0.1880  0.1363
39879W        W48479   7.986   7.621   9.429  0.2873 -0.0508  0.0220
39880W        W48480   0.649   4.188  29.696 -0.0474 -0.0401 -0.3995
39881W        W48481  20.173   2.567  31.723 -0.1326  0.1385  0.0192
39882W        W48482   3.430   7.394   8.071 -0.2998  0.2547 -0.0311
39883W        W48483   6.073   1.707   2.968  0.1384 -0.0336 -0.2812
39884W        W48484   0.544   7.145   9.142  0.1809  0.0429 -0.0845
39885W        W48485  14.037   6.225  27.882 -0.2684  0.3987  0.0832
39886W        W48486   6.444   1.935   3.300  0.3668  0.0097 -0.2844
39887W        W48487   6.867   1.360  29.909  0.0644  0.0267 -0.2138
39888W        W48488   5.157   2.072  13.021 -0.0155  0.1365 -0.1427
39889W        W48489   4.305   6.748   0.851 -0.0221 -0.0964  0.0010
39890W        W48490  17.313   5.789   8.115  0.0898  0.0254 -0.0760
39891W        W48491   2.647   3.999   5.768 -0.1178  0.0424  0.0362
39892W        W48492  21.826   1.759  21.955 -0.3214 -0.1523 -0.0754
39893W        W48493   8.639   2.691  23.955 -0.1084 -0.1170  0.1041
39894W        W48494  10.656   4.870  30.195 -0.0902  0.1941  0.0350
39895W        W48495  17.462   7.176  19.792 -0.3527 -0.2562  0.1306
39896W        W48496   0.535   1.889  24.279 -0.0761  0.1227  0.0875
39897W        W48497  14.911   5.984  21.217  0.1278 -0.0087  0.0668
39898W        W48498   2.059   0.750   8.793  0.0404  0.0167  0.0938
39899W        W48499  17.486   5.521  27.287  0.1382 -0.0771 -0.0293
39900W        W48500  21.410   7.228   5.764 -0.1811  0.2166 -0.0876
39901W        W48501  24.741   0.381  27.229 -0.0922  0.1870 -0.0727
39902W        W48502  20.898   2.653  19.422 -0.1954  0.3617 -0.2579
39903W        W48503  18.987   5.347  10.382 -0.0084  0.2492 -0.0326
39904W        W48504  17.241   4.359  26.012 -0.3030  0.0934 -0.3042
39905W        W48505  23.212   0.859  32.739  0.0603  0.2518  0.0266
39906W        W48506  24.310   3.417  13.886 -0.2539 -0.2026 -0.0418
39907W        W48507  12.058   2.313   8.901  0.0273  0.2768  0.2967
39908W        W48508  23.187   2.075  12.597 -0.0221  0.1826 -0.1757
39909W        W48509  24.889   1.363  30.170  0.0804 -0.0757 -0.2343
39910W        W48510   2.496   5.620  23.648 -0.3804 -0.1808  0.1611
39911W        W48511  14.496   0.654  23.578  0.0292 -0.2038  0.2387
39912W        W48512  16.643   1.844  20.733  0.0337  0.1383 -0.0327
39913W        W48513   4.801   1.641  28.863 -0.1121 -0.3478 -0.1702
39914W        W48514  20.316   1.172  28.907  0.0877 -0.3365 -0.2168
39915W        W48515  17.924   0.111  21.716 -0.1180  0.0318  0.0919
39916W        W48516   8.211   1.323  32.549  0.2558 -0.2356  0.4875
39917W        W48517  16.704   7.022  31.101 -0.1084 -0.1841 -0.0783
39918W        W48518   5.381   2.342  22.744  0.0170  0.1463  0.0091
39919W        W48519  14.176   1.398  19.623 -0.1778 -0.2676 -0.0685
39920W        W48520   0.815   6.717  24.149 -0.0018  0.1598 -0.0227
39921W        W48521  19.056   1.582  24.385 -0.1167 -0.1685 -0.2087
39922W        W48522   0.762   2.584   4.464 -0.0209  0.0454 -0.2138
39923W        W48523  19.347   7.294   1.126 -0.0155 -0.1156 -0.1878
39924W        W48524   2.779   4.300  11.082 -0.0947 -0.0722 -0.0455
39925W        W48525   5.546   7.681   8.416  0.1848 -0.1684  0.1975
39926W        W48526   3.569   6.868   2.273 -0.2884 -0.3339 -0.0102
39927W        W48527  14.211   0.889  25.451 -0.2043  0.1474  0.0446
39928W        W48528   1.532   3.841  13.857  0.0949  0.0712  0.0169
39929W        W48529   9.133   1.592  11.448  0.0273 -0.1331 -0.1997
39930W        W48530  22.330   5.871  27.863 -0.2143  0.1940  0.1414
39931W        W48531  19.283   3.100   9.957  0.1735  0.0744  0.4278
39932W        W48532  15.633   6.640   8.254 -0.0974  0.0838  0.1005
39933W        W48533   8.750   6.337   8.253  0.2098 -0.1667  0.0568
39934W        W48534   2.371   7.157  24.608  0.3532 -0.0950 -0.1303
39935W        W48535  17.451   6.383   1.029  0.0967 -0.0428  0.0973
39936W        W48536   8.333   6.436  29.278  0.2350 -0.0482  0.2842
39937W        W48537   0.639   5.718  31.510  0.0979  0.0817  0.2087
39938W        W48538   1.465   5.822   9.657 -0.0449 -0.3307  0.0811
39939W        W48539  10.117   1.723  22.023  0.1800  0.1597 -0.2849
39940W        W48540  22.848   1.018  22.560  0.0229 -0.2544  0.0585
39941W        W48541   6.514   1.468  10.918 -0.1083 -0.0709 -0.0533
39942W        W48542   4.292   7.183  12.048 -0.1404 -0.3675 -0.1841
39943W        W48543  21.970   3.637  23.834  0.0269  0.0718  0.0745
39944W        W48544  12.242   4.143  31.797 -0.1346 -0.0470  0.0886
39945W        W48545   9.342   6.180  12.464  0.0286 -0.0525 -0.0561
39946W        W48546  18.144   2.806  31.617  0.0381  0.1990 -0.0309
39947W        W48547  24.677   2.777  11.291 -0.4757 -0.0410  0.2625
39948W        W48548  11.221   3.111  20.564 -0.0436 -0.1159  0.1132
39949W        W48549   3.082   5.971  14.760  0.3648  0.6598  0.0617
39950W        W48550   7.660   4.509  11.642  0.2816 -0.1350 -0.1506
39951W        W48551   8.635   1.997   6.545  0.0894 -0.0422 -0.1628
39952W        W48552  15.067   5.257  26.921  0.0135  0.0495  0.0975
39953W        W48553  11.110   1.343   8.608  0.1019  0.1922 -0.1758
39954W        W48554   1.296   5.951  27.419 -0.0878  0.0326  0.6194
39955W        W48555  14.921   4.240  28.417  0.0131 -0.2348  0.0176
39956W        W48556   5.239   1.788  17.697 -0.1680 -0.1113  0.0467
39957W        W48557   9.814   1.453   1.196  0.0482 -0.1842 -0.2237
39958W        W48558  10.701   6.707  29.313 -0.2021  0.1600 -0.4020
39959W        W48559   1.954   5.797   5.037 -0.0967 -0.0920 -0.0771
39960W        W48560  23.481   3.454   9.334  0.1969  0.1062  0.0195
39961W        W48561   6.746   5.334  10.319  0.1185 -0.0796 -0.1251
39962W        W48562  10.360   2.236   0.118  0.1671 -0.3946 -0.1711
39963W        W48563  24.276   3.470  23.386  0.0537 -0.0759  0.1050
39964W        W48564  11.178   4.936  32.555  0.0926  0.1980 -0.2595
39965W        W48565  24.619   1.895  27.193  0.2715 -0.0810  0.0642
39966W        W48566   5.594   3.341   0.856  0.4071 -0.0424 -0.1597
39967W        W48567   2.724   3.890  10.810 -0.1450 -0.1493  0.0844
39968W        W48568  20.260   1.826   1.950 -0.1472  0.2801 -0.2202
39969W        W48569   7.232   5.330  22.078  0.2386  0.1178  0.0119
39970W        W48570  17.317   5.885   5.949 -0.2334  0.0989 -0.2206
39971W        W48571   2.816   6.121  30.931 -0.0597  0.2754  0.2856
39972W        W48572   3.248   0.577   2.363 -0.2402 -0.0366  0.0532
39973W        W48573   6.943   1.728  10.809  0.0098 -0.2360  0.2756
39974W        W48574  11.879   4.781  19.123 -0.0184 -0.1386 -0.2279
39975W        W48575  10.825   5.102   4.868  0.1359 -0.1967  0.1931
39976W        W48576  19.786   2.674  10.189 -0.1397 -0.0503 -0.0874
39977W        W48577  10.056   2.670   7.098  0.2249  0.1900  0.1434
39978W        W48578   0.397   6.719  11.489  0.0618 -0.3805  0.2090
39979W        W48579  24.128   3.140   0.020 -0.1076  0.1624  0.1157
39980W        W48580   9.199   1.536   5.946 -0.3438  0.0308  0.0248
39981W        W48581  19.421   1.667   8.221 -0.0645  0.2482  0.0567
39982W        W48582   8.748   5.204   6.527  0.2152 -0.1116  0.0907
39983W        W48583  15.934   3.024  24.934 -0.0336 -0.1276  0.0716
39984W        W48584  12.859   5.125  32.500  0.1139 -0.0449 -0.0716
39985W        W48585   2.331   4.053  16.344 -0.1346 -0.3947 -0.0615
39986W        W48586  19.709   2.217  22.101 -0.2734  0.0618  0.3937
39987W        W48587   0.079   6.235  29.989  0.2252 -0.0339 -0.1872
39988W        W48588   0.613   1.163   7.479  0.0391 -0.4551  0.2433
39989W        W48589  21.969   5.427   7.414  0.1478 -0.0562  0.0196
39990W        W48590   5.631   4.277  13.027  0.2355  0.0964  0.0393
39991W        W48591   0.576   6.341  21.849  0.0918  0.1277  0.0906
39992W        W48592  18.635   4.873  24.869  0.0415  0.0295  0.1310
39993W        W48593   5.857   2.348   2.690 -0.1996  0.1142 -0.0615
39994W        W48594   1.533   2.203  26.568 -0.0504 -0.0463 -0.0938
39995W        W48595  20.619   7.318  29.905 -0.2475  0.3291  0.1357
39996W        W48596  14.252   4.426  29.688  0.0111 -0.1221  0.1898
39997W        W48597  22.814   7.652   3.636  0.1624  0.2329 -0.3540
39998W        W48598  22.436   5.418  29.602 -0.0049 -0.0251 -0.1587
39999W        W48599  11.261   7.592  32.045 -0.3097  0.2245  0.0755
40000W        W48600  24.667   3.784  29.821  0.2033 -0.0419  0.1087
40001W        W48601  10.381   2.844  19.686 -0.1113  0.0667  0.1844
40002W        W48602  23.616   5.654  30.217  0.1513  0.1551 -0.0993
40003W        W48603   4.851   6.348   8.519  0.0041  0.0531  0.0128
40004W        W48604  14.515   4.596  26.836  0.0411 -0.0112 -0.1792
40005W        W48605  24.260   4.739  20.562  0.0256  0.2494 -0.4049
40006W        W48606  11.395   0.593  31.520 -0.0374 -0.1230  0.0427
40007W        W48607   5.303   6.492  24.616 -0.3775  0.2259 -0.0587
40008W        W48608   7.712   0.018  15.482 -0.0115 -0.0277  0.1494
40009W        W48609   8.555   6.541  28.136  0.0658 -0.1491  0.0469
40010W        W48610   2.375   4.498  13.112  0.0506  0.1587 -0.1922
40011W        W48611  22.138   4.896   5.112  0.2562  0.0416  0.1149
40012W        W48612  10.483   2.238  26.848  0.4538 -0.2124  0.0190
40013W        W48613  13.539   4.906  22.679  0.2919  0.1552  0.1734
40014W        W48614   5.769   7.650  26.140 -0.0932  0.0577 -0.4100
40015W        W48615  23.354   2.008   8.108  0.3273  0.1281  0.1088
40016W        W48616   6.377   1.421  25.091  0.0727 -0.1073 -0.0941
40017W        W48617  12.248   2.024  21.155  0.3645 -0.1691  0.1862
40018W        W48618  18.726   1.340  25.202 -0.1438  0.1457 -0.0339
40019W        W48619   7.018   3.982  14.192  0.2053  0.1142 -0.0159
40020W        W48620  24.703   7.176  28.394  0.0349  0.1156 -0.2451
40021W        W48621   0.282   2.601   1.192 -0.0089  0.2471  0.1184
40022W        W48622   3.687   4.943   3.605  0.1577 -0.3389 -0.2544
40023W        W48623   7.421   3.406  31.052  0.0622 -0.1060  0.3811
40024W        W48624  14.674   0.931  22.307  0.0538  0.1696  0.0239
40025W        W48625  22.312   2.403   3.027  0.1182  0.0658 -0.0459
40026W        W48626  13.361   5.776  24.986  0.2645  0.0489  0.0181
40027W        W48627  13.825   2.733   8.396  0.0816  0.1103 -0.1526
40028W        W48628  13.939   0.289  16.937 -0.0707 -0.0586  0.2731
40029W        W48629  21.246   4.571  21.995  0.0571 -0.2887 -0.1501
40030W        W48630  24.804   7.779  32.734  0.1299  0.2853  0.1204
40031W        W48631  15.830   1.915  25.343  0.0279  0.2322 -0.2026
40032W        W48632  12.391   0.033  19.295  0.1189 -0.1456 -0.0045
40033W        W48633  17.780   3.477  21.876 -0.0885  0.0334 -0.0301
40034W        W48634  15.338   5.647  24.034 -0.1855  0.1940 -0.1921
40035W        W48635  21.501   6.081  11.575  0.0608 -0.1389 -0.1239
40036W        W48636  16.146   3.208  29.344 -0.0857 -0.1305 -0.2416
40037W        W48637  13.436   6.938  27.835 -0.0548  0.0595 -0.2728
40038W        W48638   7.616   7.583  14.109 -0.2361 -0.2743  0.2305
40039W        W48639  13.632   3.248  21.761  0.3031 -0.3696 -0.2956
40040W        W48640  24.135   6.975   5.276  0.0538 -0.1376 -0.0639
40041W        W48641   8.883   3.757   7.729  0.0083  0.1368 -0.2252
40042W        W48642  22.096   1.671  10.031 -0.2362  0.0484  0.1649
40043W        W48643   4.115   5.431   5.339  0.1082  0.0131  0.3653
40044W        W48644  13.097   7.433  25.219  0.0264  0.1723  0.1576
40045W        W48645  16.337   6.187   4.413 -0.2771 -0.2120 -0.2481
40046W        W48646  21.376   5.329  28.300 -0.3596  0.3168 -0.1077
40047W        W48647  11.602   6.845  24.048  0.0488 -0.0228 -0.1962
40048W        W48648  22.915   0.048   0.740  0.0409 -0.1200 -0.2900
40049W        W48649  10.666   5.520   4.506 -0.0781  0.1516 -0.1830
40050W        W48650  20.060   5.710  23.574  0.0795  0.3356  0.0404
40051W        W48651  10.418   5.655  27.280  0.0046 -0.2187 -0.0959
40052W        W48652   1.553   3.537   8.019 -0.0636  0.0971  0.1499
40053W        W48653   1.735   5.972  27.634 -0.3403 -0.0808  0.0664
40054W        W48654  12.839   3.981   6.186 -0.0669 -0.3129 -0.1223
40055W        W48655   5.533   2.817  11.904  0.0231  0.0097  0.1269
40056W        W48656   4.748   5.559  23.219 -0.0782  0.0216 -0.3350
40057W        W48657  23.622   0.840   3.860  0.1602  0.1220  0.0491
40058W        W48658   7.356   2.032  25.802  0.1079  0.0187 -0.2378
40059W        W48659   9.846   2.602   6.280  0.0405  0.2086 -0.4003
40060W        W48660   7.477   6.699   4.207  0.0133  0.1828 -0.0041
40061W        W48661  19.501   5.160  29.413 -0.1034  0.1347  0.1102
40062W        W48662   4.623   4.418   5.304 -0.1311  0.0708  0.0451
40063W        W48663   9.511   3.161  23.211  0.3502  0.0756 -0.1795
40064W        W48664  23.457   3.065  12.243 -0.2485 -0.1481 -0.0617
40065W        W48665  11.513   3.888  24.952 -0.0642 -0.0972  0.2984
40066W        W48666   0.756   5.101   5.494 -0.1529 -0.0043 -0.1177
40067W        W48667  22.803   0.849  29.004 -0.1784 -0.0273 -0.1582
40068W        W48668  10.710   6.388  12.205  0.2921 -0.2911  0.1799
40069W        W48669  16.565   7.597   7.202 -0.0722  0.0067 -0.0847
40070W        W48670  19.889   5.743   3.215  0.0984  0.2765 -0.0742
40071W        W48671   8.115   0.055  26.181 -0.0893  0.0789 -0.2983
40072W        W48672   0.788   0.865  25.488 -0.1419 -0.2116 -0.3231
40073W        W48673  16.060   6.770   0.811 -0.2397 -0.1025  0.0496
40074W        W48674  13.983   6.263  25.193 -0.4175 -0.1041 -0.0787
40075W        W48675  22.477   6.924   0.600  0.1718 -0.3085 -0.1437
40076W        W48676  21.230   7.313  26.115  0.0862  0.0313  0.1883
40077W        W48677   0.492   5.937  26.144  0.0285 -0.0931  0.0262
40078W        W48678   9.962   2.813  30.678  0.2195 -0.2978 -0.0351
40079W        W48679  12.848   5.949   0.955  0.1103  0.1048 -0.1574
40080W        W48680  24.520   2.501  12.533  0.2622 -0.2544  0.1553
40081W        W48681  11.138   0.684  28.745  0.0062  0.0839 -0.4746
40082W        W48682   3.049   4.974   1.386  0.1530  0.0892 -0.1314
40083W        W48683   9.645   4.229   9.641 -0.1191  0.1722 -0.2149
40084W        W48684   5.090   1.846  17.126 -0.2407 -0.0420 -0.1146
40085W        W48685   2.175   2.108  30.607  0.3701  0.0032  0.3062
40086W        W48686  20.724   1.761  11.038  0.2584 -0.1141  0.1913
40087W        W48687   3.196   1.859  27.176  0.0126  0.0203  0.0016
40088W        W48688  10.738   1.799  31.577 -0.0392  0.0100 -0.1569
40089W        W48689   4.532   5.440  25.071 -0.1609  0.0428  0.2171
40090W        W48690   6.528   2.683  32.703 -0.0035 -0.1356  0.3709
40091W        W48691   0.147   3.378  12.379 -0.0538 -0.0555  0.1414
40092W        W48692   3.719   1.509  11.964  0.3208 -0.0602 -0.1204
40093W        W48693  23.219   7.554   8.922 -0.1038  0.0401 -0.1223
40094W        W48694  19.691   5.934  27.237  0.0784 -0.1821  0.0550
40095W        W48695   7.637   3.295  32.446 -0.2417  0.1077 -0.0351
40096W        W48696   7.357   2.387  30.756 -0.4015  0.0300  0.0249
40097W        W48697   7.822   0.216   7.911  0.0532  0.0662 -0.1073
40098W        W48698  17.962   4.916  21.499  0.1685 -0.3752 -0.2624
40099W        W48699  17.576   6.938  23.175 -0.0805  0.0953 -0.1025
40100W        W48700   1.516   3.380  28.358 -0.0201 -0.1031 -0.1224
40101W        W48701  21.111   7.558  30.130  0.1108 -0.0680 -0.0096
40102W        W48702  12.151   1.706  27.094  0.1283  0.2183  0.2248
40103W        W48703   3.462   3.965   2.861  0.0771 -0.0438 -0.1534
40104W        W48704  18.672   6.630   3.350  0.0607  0.0232  0.0141
40105W        W48705   7.500   3.393  29.315  0.2535 -0.0328  0.1079
40106W        W48706  17.041   5.411  30.326 -0.1477  0.3154 -0.0729
40107W        W48707  16.979   4.217   3.331  0.0808 -0.0582  0.1121
40108W        W48708   7.384   7.069  29.019  0.0678  0.0193 -0.1026
40109W        W48709   2.629   4.973   3.267  0.2195  0.3195  0.0219
40110W        W48710   8.292   5.151  10.966  0.2453  0.0350 -0.0741
40111W        W48711   2.463   3.813   4.693 -0.0794 -0.1241 -0.0948
40112W        W48712  20.339   6.999   0.127 -0.0699 -0.1134  0.2067
40113W        W48713   5.881   1.047   2.047 -0.1376 -0.4093  0.1561
40114W        W48714  17.391   4.536  21.123 -0.3988 -0.3663 -0.1183
40115W        W48715  13.300   5.982  28.333 -0.0221  0.1066 -0.3912
40116W        W48716   4.159   2.031  30.859  0.3100  0.2854  0.0871
40117W        W48717   7.101   1.093  16.552 -0.1465  0.2552  0.1427
40118W        W48718   1.417   2.094  32.092 -0.1124 -0.1135  0.1188
40119W        W48719  21.327   6.886   9.317  0.1504  0.0449  0.1005
40120W        W48720   2.269   4.814   5.869  0.2755  0.2559 -0.1232
40121W        W48721  20.402   1.078  18.026 -0.1192  0.3897  0.0273
40122W        W48722  20.214   5.450  30.469 -0.4838 -0.2746 -0.1580
40123W        W48723   5.113   7.030  31.820 -0.0324  0.0243 -0.3772
40124W        W48724   4.841   0.236  23.246  0.1234  0.0986 -0.0311
40125W        W48725   2.466   3.510   9.876  0.0792  0.0118  0.0051
40126W        W48726   9.056   0.297  29.675 -0.0723  0.0955  0.2475
40127W        W48727  14.026   5.693  27.910 -0.0015  0.0724 -0.1561
40128W        W48728  15.404   1.038   2.075  0.0446  0.1368 -0.0830
40129W        W48729   1.121   3.546  31.390 -0.0136 -0.0362 -0.3158
40130W        W48730  19.942   5.539  25.980 -0.1512  0.0898  0.0245
40131W        W48731  12.781   2.004  19.820  0.1015  0.2392 -0.2335
40132W        W48732   0.980   4.798  14.817  0.0388 -0.0249  0.1581
40133W        W48733  15.928   2.167  26.131  0.2427  0.2288 -0.0719
40134W        W48734  11.330   1.153  18.173  0.3211 -0.2616  0.0761
40135W        W48735   3.761   7.633  31.155  0.1637  0.6006 -0.3191
40136W        W48736   8.500   2.149  23.882  0.2960  0.0365 -0.3333
40137W        W48737  23.848   0.035   2.695  0.1111 -0.2450  0.4527
40138W        W48738  18.691   2.842  20.325 -0.0603 -0.0969 -0.1110
40139W        W48739  22.613   0.179  13.339  0.2745  0.0671 -0.0346
40140W        W48740  23.207   2.957  10.703  0.1064 -0.3871 -0.5360
40141W        W48741   7.472   6.213  14.720  0.0885  0.2756 -0.3492
40142W        W48742  12.484   2.853  18.481 -0.1375  0.2825  0.0552
40143W        W48743   0.537   4.609  10.708  0.2331  0.1305 -0.1423
40144W        W48744  21.295   2.023  26.240  0.2319 -0.1311 -0.0628
40145W        W48745   5.329   6.344   9.122 -0.0701  0.1240  0.2201
40146W        W48746  14.084   2.355  20.648 -0.1375 -0.0831  0.1843
40147W        W48747  12.424   5.728   5.105 -0.4457 -0.1036 -0.1786
40148W        W48748  19.900   3.003  16.104 -0.0371 -0.0138 -0.1259
40149W        W48749  13.836   4.832  17.181 -0.1814  0.0219 -0.0733
40150W        W48750  17.052   7.750  27.648  0.1202  0.1220  0.0635
40151W        W48751  15.430   6.902  28.149 -0.1239 -0.1397 -0.3202
40152W        W48752   5.027   3.834  13.926  0.0701  0.0904  0.0640
40153W        W48753   3.623   0.785  23.068 -0.1048  0.1583 -0.0287
40154W        W48754  12.866   1.215   5.036  0.1859  0.0088  0.1119
40155W        W48755   3.821   2.042  27.915 -0.0926 -0.0263 -0.1090
40156W        W48756  20.184   4.376  31.519  0.0720  0.0813  0.1877
40157W        W48757  22.460   6.259  28.152  0.2570 -0.1287  0.3645
40158W        W48758  15.100   2.122  17.474 -0.0067  0.0764 -0.1343
40159W        W48759   4.986   6.753  12.417 -0.0711  0.1287 -0.1977
40160W        W48760  22.160   3.887  23.439 -0.1690  0.2163 -0.0062
40161W        W48761  23.308   1.246   5.817 -0.2154  0.2398  0.2444
40162W        W48762  23.916   7.551  26.826 -0.1236 -0.1499  0.0406
40163W        W48763  16.950   4.660  32.436 -0.0428  0.0311 -0.1181
40164W        W48764   2.937   5.358  23.841 -0.0041  0.1293 -0.0532
40165W        W48765  17.918   0.688  21.542 -0.0321 -0.1734 -0.0359
40166W        W48766   8.882   6.205   6.288 -0.0743 -0.4566  0.0023
40167W        W48767  19.671   5.172  26.213  0.0119  0.1804  0.1091
40168W        W48768  19.604   0.391  11.097  0.0081  0.0702  0.2604
40169W        W48769  20.616   1.237  31.825  0.1038 -0.1715 -0.1917
40170W        W48770   2.041   1.625  15.033  0.0528 -0.0893  0.0454
40171W        W48771   4.598   1.971  18.784  0.0920  0.1195 -0.2010
40172W        W48772   5.858   2.350   8.908  0.0763 -0.1859  0.1966
40173W        W48773  13.018   4.335   2.891  0.1526  0.1304  0.2414
40174W        W48774  23.467   4.315   5.203 -0.0010 -0.0020  0.0742
40175W        W48775  21.984   3.178  32.878 -0.0825  0.1744 -0.1238
40176W        W48776  23.982   1.286  13.137 -0.0198 -0.1784  0.0151
40177W        W48777  11.528   5.381  24.164  0.1483  0.2454 -0.1410
40178W        W48778  21.184   2.816  29.653 -0.0574 -0.1990  0.2944
40179W        W48779  19.416   2.269  20.457 -0.1515 -0.1837  0.0435
40180W        W48780  17.451   5.489  26.132 -0.1010 -0.0640  0.0506
40181W        W48781   5.066   6.105  17.012 -0.0164  0.2136 -0.0190
40182W        W48782  23.118   6.406  32.301  0.0250 -0.2773 -0.2274
40183W        W48783  23.881   0.751   3.295 -0.2157 -0.2998  0.0008
40184W        W48784  17.166   1.438  31.808  0.0167 -0.0134  0.1470
40185W        W48785   5.128   0.395  31.042  0.0228  0.0866 -0.0047
40186W        W48786  12.516   0.757  18.458  0.1745  0.2044 -0.0731
40187W        W48787  13.527   3.795  23.536  0.0104  0.2087 -0.3546
40188W        W48788  15.875   5.740  30.790 -0.2011 -0.2016 -0.1691
40189W        W48789   0.857   4.573   2.784  0.1519 -0.2579  0.1270
40190W        W48790  15.452   6.369   3.739  0.1749  0.2843  0.0998
40191W        W48791  24.103   4.666  10.902 -0.1165 -0.0762  0.2100
40192W        W48792   5.417   4.467  15.270  0.0592  0.1638  0.1455
40193W        W48793  21.615   2.873   1.828 -0.1640 -0.2654 -0.0694
40194W        W48794  21.655   6.662  18.887  0.1880  0.1028 -0.1798
40195W        W48795   7.639   3.740   9.102  0.0993  0.0274 -0.0253
40196W        W48796  24.897   1.753   8.135 -0.2000  0.0069 -0.3108
40197W        W48797  10.879   5.250  20.150  0.0057 -0.0074  0.0373
40198W        W48798   0.447   0.651  10.131  0.0191 -0.0528 -0.1258
40199W        W48799  17.386   7.059  21.317  0.0259  0.2274 -0.1113
40200W        W48800   7.103   0.084  21.966  0.1193  0.0208  0.0287
40201W        W48801  10.160   0.739  23.218  0.0694 -0.2781  0.1488
40202W        W48802  18.368   3.592  18.875 -0.0381 -0.1660  0.1741
40203W        W48803   5.756   4.645   5.909  0.5648 -0.2478 -0.4055
40204W        W48804  22.943   0.213   1.483 -0.1093 -0.0068 -0.0627
40205W        W48805  22.574   4.831   1.300  0.4002  0.2972  0.1847
40206W        W48806  23.579   5.925  24.008 -0.2869  0.3491  0.1022
40207W        W48807   4.469   3.362  16.781 -0.2507 -0.2913 -0.0102
40208W        W48808  20.784   2.440  31.054 -0.0384 -0.1147 -0.0402
40209W        W48809  12.171   6.785   7.355 -0.1479  0.0566  0.1339
40210W        W48810   0.698   0.775  14.858  0.1004  0.1520 -0.0141
40211W        W48811  20.149   1.079  28.461  0.1481 -0.0037 -0.0079
40212W        W48812  20.531   3.326  19.240  0.0113 -0.1192  0.1308
40213W        W48813   7.879   2.041   0.572 -0.0346 -0.0271  0.0585
40214W        W48814  15.791   6.536   0.395 -0.0076 -0.2310 -0.2725
40215W        W48815   6.832   3.099   2.004  0.0840  0.0379 -0.1588
40216W        W48816   1.818   1.186  24.941  0.2321  0.0870 -0.4564
40217W        W48817   0.690   5.055  26.658 -0.0930 -0.3424  0.1502
40218W        W48818  21.560   2.750  25.248  0.0389  0.0362 -0.0148
40219W        W48819  15.570   3.402   8.322 -0.3680 -0.0015 -0.1523
40220W        W48820  19.300   0.648  18.975 -0.2271 -0.1433 -0.1190
40221W        W48821  23.230   2.858  29.579  0.3442 -0.2638  0.0196
40222W        W48822  22.629   4.570  20.142  0.2466  0.0064  0.0856
40223W        W48823  19.708   3.365  10.980 -0.0109 -0.2416 -0.3402
40224W        W48824  20.853   1.977   3.482 -0.0464  0.3103  0.1859
40225W        W48825   6.398   0.507   8.880  0.0213  0.1454  0.0112
40226W        W48826   2.556   0.540  14.517  0.0626  0.1165  0.2199
40227W        W48827  24.845   6.884  26.199 -0.2255 -0.1480 -0.1007
40228W        W48828   7.809   0.547   5.906  0.1715 -0.1027  0.2992
40229W        W48829  17.011   0.043  29.555  0.2748  0.0669 -0.0223
40230W        W48830  10.674   0.133   9.495  0.0002  0.0001 -0.3218
40231W        W48831  14.259   3.460  32.836  0.2188 -0.3286  0.1806
40232W        W48832   5.599   1.727  32.100 -0.1106  0.0067  0.0775
40233W        W48833  12.675   3.882  18.715  0.3416  0.1315 -0.2741
40234W        W48834  12.401   2.589  10.706 -0.1364 -0.2601  0.3114
40235W        W48835  20.284   4.506  17.193  0.0109 -0.2771  0.1127
40236W        W48836  24.153   0.220   8.954  0.2542  0.4028 -0.0890
40237W        W48837  21.020   7.557  29.640  0.2378  0.1611  0.1445
40238W        W48838   4.681   0.092   6.684 -0.0166 -0.2157  0.1064
40239W        W48839   9.579   6.220  30.870 -0.0590 -0.4131  0.1121
40240W        W48840  22.939   1.721  30.202 -0.2942 -0.0363 -0.2460
40241W        W48841  23.525   6.632   5.052 -0.3538  0.0909  0.0244
40242W        W48842  20.875   1.364   3.389 -0.1398  0.3643  0.2009
40243W        W48843  17.530   5.681  10.949 -0.1687  0.0924 -0.5049
40244W        W48844  18.063   7.429  30.600  0.1620  0.0034  0.1327
40245W        W48845  22.812   3.092  30.273 -0.1297 -0.1370 -0.1016
40246W        W48846   3.404   5.268  26.084 -0.0988  0.1114 -0.0880
40247W        W48847  12.106   3.008   0.355  0.1543  0.2679 -0.3187
40248W        W48848   9.352   6.548   6.183  0.1558 -0.2435  0.0005
40249W        W48849   5.412   7.641   2.704 -0.1808 -0.1836 -0.0677
40250W        W48850  20.337   3.793  19.214 -0.2228 -0.0056  0.2548
40251W        W48851   4.137   1.823  30.313  0.0098 -0.3363 -0.0529
40252W        W48852   3.378   0.681   3.610  0.0354 -0.3933  0.0609
40253W        W48853   1.875   3.241  22.792 -0.0343  0.1525  0.4106
40254W        W48854  19.800   2.756   2.022  0.0033 -0.2358  0.1084
40255W        W48855   8.707   6.371  25.698  0.0945 -0.0251  0.1325
40256W        W48856  11.933   2.082  29.501  0.0059  0.0227 -0.1079
40257W        W48857   4.611   5.861  14.862 -0.0287  0.0027 -0.0359
40258W        W48858   5.581   1.930  31.487 -0.2870  0.3677  0.2881
40259W        W48859   8.346   3.680   1.187 -0.2244  0.1398  0.1561
40260W        W48860  15.351   0.957  24.236  0.1184 -0.1150 -0.2061
40261W        W48861  18.621   5.730   7.344  0.1251 -0.4967  0.1363
40262W        W48862  16.269   5.470  23.668  0.0473 -0.2898 -0.0498
40263W        W48863   6.853   3.376   6.633 -0.0878 -0.0695 -0.2228
40264W        W48864   7.138   3.208  24.508  0.0880  0.0611 -0.0622
40265W        W48865  12.384   2.671   3.323  0.0661 -0.2212  0.1777
40266W        W48866  17.325   3.169  23.778  0.0209 -0.0993 -0.0538
40267W        W48867  22.402   3.853   8.834  0.3787 -0.0761  0.0701
40268W        W48868  11.516   2.978   0.181  0.2587  0.0847  0.2606
40269W        W48869  24.734   3.169   5.698 -0.0764  0.3178 -0.0243
40270W        W48870   3.541   3.519   4.712  0.5237  0.0837  0.1626
40271W        W48871   0.723   7.096  26.589 -0.0190 -0.0618  0.0238
40272W        W48872   4.535   7.800   4.564  0.0925 -0.2796 -0.0905
40273W        W48873  22.101   6.654  23.299 -0.2143  0.1192 -0.1307
40274W        W48874   4.635   0.515   5.364  0.1614  0.0683 -0.0006
40275W        W48875  10.537   4.556  10.593  0.0153  0.2794 -0.1171
40276W        W48876  13.662   2.618  32.763 -0.2389 -0.0285  0.0051
40277W        W48877   8.237   0.467   4.794 -0.0637 -0.2994 -0.0860
40278W        W48878  16.098   1.978   4.552 -0.0245 -0.1564 -0.0872
40279W        W48879   4.974   1.423  25.310 -0.0384 -0.2465  0.1343
40280W        W48880  13.963   3.147  30.009 -0.0253  0.2156 -0.1441
40281W        W48881  16.072   6.704  31.858 -0.0971  0.1297 -0.1281
40282W        W48882  21.174   4.224  22.375 -0.3222  0.0681  0.1899
40283W        W48883  21.465   1.568   0.344 -0.0751 -0.2097  0.2101
40284W        W48884  22.340   0.344  21.300  0.2095 -0.1329  0.1201
40285W        W48885  19.505   1.866  31.061 -0.2752 -0.0991 -0.1959
40286W        W48886  12.098   3.090   1.325 -0.0338 -0.0208 -0.1942
40287W        W48887  12.151   4.147  30.904  0.1328 -0.2502  0.0662
40288W        W48888  23.588   4.092  13.722  0.0847 -0.2304 -0.3111
40289W        W48889   6.067   1.506  11.614  0.0923 -0.0264 -0.0008
40290W        W48890   5.555   0.436   3.050  0.0532  0.2692 -0.1194
40291W        W48891   7.881   5.300   8.136  0.1395 -0.0400  0.0114
40292W        W48892   8.389   5.543  12.107  0.2036  0.0383  0.2870
40293W        W48893  10.421   1.489   0.240  0.1454 -0.2074  0.0554
40294W        W48894  15.110   4.638   1.780  0.2553  0.1041 -0.0609
40295W        W48895   6.019   6.029  24.900 -0.0584 -0.2156 -0.1907
40296W        W48896  24.516   4.753  22.022 -0.0469  0.4672 -0.0181
40297W        W48897   2.774   4.473   3.361 -0.2749 -0.0316  0.0415
40298W        W48898  19.036   6.340   2.327  0.0017 -0.1167  0.0671
40299W        W48899  20.271   0.093   6.172 -0.1669  0.0851 -0.1573
40300W        W48900  13.051   3.838   5.763  0.1587  0.0146  0.1172
40301W        W48901  22.696   3.896  26.254  0.4136 -0.0127  0.2511
40302W        W48902  19.099   5.920   7.224  0.0009  0.0093 -0.2606
40303W        W48903  16.095   3.286  23.736  0.0475  0.1317  0.1498
40304W        W48904   0.167   4.469  21.564 -0.0941 -0.0269  0.0410
40305W        W48905  18.091   5.708  16.533  0.2204  0.0644 -0.2083
40306W        W48906   6.175   6.802  16.686 -0.0429  0.0006  0.0290
40307W        W48907  24.258   3.166  14.332  0.2012 -0.0772  0.0632
40308W        W48908  24.001   6.416   9.578  0.0235  0.2159  0.0952
40309W        W48909  19.797   0.550  30.383 -0.0337  0.0583  0.3589
40310W        W48910  15.262   7.335  29.344  0.0063 -0.1440 -0.1359
40311W        W48911   1.773   5.010  14.374 -0.2988 -0.1270 -0.0221
40312W        W48912  20.840   1.338   2.579  0.1679  0.4646  0.1983
40313W        W48913  22.408   2.029   9.973  0.2238  0.0989 -0.1227
40314W        W48914   4.433   4.800   4.724 -0.0582  0.2562  0.1178
40315W        W48915   9.676   4.625   1.003 -0.2974  0.0705 -0.2643
40316W        W48916  13.553   6.376   6.380  0.0520  0.2873  0.2200
40317W        W48917  22.593   1.069   4.081 -0.0625  0.0780  0.0413
40318W        W48918  16.153   7.785   7.562  0.0138 -0.0902 -0.1905
40319W        W48919   3.477   4.017   1.555 -0.0792 -0.0569  0.2038
40320W        W48920  11.306   3.184  32.361 -0.1101 -0.3012  0.0809
40321W        W48921   2.157   1.447  28.502  0.0010 -0.2438  0.1681
40322W        W48922  20.428   6.179   0.342 -0.2344  0.1249  0.0486
40323W        W48923  14.603   0.272   7.888  0.1828 -0.1006  0.1420
40324W        W48924  21.437   5.476  12.490 -0.2958  0.0386  0.0748
40325W        W48925  16.911   3.979   2.721 -0.1176 -0.0596 -0.3096
40326W        W48926   7.128   1.869   9.724 -0.1034  0.2406 -0.0468
40327W        W48927  12.403   1.079  18.095 -0.0442  0.1812 -0.1933
40328W        W48928   7.669   5.461  26.703 -0.0790 -0.0337 -0.2009
40329W        W48929  19.052   3.063  32.298 -0.2534  0.1851 -0.2511
40330W        W48930  17.938   3.465   0.972 -0.1710  0.1042 -0.2036
40331W        W48931  24.030   3.255  22.045  0.0007  0.1419 -0.1673
40332W        W48932  11.147   0.055  25.177  0.0254  0.0188  0.2086
40333W        W48933   4.290   7.457  31.163 -0.0796  0.0009 -0.0563
40334W        W48934  16.196   2.847   1.691  0.3471  0.3278 -0.0486
40335W        W48935  19.531   5.102  31.660 -0.0392 -0.0246  0.2475
40336W        W48936   0.453   2.922   0.814  0.1421  0.3654 -0.0920
40337W        W48937  24.509   0.877   5.437  0.0798  0.0091 -0.1636
40338W        W48938  16.123   4.927  23.631 -0.1157  0.2616 -0.0709
40339W        W48939   1.035   4.868  22.972 -0.1124 -0.1297  0.0780
40340W        W48940   7.472   4.092  14.015  0.1468  0.2825 -0.3345
40341W        W48941   5.006   5.937  31.002  0.2226  0.3191 -0.2681
40342W        W48942   8.968   7.381   6.900 -0.1650  0.1132 -0.1307
40343W        W48943  14.108   5.664  29.504  0.1446 -0.1301 -0.0271
40344W        W48944   2.469   3.528  22.213 -0.0875  0.1079  0.0836
40345W        W48945  21.919   3.274  20.161 -0.0738 -0.1915  0.0931
40346W        W48946  18.236   6.939  31.102 -0.1202  0.1009 -0.1764
40347W        W48947  17.477   2.484  26.558 -0.1366 -0.1288  0.0048
40348W        W48948  16.694   5.798  31.864  0.1559 -0.2855 -0.3024
40349W        W48949   3.421   5.089  30.900  0.0783  0.2057  0.0081
40350W        W48950  16.533   3.694  29.569  0.1746 -0.2635 -0.0395
40351W        W48951   0.403   5.580  24.411 -0.0451 -0.0456 -0.1418
40352W        W48952   1.996   3.158   4.324  0.2269 -0.0544  0.4476
40353W        W48953  16.402   2.105  15.167  0.2081 -0.2824 -0.1694
40354W        W48954   3.954   5.366   0.957  0.0706  0.0854  0.1881
40355W        W48955  11.797   0.875  29.366  0.2389 -0.2311  0.1191
40356W        W48956  18.172   6.286  24.296  0.0876  0.2445 -0.1060
40357W        W48957   2.638   4.104   6.875  0.1676  0.0598 -0.1978
40358W        W48958   2.379   5.201  32.535 -0.1317 -0.1388 -0.1164
40359W        W48959  12.128   1.350   9.880 -0.4760  0.1268  0.1583
40360W        W48960  16.537   5.857  17.621  0.0354  0.2209 -0.1555
40361W        W48961   6.929   6.054  29.777  0.0197  0.3109  0.1799
40362W        W48962  19.467   1.413  19.680 -0.0364  0.1087 -0.3883
40363W        W48963  20.523   0.514   4.366 -0.2725 -0.0942  0.1215
40364W        W48964  17.954   7.737  23.790  0.0555 -0.1933  0.0429
40365W        W48965  10.276   3.869   4.965  0.1205  0.0256 -0.0245
40366W        W48966  14.822   3.495  15.708 -0.2002  0.0034 -0.0135
40367W        W48967   9.870   2.446   0.264  0.1892 -0.0524 -0.1240
40368W        W48968  15.400   0.687   3.616  0.0403  0.0068 -0.0560
40369W        W48969  24.893   3.448  13.569 -0.2513  0.0972 -0.2598
40370W        W48970   9.713   2.751  21.907 -0.1180  0.0930  0.0159
40371W        W48971   0.571   6.903  23.760  0.0786 -0.0064  0.0962
40372W        W48972   4.656   4.150  30.843 -0.1922  0.1420 -0.1317
40373W        W48973   2.799   0.877   8.273  0.1548 -0.3747  0.1287
40374W        W48974  16.904   5.427  30.890  0.0626  0.0501 -0.4523
40375W        W48975  12.575   1.069   7.673 -0.3357  0.1404 -0.0985
40376W        W48976   2.880   7.489  23.169 -0.2190  0.1484  0.1977
40377W        W48977   8.345   4.913   0.172  0.0452  0.0904 -0.1373
40378W        W48978  18.193   2.196  15.530  0.2253  0.0396  0.0521
40379W        W48979   6.019   4.710   6.648  0.2553  0.1072  0.0626
40380W        W48980   1.141   6.228  30.936  0.1240 -0.0251  0.0641
40381W        W48981  10.168   6.281  30.174 -0.1417  0.0607  0.0462
40382W        W48982  10.905   7.616   5.995 -0.0597 -0.1693  0.4843
40383W        W48983   7.582   2.348   5.886  0.1482  0.2770 -0.2594
40384W        W48984   8.022   2.721  27.810 -0.1683  0.0983  0.2958
40385W        W48985  17.707   0.119   0.593 -0.2084  0.0603  0.1155
40386W        W48986  11.938   6.391   2.461 -0.3124 -0.0535 -0.1603
40387W        W48987   0.381   2.566  24.910 -0.4111 -0.0259  0.1964
40388W        W48988  11.012   2.460   7.758  0.0295 -0.0666  0.0526
40389W        W48989   4.888   0.729  14.369 -0.2459  0.3083  0.0579
40390W        W48990  11.453   5.220  11.230 -0.1580 -0.2258 -0.1784
40391W        W48991   3.781   7.713   7.292 -0.2487  0.2545 -0.0143
40392W        W48992  19.239   5.045  18.752 -0.1251  0.1795 -0.0506
40393W        W48993   4.575   1.448   2.296 -0.2823  0.1144 -0.0112
40394W        W48994   2.116   4.744  31.361 -0.0950  0.2833  0.0280
40395W        W48995   1.923   5.095   4.471  0.2174 -0.0175  0.1332
40396W        W48996  10.665   0.426  30.699  0.0712 -0.0334 -0.0408
40397W        W48997  22.116   0.377   6.401 -0.1242  0.2168  0.1782
40398W        W48998   9.040   4.923  23.238  0.0076 -0.2606  0.1941
40399W        W48999  22.314   7.369   7.404  0.0707  0.1922  0.4726
40400W        W49000   8.410   5.318  13.846 -0.1523  0.2010  0.0677
40401W        W49001  10.592   6.171  25.405  0.1604 -0.2436  0.0643
40402W        W49002   6.887   1.587  24.437  0.0540 -0.1283 -0.0605
40403W        W49003  18.043   7.145   6.630 -0.1239 -0.4537 -0.0234
40404W        W49004  13.338   1.401   7.551 -0.0876 -0.1458  0.1457
40405W        W49005   0.266   4.443   3.521  0.4110 -0.1272 -0.1863
40406W        W49006   5.813   7.236  14.315 -0.1596  0.3789  0.1420
40407W        W49007   8.862   1.517  24.643  0.1157  0.2958  0.1074
40408W        W49008  14.866   5.207   7.812  0.2977 -0.0686  0.1206
40409W        W49009   7.081   3.620  16.658 -0.0530  0.0156  0.3270
40410W        W49010   8.543   1.533  22.694  0.1362  0.1557  0.2412
40411W        W49011   3.460   0.061  26.522 -0.1408  0.0085  0.4004
40412W        W49012  20.571   0.447   2.610  0.0493  0.0621 -0.1305
40413W        W49013  20.715   7.377  30.396  0.0564  0.0786  0.2285
40414W        W49014  13.873   5.688   5.333 -0.0825  0.1562  0.2060
40415W        W49015  17.291   5.013   8.444 -0.0051 -0.0040 -0.0434
40416W        W49016  12.797   1.602   2.813 -0.0247  0.2102  0.0668
40417W        W49017  24.284   0.150  25.217  0.0240 -0.0617 -0.0759
40418W        W49018   2.018   5.054  24.630  0.0431 -0.1055  0.0498
40419W        W49019   3.980   4.766  32.143  0.5080  0.2009 -0.0064
40420W        W49020   6.242   6.287  30.540 -0.1440 -0.0569  0.0993
40421W        W49021  21.829   7.749  24.243  0.1306 -0.0261  0.3525
40422W        W49022  13.033   0.971  23.394  0.0709 -0.2300 -0.0440
40423W        W49023  13.648   4.421   7.740  0.1898  0.1421  0.0302
40424W        W49024  11.623   1.868  20.787 -0.0874  0.0060  0.0136
40425W        W49025  14.572   5.415  29.489 -0.2756  0.0973 -0.2250
40426W        W49026  18.984   2.319  20.133 -0.1691 -0.1173 -0.0226
40427W        W49027   9.262   0.033  32.409 -0.1097  0.1842 -0.3848
40428W        W49028   1.468   3.533  23.176 -0.0635 -0.1948  0.0936
40429W        W49029   8.179   1.683  32.949  0.0758  0.3185 -0.2190
40430W        W49030  20.007   4.457   2.475 -0.0840  0.2307 -0.0264
40431W        W49031   3.316   3.084  30.188  0.2068  0.1230  0.0771
40432W        W49032  20.285   5.988  11.352  0.0301 -0.2633  0.2184
40433W        W49033  22.214   3.902  27.274  0.1901 -0.1880 -0.0628
40434W        W49034   3.275   6.052   8.542 -0.1877  0.2227  0.2216
40435W        W49035  20.927   1.097   2.127  0.0048 -0.0694  0.2662
40436W        W49036   0.760   7.769  15.330 -0.0110  0.1096  0.0818
40437W        W49037   0.680   3.453  25.335 -0.1916 -0.1230  0.1213
40438W        W49038  10.762   5.486  10.830 -0.1851  0.0209  0.1523
40439W        W49039  19.142   3.598  16.053 -0.0017  0.0067  0.3714
40440W        W49040  10.182   0.595  21.446  0.1701 -0.4001  0.0101
40441W        W49041  11.868   3.382  29.192  0.0423 -0.3507 -0.0447
40442W        W49042  18.007   1.659  19.179 -0.0836 -0.1053 -0.2942
40443W        W49043  14.435   0.952  26.292  0.0162 -0.1128  0.1230
40444W        W49044   5.403   1.335   1.959  0.1139 -0.0272 -0.2192
40445W        W49045  10.731   7.392   9.446 -0.4979 -0.0616  0.1610
40446W        W49046  14.740   0.206   4.999  0.0740 -0.0817  0.1259
40447W        W49047  16.980   5.415  10.748  0.0540 -0.0389  0.0555
40448W        W49048   2.998   6.297   2.137 -0.1233 -0.0438  0.0311
40449W        W49049  13.249   6.549  31.217  0.4993  0.1168 -0.0531
40450W        W49050  20.780   1.115  21.619  0.0070  0.2048  0.1053
40451W        W49051  11.778   1.964  23.217 -0.1157 -0.0499 -0.1711
40452W        W49052   3.203   0.752  24.012 -0.0953 -0.2800  0.3156
40453W        W49053  23.835   5.408   8.688 -0.4719 -0.0537  0.0512
40454W        W49054  11.540   5.175  22.111  0.0579 -0.0406 -0.1181
40455W        W49055  19.528   7.565   5.718  0.0246  0.3114  0.0513
40456W        W49056   2.711   6.181   2.699  0.0121  0.2579  0.0781
40457W        W49057  23.330   5.709  29.191  0.2827  0.0856 -0.0427
40458W        W49058  12.749   0.161   6.292 -0.1203  0.0991 -0.0548
40459W        W49059   8.439   5.843  13.804 -0.1511  0.1085 -0.0607
40460W        W49060   3.756   3.411  30.967 -0.0604 -0.2466  0.1771
40461W        W49061  23.952   4.821  30.586  0.4642 -0.3226 -0.1887
40462W        W49062   7.241   5.956   7.522 -0.0983 -0.2285 -0.0957
40463W        W49063   1.116   5.995  12.944  0.0185  0.0005  0.1819
40464W        W49064   6.361   0.608   6.299 -0.1089  0.0886 -0.3029
40465W        W49065   1.270   4.944  31.469  0.2367  0.0917  0.1458
40466W        W49066  10.526   2.333   2.604 -0.1422 -0.0747  0.4656
40467W        W49067  14.784   7.639  16.102 -0.1450  0.0698  0.0742
40468W        W49068  10.497   6.215  26.796  0.1052 -0.2563  0.3057
40469W        W49069   3.643   5.166   9.867 -0.1145  0.3260 -0.1321
40470W        W49070   7.739   4.230   4.064 -0.2223  0.0447  0.0321
40471W        W49071   0.332   0.474  15.499  0.1792  0.0482 -0.2332
40472W        W49072   7.448   0.877   9.153 -0.0177 -0.4246  0.2469
40473W        W49073   1.764   6.478  24.696  0.0161  0.3144 -0.0754
40474W        W49074  16.769   1.796   6.762 -0.0105 -0.1881  0.1011
40475W        W49075   6.865   5.820  11.478  0.0736 -0.0537 -0.1265
40476W        W49076   2.341   2.023   1.980  0.0584  0.1000  0.1193
40477W        W49077  22.855   5.298  23.474 -0.0996 -0.3626  0.1078
40478W        W49078   5.110   3.349  22.975  0.2857  0.0607  0.3610
40479W        W49079  23.526   0.658   8.708 -0.1362 -0.0210 -0.2413
40480W        W49080   5.822   6.265   9.652  0.0493  0.2798  0.2060
40481W        W49081  11.673   6.010  29.854  0.2122 -0.0596  0.4816
40482W        W49082  17.714   3.509  27.123 -0.0788 -0.0330 -0.3329
40483W        W49083   1.173   3.722  15.857  0.0787  0.1131  0.2004
40484W        W49084   0.230   2.506  22.034  0.2507  0.1014  0.0431
40485W        W49085  10.434   2.171   8.476 -0.1104 -0.0508  0.0228
40486W        W49086  16.849   7.637  16.560  0.2713 -0.0476 -0.3230
40487W        W49087  20.160   0.652  22.710 -0.0635  0.1676 -0.2685
40488W        W49088   2.833   0.220  17.789  0.1193  0.1578  0.1942
40489W        W49089  22.983   2.239  11.579 -0.3097  0.4069 -0.0874
40490W        W49090   7.736   1.048  25.637  0.1047  0.1061 -0.1410
40491W        W49091   6.153   3.741  29.420  0.2752 -0.3213  0.0221
40492W        W49092   0.953   6.952  12.143  0.1548 -0.1683 -0.0334
40493W        W49093  13.121   3.284   8.130 -0.1401  0.3239  0.0005
40494W        W49094   2.613   6.643  16.328 -0.0630  0.0227  0.2538
40495W        W49095  14.420   6.261  19.982 -0.2903  0.1923 -0.0021
40496W        W49096  11.430   1.380  18.640 -0.0547  0.1703  0.2795
40497W        W49097   9.655   0.827   0.069 -0.0371 -0.2299  0.2171
40498W        W49098  23.854   1.384  12.377 -0.0844 -0.0903  0.0028
40499W        W49099  19.300   3.450  29.884 -0.1206  0.1642  0.3587
40500W        W49100   3.004   3.656  27.482  0.4018  0.1258 -0.1922
40501W        W49101  13.902   0.324  18.873 -0.2445  0.1617  0.1063
40502W        W49102   8.213   2.946  31.705 -0.0300  0.0598 -0.2312
40503W        W49103   1.046   2.372  15.451  0.1306 -0.0285  0.0771
40504W        W49104  17.102   0.504   6.842  0.2249 -0.0586  0.1163
40505W        W49105  21.584   5.487   3.407  0.3045 -0.0116  0.1968
40506W        W49106   8.908   4.734   9.182 -0.1107 -0.2996  0.0449
40507W        W49107  20.692   5.782   7.918  0.0816  0.3404  0.2527
40508W        W49108  12.109   3.846   8.154 -0.0977  0.2104  0.2221
40509W        W49109  10.378   3.508   8.687  0.0114  0.1718  0.1398
40510W        W49110   5.843   1.827   3.614 -0.2435  0.2678  0.2925
40511W        W49111   4.009   1.534  25.136  0.2904 -0.0177  0.0989
40512W        W49112  15.509   2.033  17.796 -0.0719 -0.0257  0.0532
40513W        W49113   5.663   7.313  27.559  0.0372  0.3002  0.2235
40514W        W49114   2.096   2.283  15.614 -0.1665  0.0996  0.2709
40515W        W49115  23.809   4.815  24.422 -0.0944  0.0893 -0.0166
40516W        W49116  13.294   2.574   5.958  0.1405 -0.2881 -0.0391
40517W        W49117  17.819   2.177  24.544  0.2092 -0.0990  0.0660
40518W        W49118   5.565   3.763  14.006  0.3064 -0.1321  0.0092
40519W        W49119   5.803   0.394  15.059 -0.0606  0.0810 -0.0200
40520W        W49120  11.312   6.399   3.044 -0.1755 -0.2339 -0.1162
40521W        W49121  11.267   5.261  10.780 -0.0427 -0.0277 -0.2234
40522W        W49122  21.571   2.206  28.070 -0.0124  0.3249 -0.1881
40523W        W49123   2.082   5.279   1.945  0.2257  0.0802  0.1264
40524W        W49124  10.014   2.102  26.815 -0.1253  0.3200 -0.0122
40525W        W49125  13.193   6.147  18.432 -0.0683  0.0605 -0.1219
40526W        W49126   9.293   0.519  13.124 -0.0331 -0.0050  0.0332
40527W        W49127   5.826   4.928  32.541  0.0652 -0.1555 -0.1559
40528W        W49128  14.190   4.976  23.401  0.1046  0.0415  0.1037
40529W        W49129  12.217   6.495  25.373  0.0544  0.1310 -0.0711
40530W        W49130  18.472   6.944   2.497  0.1224  0.1185  0.2526
40531W        W49131  10.318   2.543  12.161 -0.4917 -0.1693 -0.0555
40532W        W49132  17.007   4.961  26.661  0.1233  0.0026 -0.1736
40533W        W49133   9.741   6.343   8.049  0.0177 -0.0946  0.0483
40534W        W49134   0.972   6.729  14.879  0.1051 -0.1707  0.0020
40535W        W49135  24.513   1.464  12.862 -0.2965 -0.1162 -0.3298
40536W        W49136   1.767   2.015   6.349  0.1490 -0.1213 -0.5623
40537W        W49137  16.077   6.364  22.303 -0.2772 -0.2016  0.0425
40538W        W49138   4.556   2.144   2.804  0.1633 -0.1454  0.0133
40539W        W49139   1.914   2.608  27.574 -0.0925  0.1086  0.0751
40540W        W49140   1.573   7.008  16.140 -0.2082  0.3952 -0.1252
40541W        W49141  18.857   0.047  10.030  0.0754  0.1216  0.1023
40542W        W49142  19.433   3.229  31.413 -0.0463  0.1757  0.1036
40543W        W49143  16.001   1.908  29.800 -0.1873  0.1230 -0.0923
40544W        W49144   8.300   0.581   5.709 -0.0888 -0.0342 -0.0071
40545W        W49145   6.106   2.061  25.468  0.2190  0.0050 -0.4371
40546W        W49146   8.735   7.737  30.908  0.1519 -0.1336  0.0116
40547W        W49147  20.040   1.326  27.846 -0.2098 -0.0765 -0.2646
40548W        W49148   9.963   7.747  24.950  0.0839  0.2687 -0.2868
40549W        W49149  14.092   6.109  10.361  0.4211 -0.1967 -0.3274
40550W        W49150  11.970   5.548  18.385  0.1108 -0.3553 -0.4349
40551W        W49151   1.558   1.517  32.152 -0.0246  0.1610 -0.0652
40552W        W49152  17.301   3.069  15.043 -0.1175 -0.0631 -0.2133
40553W        W49153  13.554   6.343   7.829  0.0338 -0.0811 -0.0012
40554W        W49154  17.998   1.185  30.763 -0.1431 -0.3115  0.2448
40555W        W49155  17.327   1.676  27.847 -0.1228  0.0700  0.2007
40556W        W49156  16.393   1.666  32.813  0.0086 -0.2453 -0.1854
40557W        W49157  20.913   0.615  19.573 -0.5743 -0.3395 -0.3796
40558W        W49158  20.274   2.153   6.204  0.1512  0.1996  0.3095
40559W        W49159   7.819   0.675  13.014 -0.0104  0.1551 -0.2969
40560W        W49160  18.207   3.137  19.107 -0.2039 -0.2362  0.3260
40561W        W49161   0.247   2.486  26.824  0.2566 -0.0553 -0.2008
40562W        W49162   9.921   2.801  28.194  0.2954  0.1579 -0.1465
40563W        W49163   8.002   4.153  29.067 -0.3034 -0.0679  0.1646
40564W        W49164   9.406   7.408  10.100 -0.1488  0.0625  0.0011
40565W        W49165  19.886   6.807   0.310  0.0567 -0.0659  0.0262
40566W        W49166   4.435   5.511  12.745 -0.0694 -0.1766  0.1277
40567W        W49167  24.935   1.177  21.377  0.3173 -0.1422 -0.1104
40568W        W49168  18.873   7.404  11.315 -0.0288  0.1561  0.1421
40569W        W49169  10.499   0.324  27.932 -0.3190 -0.0601 -0.0369
40570W        W49170  16.564   0.317  18.688 -0.0338 -0.0970  0.0219
40571W        W49171  24.950   5.523   7.757 -0.0318  0.1984  0.2990
40572W        W49172   9.695   1.778  23.435  0.0371 -0.1027  0.2277
40573W        W49173  14.077   7.165   5.600  0.1791 -0.0693 -0.1587
40574W        W49174  19.509   7.547   8.340 -0.0996 -0.1059  0.3082
40575W        W49175   2.011   1.308  12.612  0.0619  0.1568 -0.0731
40576W        W49176  20.530   3.880   2.001  0.2336 -0.0991  0.2241
40577W        W49177  10.034   3.534  29.510  0.1592  0.0328  0.1075
40578W        W49178  14.357   3.532   7.249 -0.2290 -0.1932  0.2275
40579W        W49179  19.831   6.370   8.835  0.2460  0.1327 -0.1182
40580W        W49180  12.872   2.764   5.847  0.0142  0.1287 -0.2629
40581W        W49181   8.342   1.115  26.335 -0.3304 -0.0663  0.0186
40582W        W49182  14.166   7.383  20.885 -0.1647  0.0495  0.1963
40583W        W49183   4.722   5.981   6.913  0.0569  0.0209  0.0664
40584W        W49184  11.476   4.109  27.819  0.2779  0.1913  0.0753
40585W        W49185   9.323   4.386   1.819  0.2927 -0.0594 -0.2034
40586W        W49186   2.416   7.111   6.486  0.3077  0.0157 -0.2794
40587W        W49187  11.723   5.745   5.681 -0.0681  0.0897 -0.0514
40588W        W49188  20.201   4.442   2.972 -0.1797 -0.0371 -0.0221
40589W        W49189  17.672   7.641  29.049  0.1800  0.0350 -0.2512
40590W        W49190  14.907   6.309  20.756  0.4240 -0.1977  0.1450
40591W        W49191   0.593   2.477   2.803  0.0887 -0.0410 -0.1939
40592W        W49192  24.068   5.007   6.233  0.3099 -0.3357 -0.0653
40593W        W49193  23.917   4.488   2.724 -0.0301  0.2185  0.0075
40594W        W49194  23.179   1.015   7.130  0.2890 -0.0928  0.2398
40595W        W49195  15.035   4.172   8.934 -0.1686 -0.1851  0.4938
40596W        W49196  17.719   0.053  20.500 -0.1020 -0.1044 -0.2292
40597W        W49197  24.042   5.193  32.309 -0.0886  0.0205 -0.1704
40598W        W49198   3.859   4.444  24.141  0.0078 -0.1136  0.1874
40599W        W49199   4.300   0.261  17.953  0.0861 -0.0409  0.1888
40600W        W49200  11.949   1.933   7.271 -0.3397  0.0035 -0.2254
40601W        W49201  17.290   2.042   8.147 -0.2530 -0.2863 -0.0266
40602W        W49202   3.246   2.251  17.642  0.1475  0.2776  0.0416
40603W        W49203   7.117   3.644   0.888 -0.2096 -0.1713  0.1239
40604W        W49204   9.050   4.984   4.111 -0.1602 -0.0436  0.0423
40605W        W49205   2.612   2.431   6.330  0.1490 -0.2964  0.0606
40606W        W49206  16.637   0.231  24.334  0.1240  0.1355  0.3113
40607W        W49207  13.282   2.980  28.439 -0.2338  0.0035  0.3997
40608W        W49208  19.936   6.205   7.077  0.2329  0.0830 -0.0620
40609W        W49209   6.271   0.671  31.753 -0.0674  0.3209 -0.3660
40610W        W49210  16.298   4.075  23.310 -0.0787  0.3304  0.0794
40611W        W49211  23.985   6.191  31.486  0.0054  0.3577  0.1507
40612W        W49212  10.611   1.141   2.866 -0.1620 -0.2145 -0.1144
40613W        W49213  22.488   2.928  10.209 -0.0284 -0.1052  0.4781
40614W        W49214   4.677   4.049  26.024  0.2468 -0.0658  0.0712
40615W        W49215  24.804   1.076  26.763 -0.2268 -0.1451  0.1331
40616W        W49216  20.984   2.816   6.420  0.1214  0.0650 -0.2455
40617W        W49217   7.774   1.470   4.709  0.2114  0.0669 -0.1732
40618W        W49218  16.313   4.401  21.176 -0.0407  0.1060  0.1710
40619W        W49219  23.650   2.153  23.575 -0.2461 -0.2002 -0.2853
40620W        W49220  16.556   5.442  15.813 -0.1800  0.0723  0.1687
40621W        W49221   3.544   4.831  17.884  0.0250  0.0380 -0.0818
40622W        W49222   9.375   1.701  22.995 -0.0018 -0.1310  0.1988
40623W        W49223  14.697   0.128  10.104  0.0182  0.0970 -0.0452
40624W        W49224  12.146   0.488   3.673  0.0576  0.2037  0.0341
40625W        W49225  16.847   7.496  22.188  0.0867  0.1794  0.1320
40626W        W49226  10.209   4.068   2.079 -0.0298  0.2898  0.0464
40627W        W49227   4.006   6.626  24.010  0.2587 -0.1036  0.2399
40628W        W49228  14.805   0.979   2.427 -0.0156  0.2565  0.1673
40629W        W49229   5.573   2.439  13.753 -0.2449  0.0176 -0.0324
40630W        W49230   1.472   1.406  22.368  0.1394  0.1113  0.1722
40631W        W49231  22.264   5.471   4.072  0.0467 -0.1101 -0.4690
40632W        W49232   3.826   4.665  17.245 -0.0039 -0.2515 -0.1094
40633W        W49233   6.529   5.306  25.303  0.0268 -0.2308 -0.1891
40634W        W49234   9.475   6.456  31.307 -0.0343 -0.1829 -0.1612
40635W        W49235  11.201   4.172   4.396  0.0494  0.1630 -0.1735
40636W        W49236  19.583   4.978  19.116  0.2630 -0.0135 -0.2374
40637W        W49237   7.758   5.344  23.450  0.1562  0.1723  0.2249
40638W        W49238  10.757   0.164   3.778 -0.2067  0.0877  0.0638
40639W        W49239   4.618   5.971   7.797  0.2413 -0.1046  0.1851
40640W        W49240  13.766   3.574  20.899  0.0461 -0.0067  0.1359
40641W        W49241  10.364   2.088   4.633 -0.0206 -0.2075  0.0181
40642W        W49242   3.376   4.694  32.062  0.0441 -0.1231  0.0015
40643W        W49243  17.557   6.658   2.978  0.1120  0.2029 -0.1320
40644W        W49244  20.743   0.938  12.035  0.0922 -0.1297  0.1159
40645W        W49245   3.615   5.062  29.531 -0.2670  0.1386 -0.3784
40646W        W49246   6.732   4.588   5.768  0.2185  0.1322 -0.1877
40647W        W49247  14.021   2.658   9.413  0.2285 -0.1522 -0.0087
40648W        W49248  10.431   4.251  30.725  0.2760 -0.0121 -0.0081
40649W        W49249  12.607   0.600   6.918  0.0189  0.0547 -0.0823
40650W        W49250   2.053   5.541  24.918  0.0177 -0.0370 -0.1950
40651W        W49251   7.138   3.424  12.524  0.1965  0.1774 -0.1016
40652W        W49252   7.726   3.846  25.692  0.3630  0.0605 -0.1013
40653W        W49253   2.273   2.612   8.644  0.1709  0.4044 -0.0107
40654W        W49254  10.698   1.911   0.492  0.0257 -0.0829  0.0666
40655W        W49255   1.064   3.151  13.374 -0.0107  0.1821 -0.2275
40656W        W49256  22.631   6.419   9.479 -0.0867  0.0420 -0.0212
40657W        W49257  18.075   1.976   5.659 -0.0688  0.0116 -0.0012
40658W        W49258   4.699   6.055  13.654  0.0594  0.1112  0.1030
40659W        W49259  18.290   7.372   0.734  0.1530 -0.0314  0.0209
40660W        W49260  16.463   3.072  25.732 -0.0978 -0.0984  0.0267
40661W        W49261   2.372   6.590   0.259 -0.1245 -0.0638 -0.1826
40662W        W49262  16.548   4.907   1.015  0.2032 -0.2463 -0.3288
40663W        W49263  16.022   0.014  16.450 -0.3189 -0.0313 -0.0087
40664W        W49264   9.316   2.159   4.624 -0.1612 -0.1347 -0.1820
40665W        W49265  20.723   3.751  32.564  0.2559  0.0602 -0.1061
40666W        W49266   6.582   1.850   9.742 -0.1531  0.0776 -0.1460
40667W        W49267   4.285   4.875  17.968  0.1375 -0.0026  0.2520
40668W        W49268   6.828   7.705  10.484 -0.0353  0.2590  0.1799
40669W        W49269  16.062   6.810   7.470 -0.0442 -0.0518  0.1031
40670W        W49270  18.798   7.166   1.858  0.1145  0.1535 -0.1393
40671W        W49271   0.930   5.637   1.284  0.2274 -0.0444 -0.1764
40672W        W49272   4.615   3.021  28.033  0.1459  0.0768 -0.1857
40673W        W49273  19.312   1.698  11.251  0.2660 -0.1965  0.2820
40674W        W49274   9.863   2.615  23.441 -0.1894  0.1028 -0.1557
40675W        W49275  23.757   2.583  31.450 -0.3139  0.1026 -0.0054
40676W        W49276  12.703   6.539   5.418 -0.1002 -0.1101 -0.0324
40677W        W49277   4.045   3.166  18.200 -0.0269  0.0834 -0.2470
40678W        W49278   3.243   4.045   9.487  0.1480 -0.1114  0.2939
40679W        W49279   2.511   4.423  30.017 -0.2620  0.0397  0.1973
40680W        W49280  20.878   1.789  22.592 -0.1295 -0.0742  0.0856
40681W        W49281   3.411   5.423  18.406 -0.2066  0.5241  0.3540
40682W        W49282  11.380   7.426  10.389  0.3125  0.0713  0.0943
40683W        W49283  21.656   6.827   6.782  0.3303  0.2881 -0.0461
40684W        W49284  21.955   0.671  30.534  0.0213  0.0713  0.2760
40685W        W49285  23.333   6.958  23.422  0.0314  0.1722  0.1527
40686W        W49286  13.654   5.577   1.226 -0.0539 -0.0615 -0.0116
40687W        W49287  23.913   2.221  22.540 -0.0245  0.1229  0.0684
40688W        W49288   9.092   7.283  32.364 -0.0203 -0.0711  0.2723
40689W        W49289   4.910   0.289  27.284 -0.0318 -0.3155 -0.3191
40690W        W49290  21.363   6.878   4.046 -0.0643  0.3013  0.2106
40691W        W49291   7.748   0.720   0.666  0.1168 -0.0420 -0.0298
40692W        W49292   9.991   3.784   6.996  0.0361  0.4289 -0.4278
40693W        W49293  12.007   3.026  21.200 -0.0301  0.1819 -0.1515
40694W        W49294  19.711   2.659  20.327 -0.0808  0.1601 -0.1895
40695W        W49295  15.162   3.603  30.997 -0.0238  0.0050 -0.1194
40696W        W49296   1.986   7.034  23.473 -0.0560  0.1600  0.2576
40697W        W49297   4.402   0.860   6.921 -0.0766  0.0869  0.0654
40698W        W49298  24.152   2.674  12.870 -0.0564  0.0857  0.0035
40699W        W49299   1.400   0.586   5.302 -0.1066  0.1385  0.2029
40700W        W49300  16.610   4.654   7.202  0.1291  0.0964 -0.0715
40701W        W49301   7.603   0.783   5.450 -0.0050  0.0178 -0.0380
40702W        W49302   2.234   1.866  15.999 -0.0423 -0.0029  0.1138
40703W        W49303  22.302   6.927  32.280 -0.0077  0.1342 -0.0363
40704W        W49304   3.637   4.386  27.578 -0.4058  0.0230  0.2658
40705W        W49305  21.212   5.827  20.893 -0.1808  0.1676  0.1307
40706W        W49306  15.246   3.654   5.012  0.1029 -0.0095  0.0370
40707W        W49307  22.808   6.382  11.031 -0.1757  0.0390  0.2772
40708W        W49308  24.897   0.069   9.480  0.0173 -0.0237  0.2420
40709W        W49309  15.850   7.311  18.588 -0.1190  0.4271  0.1612
40710W        W49310  12.241   4.571  28.363 -0.0813  0.0481 -0.0252
40711W        W49311   2.294   1.763  26.037  0.1080 -0.1246 -0.0325
40712W        W49312   0.382   3.256  22.830 -0.1886  0.1612 -0.0463
40713W        W49313  14.201   0.634  28.954  0.2167  0.1663 -0.1728
40714W        W49314  22.618   7.187  22.742 -0.2138  0.0724  0.2546
40715W        W49315  18.818   3.957  32.454  0.4473  0.1599 -0.2905
40716W        W49316   4.488   3.389  11.846 -0.0665 -0.2581  0.0871
40717W        W49317  10.436   2.116  31.242 -0.0631  0.1335 -0.1812
40718W        W49318  21.612   2.001   0.046  0.0212 -0.1708 -0.1050
40719W        W49319  24.892   2.550  28.951 -0.4610 -0.2168 -0.0924
40720W        W49320  17.013   1.217   9.681  0.3658  0.0770 -0.2965
40721W        W49321   2.610   5.505  10.198  0.1125 -0.0150  0.0801
40722W        W49322  10.480   2.075  20.414 -0.1002  0.4157  0.0108
40723W        W49323  12.926   1.904  28.600 -0.0316 -0.2760  0.2077
40724W        W49324   3.796   7.124  33.001 -0.2409  0.0781 -0.0571
40725W        W49325   1.641   2.047  10.719 -0.4474 -0.0588 -0.2193
40726W        W49326  20.268   2.294   5.383  0.1925  0.0715  0.0472
40727W        W49327  15.775   2.852  20.459 -0.1858  0.0109  0.3386
40728W        W49328  10.272   6.415  22.276 -0.1959  0.0887  0.2176
40729W        W49329  23.257   7.284  28.066 -0.3103 -0.1014  0.0713
40730W        W49330   7.379   5.766  14.214  0.0520 -0.2469 -0.4109
40731W        W49331  21.319   7.590  27.799  0.1144  0.0119  0.0511
40732W        W49332  22.848   1.717  32.034 -0.1448 -0.1259  0.0971
40733W        W49333  22.073   6.857   8.188 -0.2798 -0.6044 -0.0548
40734W        W49334  23.307   5.247  28.340 -0.0383 -0.1306 -0.2475
40735W        W49335  11.914   4.522  11.723 -0.5804 -0.1821  0.2658
40736W        W49336  16.256   1.662  22.133 -0.1195 -0.1184 -0.1159
40737W        W49337  24.453   6.275   3.659  0.1317  0.1179 -0.2105
40738W        W49338   8.089   3.960  23.827  0.1829  0.0053  0.0281
40739W        W49339  21.462   4.728  32.381  0.1088  0.1040  0.1312
40740W        W49340   6.911   2.207  26.647  0.0118  0.0916  0.0358
40741W        W49341  16.747   6.130  32.314 -0.0841  0.0025 -0.2478
40742W        W49342  13.528   4.849   5.091 -0.2259 -0.2015 -0.1749
40743W        W49343  14.700   4.798   0.381  0.0733 -0.1884  0.0397
40744W        W49344  24.432   0.641  26.714 -0.0225  0.2209  0.1497
40745W        W49345   6.539   2.806   1.619 -0.2904  0.0986 -0.2712
40746W        W49346  16.917   2.193   7.844  0.1796  0.2721 -0.0179
40747W        W49347  13.637   5.668   5.749  0.0367  0.1633  0.4121
40748W        W49348   1.146   1.919  32.435  0.0008  0.2462  0.2289
40749W        W49349   4.113   7.153  27.429 -0.0549  0.2400 -0.1616
40750W        W49350  21.539   1.321   5.606  0.2216  0.0035  0.0432
40751W        W49351  17.844   0.685  28.229 -0.0261 -0.2892  0.2074
40752W        W49352   4.509   5.271  11.243 -0.3185  0.0905 -0.0525
40753W        W49353   9.439   2.223   9.294  0.1482  0.0517 -0.0750
40754W        W49354   8.678   5.816  30.698 -0.1036  0.3840  0.2519
40755W        W49355  22.455   6.096  20.778 -0.2844  0.3842  0.0812
40756W        W49356   6.542   4.783   4.184 -0.0064  0.1881  0.2488
40757W        W49357   2.019   3.795  10.087  0.4169 -0.0673  0.0771
40758W        W49358   7.861   4.149   1.149 -0.0595  0.2105  0.0665
40759W        W49359  17.067   6.242   9.252  0.0689 -0.0698 -0.4505
40760W        W49360  12.568   1.067  21.295 -0.1024  0.0482 -0.3466
40761W        W49361  13.970   4.955  30.708 -0.0331 -0.1117 -0.3450
40762W        W49362  24.762   4.725   3.551  0.0407  0.3423 -0.1814
40763W        W49363  16.936   1.444  29.393  0.1059 -0.1285  0.1725
40764W        W49364  17.662   0.404  26.434  0.1571 -0.1529  0.0388
40765W        W49365  11.849   4.183  17.926  0.0557 -0.1187  0.2197
40766W        W49366  20.988   1.376  27.370  0.0882 -0.0547  0.0009
40767W        W49367  16.333   0.344  16.196  0.1820 -0.1891  0.1136
40768W        W49368   0.174   1.095  10.084  0.0760  0.1954  0.1475
40769W        W49369   0.184   1.946   0.817  0.3218 -0.2042 -0.2450
40770W        W49370  24.727   2.000  22.749  0.1884  0.1490 -0.1543
40771W        W49371  12.274   7.756   3.833  0.2982 -0.2243  0.1104
40772W        W49372  21.214   1.236  26.838  0.0849 -0.1260  0.0197
40773W        W49373  21.777   7.524  12.558 -0.1958  0.0337 -0.0263
40774W        W49374  19.418   7.448  24.578 -0.0778 -0.3839 -0.0883
40775W        W49375   8.624   6.982  14.253 -0.2045 -0.1523  0.2650
40776W        W49376   5.778   4.031   7.754  0.0755 -0.1321  0.3319
40777W        W49377  23.590   0.738  30.818  0.0147  0.1918  0.0383
40778W        W49378   4.744   6.523  11.711  0.2389 -0.0157 -0.0370
40779W        W49379  23.389   4.723  28.236  0.0083 -0.1675  0.1112
40780W        W49380   3.192   4.797   8.716  0.0466  0.0949 -0.0562
40781W        W49381  22.525   7.497  20.287 -0.0342  0.0086 -0.0861
40782W        W49382  17.465   1.193  20.032 -0.1053 -0.0413 -0.0424
40783W        W49383  11.064   0.873  20.034  0.1690  0.0039  0.1698
40784W        W49384   5.394   6.656  17.529  0.1243 -0.2136  0.1471
40785W        W49385   4.695   5.858   5.360 -0.1350 -0.1628 -0.1523
40786W        W49386  23.305   3.407  11.385  0.1932 -0.0244 -0.3556
40787W        W49387   8.432   0.676  29.059  0.0278 -0.1440 -0.1941
40788W        W49388  17.538   2.592  29.951  0.0410  0.1068 -0.0353
40789W        W49389   7.010   6.600   0.235 -0.1009  0.0510 -0.2558
40790W        W49390  19.670   5.395  29.869 -0.1525  0.0288 -0.2138
40791W        W49391  23.462   3.185   5.163  0.2976  0.2143  0.2420
40792W        W49392  20.979   1.422  26.371 -0.0160  0.0554  0.2103
40793W        W49393  19.180   2.908   5.624 -0.0073  0.1827  0.1452
40794W        W49394  14.634   6.139  15.889 -0.1655 -0.0486 -0.1257
40795W        W49395  13.152   5.168  10.239 -0.2359  0.0693  0.2078
40796W        W49396  15.648   6.699  31.629 -0.0862 -0.3765  0.1303
40797W        W49397   8.129   5.633  31.682  0.1469  0.1436 -0.0123
40798W        W49398   4.472   1.383   8.746 -0.1063 -0.3355  0.0877
40799W        W49399   9.793   2.787  24.876  0.0172  0.0425  0.0382
40800W        W49400  14.828   4.580   5.932  0.1829  0.1024  0.3357
40801W        W49401   4.815   7.734   7.149  0.0568 -0.1320 -0.1076
40802W        W49402   2.209   4.988  11.302 -0.0003  0.0669 -0.2060
40803W        W49403   4.372   2.818   8.310 -0.2996  0.1314 -0.2886
40804W        W49404   7.507   0.300   6.253 -0.0942  0.0191  0.2477
40805W        W49405  10.510   0.768  21.142  0.0036 -0.1624 -0.1269
40806W        W49406  16.038   1.357   0.095 -0.1267 -0.2649  0.1440
40807W        W49407   2.065   6.938  11.807  0.0889 -0.1558 -0.2657
40808W        W49408  24.397   6.237  31.136  0.1528 -0.2008  0.2581
40809W        W49409  21.245   7.022  11.767  0.0914 -0.0880  0.0517
40810W        W49410  24.325   6.758  21.956 -0.0123 -0.0747  0.3212
40811W        W49411  21.224   1.414  25.074  0.0750  0.4762 -0.2037
40812W        W49412   7.033   2.591   6.230 -0.2868  0.1894  0.3604
40813W        W49413  16.485   2.547  17.551 -0.1373  0.5985 -0.2483
40814W        W49414   8.443   5.409  15.078  0.1081 -0.2776 -0.0890
40815W        W49415  11.185   1.084  24.069  0.0046  0.0294  0.2901
40816W        W49416   8.418   1.609  13.771  0.5385  0.1223 -0.0128
40817W        W49417  17.700   5.662   9.179  0.1599  0.1708 -0.1535
40818W        W49418  22.470   7.436  25.233  0.0029  0.1133  0.2737
40819W        W49419  13.349   4.953   1.583  0.0574  0.1869 -0.0035
40820W        W49420   5.585   1.132  14.379  0.1183  0.1707  0.3151
40821W        W49421   2.767   5.761   9.753 -0.3918 -0.0324  0.1352
40822W        W49422  12.880   3.698   9.271 -0.0086 -0.0346 -0.3555
40823W        W49423   0.126   7.135   5.206 -0.3501 -0.0282  0.2698
40824W        W49424   1.134   5.935   0.867  0.1801  0.0704 -0.2924
40825W        W49425   3.457   6.720  17.886  0.1046  0.1546  0.0147
40826W        W49426  22.323   2.504  24.963  0.0585  0.0014  0.3672
40827W        W49427  19.793   2.062  27.654 -0.3733 -0.0886  0.0477
40828W        W49428  13.384   3.208   7.631 -0.2143  0.0223 -0.1768
40829W        W49429  17.392   4.122  21.978 -0.1824  0.1098  0.0582
40830W        W49430  22.098   7.244  22.671  0.1320 -0.0171 -0.0423
40831W        W49431  22.104   2.215   2.615  0.2027 -0.0503  0.1004
40832W        W49432   5.762   0.712  25.977  0.2051  0.1934  0.0813
40833W        W49433   0.487   7.087  27.057  0.1190  0.0095  0.2562
40834W        W49434   2.186   5.195  31.720  0.2264 -0.2851  0.0049
40835W        W49435  11.939   2.142  20.351 -0.1086  0.2207 -0.1400
40836W        W49436   4.402   5.579  10.833 -0.0251  0.1395 -0.3406
40837W        W49437  20.661   6.628   0.143 -0.1339  0.1440 -0.0573
40838W        W49438  16.931   5.038  14.584  0.2355 -0.1157 -0.0979
40839W        W49439   5.977   0.855   0.809 -0.0615  0.0448  0.2701
40840W        W49440   1.023   5.686   3.689  0.3775  0.1300  0.3167
40841W        W49441  16.388   7.323  18.571  0.1097 -0.0055 -0.1592
40842W        W49442  15.047   7.085   0.649  0.0974 -0.0305  0.1644
40843W        W49443   9.061   6.044   3.821  0.0070 -0.0345  0.2477
40844W        W49444   4.174   0.899  29.256  0.0938  0.1224 -0.1159
40845W        W49445   2.981   0.426  22.728 -0.1400 -0.0122  0.0482
40846W        W49446   0.846   7.505   0.200 -0.3500  0.3733  0.1815
40847W        W49447   1.259   5.926  23.872  0.2949 -0.0922  0.2234
40848W        W49448  16.705   1.060  29.615 -0.1505 -0.1342 -0.0895
40849W        W49449  23.854   4.386  12.631 -0.2192  0.0561 -0.1784
40850W        W49450   6.304   6.288  13.071 -0.2382  0.0173  0.0493
40851W        W49451   8.218   5.383  23.643  0.0471 -0.0569 -0.1582
40852W        W49452   8.655   2.886  30.256  0.0140  0.0098 -0.0827
40853W        W49453  18.550   5.643  10.547  0.2016  0.0172  0.0220
40854W        W49454  15.020   2.231  21.746  0.1996 -0.2749  0.0476
40855W        W49455   7.123   0.514   5.100 -0.0930  0.0020  0.1301
40856W        W49456   7.440   3.149  13.038  0.2818  0.1676  0.0312
40857W        W49457  18.063   6.864   1.707  0.2091  0.1991  0.3582
40858W        W49458   4.240   3.797  27.405 -0.2392  0.0821 -0.0352
40859W        W49459   2.948   6.551   7.744 -0.2634  0.0496 -0.1376
40860W        W49460  18.456   1.406   0.729 -0.1009  0.0433 -0.1036
40861W        W49461  18.251   7.582  21.772  0.1149  0.4221 -0.2635
40862W        W49462  10.589   2.509  25.017  0.2638  0.0710 -0.0136
40863W        W49463  16.424   3.978  20.757  0.0163  0.3180 -0.0450
40864W        W49464   5.387   6.391  13.109 -0.3720 -0.0752 -0.1416
40865W        W49465  20.091   0.364   4.066 -0.1884  0.0437  0.3645
40866W        W49466   4.849   0.305  13.414 -0.3344 -0.1759  0.1160
40867W        W49467  15.589   0.260  29.934  0.0413  0.1168 -0.1900
40868W        W49468   2.967   3.186   0.549  0.0433 -0.0094  0.1523
40869W        W49469  18.563   1.108   8.621 -0.3713 -0.1195 -0.2160
40870W        W49470  21.950   4.275  28.550  0.0223  0.1624 -0.1236
40871W        W49471   5.350   0.801   1.966  0.1259  0.0585 -0.1527
40872W        W49472  18.128   3.897  10.239 -0.0753  0.0503  0.1367
40873W        W49473  22.503   3.800   8.294 -0.0082  0.2523 -0.3861
40874W        W49474  11.600   3.698  32.535  0.3181  0.0716  0.0365
40875W        W49475  19.600   2.852   8.209 -0.2544 -0.1310 -0.0058
40876W        W49476  20.407   2.806  23.350  0.3068 -0.2964  0.0218
40877W        W49477   1.952   3.406   3.753 -0.0252  0.1548  0.0287
40878W        W49478   7.530   3.964   1.639 -0.1436 -0.0337 -0.0444
40879W        W49479  10.336   5.045   0.896  0.0300  0.0281  0.1533
40880W        W49480  11.036   2.098  21.354 -0.0355  0.3239 -0.0535
40881W        W49481   2.059   2.897   1.815 -0.1873 -0.0712  0.1373
40882W        W49482   0.222   2.772   1.677 -0.0149 -0.1112 -0.0773
40883W        W49483  12.520   6.650   3.603  0.1402 -0.2053 -0.0061
40884W        W49484   6.796   0.200   4.773 -0.1177  0.0583  0.1305
40885W        W49485   0.414   2.484  15.061  0.1233 -0.3229 -0.1564
40886W        W49486  24.481   5.453  12.841 -0.3918  0.2048 -0.0473
40887W        W49487  22.305   1.261  21.102  0.0248 -0.2362 -0.1531
40888W        W49488  19.074   3.056  22.840 -0.1099 -0.2992 -0.2153
40889W        W49489   9.877   1.567  27.847 -0.0118  0.0272  0.1708
40890W        W49490   2.992   6.224   9.898  0.0083  0.0041 -0.1469
40891W        W49491  16.970   4.786  17.839 -0.1746  0.2063  0.0230
40892W        W49492   3.955   3.850   0.185  0.2168 -0.2416 -0.2352
40893W        W49493  18.137   0.628   5.077  0.0790  0.2948 -0.1823
40894W        W49494  10.038   3.609  30.356 -0.2290 -0.0763  0.0794
40895W        W49495  11.120   7.540   6.876  0.2989  0.1957 -0.2004
40896W        W49496  24.301   6.534   1.385 -0.1327 -0.0594 -0.1826
40897W        W49497  20.821   4.919  19.583 -0.2355  0.1209 -0.0822
40898W        W49498  12.092   0.706   2.075  0.1565 -0.0634 -0.0630
40899W        W49499   6.589   0.700   4.983  0.1345  0.0031  0.3309
40900W        W49500   5.224   1.117  27.359  0.2263  0.1159 -0.0054
40901W        W49501  21.525   7.098   0.131 -0.1023 -0.0755 -0.0133
40902W        W49502  12.100   0.809  24.266  0.0848 -0.0956 -0.0009
40903W        W49503  14.730   3.358  18.162 -0.2110 -0.1808  0.0123
40904W        W49504  22.091   5.947  10.068 -0.1038 -0.3089  0.0584
40905W        W49505  20.958   3.177  24.593 -0.0768  0.1076 -0.2081
40906W        W49506   1.700   0.069   1.609  0.1420  0.2173 -0.0568
40907W        W49507  21.701   5.694   6.972  0.3443  0.3634 -0.0513
40908W        W49508   3.885   7.364   7.890 -0.1135  0.1020  0.0284
40909W        W49509  14.835   5.904   0.018  0.0847 -0.4140  0.1763
40910W        W49510   6.205   2.863  27.812 -0.1419  0.1701  0.1872
40911W        W49511   4.575   4.927  14.859  0.1658 -0.4577  0.3802
40912W        W49512   0.317   1.695   1.758  0.0024 -0.0230 -0.0141
40913W        W49513  17.811   5.594  18.441 -0.2823 -0.0546  0.0362
40914W        W49514  17.174   5.827  19.386 -0.1064  0.2458 -0.1501
40915W        W49515   1.601   4.008   8.345  0.4645 -0.1162 -0.1570
40916W        W49516   6.859   1.386   4.046  0.2224 -0.1447  0.1528
40917W        W49517   5.884   2.587  26.140  0.2591  0.0754  0.0284
40918W        W49518  21.163   5.193   5.693 -0.1534 -0.0662  0.3600
40919W        W49519  22.599   0.435  24.391  0.1396 -0.2148 -0.0786
40920W        W49520   2.123   4.004  23.398  0.2086 -0.0699  0.0810
40921W        W49521  14.481   0.083  14.676 -0.1593 -0.0138  0.2907
40922W        W49522  16.635   3.240  29.501  0.3954 -0.0242  0.1076
40923W        W49523  17.115   4.679  31.941  0.0044 -0.0281 -0.0928
40924W        W49524  17.188   1.765  16.602  0.1424  0.0035  0.0316
40925W        W49525  10.621   0.702  32.658  0.0801  0.2297  0.0230
40926W        W49526  24.849   3.741   9.744 -0.1529  0.0034 -0.0429
40927W        W49527  24.663   3.570  11.478 -0.0956  0.0273  0.1863
40928W        W49528  17.786   5.366   3.191  0.2096  0.2912  0.2314
40929W        W49529   2.901   7.311  32.679 -0.0910 -0.0696 -0.0097
40930W        W49530   7.567   4.966   7.904  0.1821 -0.0916  0.2070
40931W        W49531  14.747   7.323   1.589  0.0753 -0.3027 -0.4930
40932W        W49532  10.046   5.835  23.276 -0.2105 -0.1275 -0.2752
40933W        W49533   4.230   2.110  16.426  0.0495  0.2506 -0.1157
40934W        W49534  14.139   0.984  21.693  0.1821 -0.0708 -0.1098
40935W        W49535   6.834   4.634  32.710  0.2666 -0.2646 -0.1105
40936W        W49536  14.559   4.638   3.322  0.1068 -0.2026  0.1765
40937W        W49537  10.759   5.238  25.531 -0.4706 -0.4507  0.0688
40938W        W49538  22.393   2.727   2.687  0.0101 -0.3716  0.0754
40939W        W49539   9.103   7.788   7.116 -0.4830 -0.3270 -0.3850
40940W        W49540   7.835   5.078  24.883 -0.1145  0.0547  0.0344
40941W        W49541  10.267   2.925  24.907  0.0969  0.1631 -0.0722
40942W        W49542   0.007   5.412   2.894 -0.2364  0.1362  0.0866
40943W        W49543  10.955   4.139   8.580  0.2077 -0.0148  0.0844
40944W        W49544   4.375   4.493  26.880  0.0683  0.0642  0.0873
40945W        W49545   9.222   2.688  22.136 -0.2148 -0.0530  0.2176
40946W        W49546   2.840   6.016   8.096 -0.1674  0.1714 -0.1770
40947W        W49547  17.381   2.823   8.738 -0.5780  0.3401  0.2044
40948W        W49548   8.701   2.665  10.590  0.1269 -0.2581 -0.2566
40949W        W49549  11.109   4.701  27.529  0.1858 -0.0004  0.0860
40950W        W49550   3.156   7.012  14.446  0.3752  0.2029  0.2728
40951W        W49551   0.810   3.883   4.099  0.1947  0.1446 -0.0205
40952W        W49552  14.876   1.951   0.218 -0.2496 -0.1520 -0.0274
40953W        W49553  24.890   5.159  10.976 -0.1123  0.0942 -0.2172
40954W        W49554  15.678   7.592  21.839  0.0612  0.1077 -0.0582
40955W        W49555   4.418   4.324   9.123 -0.6118  0.0456 -0.3347
40956W        W49556  14.868   4.439   4.955 -0.1102 -0.1125 -0.0910
40957W        W49557  13.563   6.082  11.182 -0.0160 -0.0270  0.2002
40958W        W49558   9.469   3.087   8.657  0.0924  0.0897  0.2968
40959W        W49559   7.629   3.869   2.729 -0.0961 -0.1242 -0.2653
40960W        W49560   2.892   7.189   6.407  0.1567  0.0324 -0.0411
40961W        W49561   4.896   5.951   2.878  0.2707 -0.0483  0.4209
40962W        W49562   9.077   4.384  11.830  0.1052  0.1038  0.1522
40963W        W49563  23.932   3.477  23.860 -0.0800 -0.1261 -0.3228
40964W        W49564  12.074   2.634  18.581 -0.1308 -0.0726  0.0993
40965W        W49565  14.901   2.497   9.158 -0.1360  0.0380 -0.0997
40966W        W49566  21.038   6.034  30.897 -0.1453 -0.0002  0.0703
40967W        W49567  19.303   7.121   6.890  0.1308 -0.2634  0.2830
40968W        W49568  12.927   3.554   1.616 -0.0091 -0.0299  0.0000
40969W        W49569  20.128   7.230  17.896 -0.0644  0.1687 -0.0409
40970W        W49570  16.834   4.334   1.420  0.1816  0.0601  0.1318
40971W        W49571  16.443   0.036   1.127 -0.0144  0.1172 -0.0439
40972W        W49572   8.200   3.754  22.123 -0.1299  0.2619  0.2268
40973W        W49573  14.967   0.136  23.222 -0.0908 -0.1103  0.1951
40974W        W49574  11.939   4.428  27.758 -0.2450  0.0608 -0.1695
40975W        W49575  17.985   0.656  26.715 -0.0365  0.2632  0.5418
40976W        W49576  23.733   7.028   9.486  0.0112 -0.1595  0.5540
40977W        W49577  13.787   0.887   2.177 -0.1434  0.1403  0.2475
40978W        W49578  21.348   0.190  22.917  0.2202  0.0369 -0.0445
40979W        W49579  19.222   1.206   4.988 -0.0040 -0.0504  0.0159
40980W        W49580   8.023   0.486  10.272  0.4144  0.0839  0.3028
40981W        W49581   0.884   1.325   9.546  0.3663 -0.1998 -0.1443
40982W        W49582  11.323   1.491   7.987 -0.0688 -0.2684  0.0952
40983W        W49583   1.703   1.745  16.372 -0.0368 -0.3442  0.2915
40984W        W49584   0.312   4.889   6.841 -0.2581  0.2568  0.1859
40985W        W49585  24.391   1.862  25.763  0.0833  0.0934 -0.0760
40986W        W49586  10.547   5.830   8.362  0.0273  0.3614 -0.0384
40987W        W49587   0.639   3.200   6.593 -0.1640 -0.0822 -0.0717
40988W        W49588   6.195   5.521  32.160  0.0113 -0.0904 -0.1015
40989W        W49589  15.250   0.958   0.370  0.0914  0.1520  0.0174
40990W        W49590  18.770   1.179  10.095  0.0749 -0.2827 -0.1043
40991W        W49591   4.226   0.687  31.648  0.4450  0.1113  0.0850
40992W        W49592  22.224   1.441  23.182 -0.0115 -0.1552  0.3589
40993W        W49593  15.384   2.697  31.229 -0.1130 -0.0684 -0.0759
40994W        W49594  22.403   3.111  31.619 -0.0466  0.0909 -0.1675
40995W        W49595   1.831   1.796  22.815  0.2932  0.0325  0.1942
40996W        W49596   6.299   3.053   2.846 -0.1173  0.0749 -0.2331
40997W        W49597  18.308   3.040  26.676 -0.0304  0.1191  0.0676
40998W        W49598  15.164   2.361  24.006  0.0492  0.0587 -0.1375
40999W        W49599  15.957   3.360  27.253 -0.0159  0.2310 -0.1613
41000W        W49600  22.233   4.130  23.893 -0.1499 -0.0516 -0.3671
41001W        W49601  18.648   5.177   1.635 -0.0513 -0.2808  0.1180
41002W        W49602   9.861   4.426  12.973  0.3835  0.0513 -0.1711
41003W        W49603  24.772   3.697  31.849 -0.1542  0.0472 -0.0268
41004W        W49604   7.928   4.576  10.350 -0.1104 -0.1803  0.2322
41005W        W49605   7.258   6.541  13.497  0.0242 -0.2310 -0.0002
41006W        W49606  16.370   6.193   6.148 -0.0727 -0.1723 -0.1013
41007W        W49607  15.926   2.157  19.574 -0.0167 -0.1443  0.0512
41008W        W49608  17.501   2.260   6.293 -0.2122  0.1466  0.0643
41009W        W49609  16.417   0.760  15.536 -0.4037  0.2582  0.0441
41010W        W49610   2.693   7.001  23.286  0.0747  0.0044 -0.0321
41011W        W49611  16.347   4.779  28.452 -0.3557  0.3336 -0.2811
41012W        W49612  16.330   1.029  22.031  0.3660  0.2640  0.1089
41013W        W49613   8.853   0.531  24.156  0.0543 -0.1431  0.0500
41014W        W49614  13.406   1.670  24.334 -0.0074  0.2165 -0.0100
41015W        W49615  22.842   6.157  31.123 -0.1649  0.1705  0.0723
41016W        W49616  17.169   0.804  30.073  0.1113  0.2710  0.0442
41017W        W49617   3.579   3.808   5.086 -0.0231  0.1845 -0.4032
41018W        W49618   5.353   1.825  24.977 -0.0659  0.2429 -0.1354
41019W        W49619  15.915   6.260   3.553 -0.4168 -0.1920  0.0267
41020W        W49620  11.772   5.882   4.573  0.3367  0.0376 -0.1312
41021W        W49621  24.291   4.904  21.599  0.0869  0.0243  0.0950
41022W        W49622  12.957   5.549  30.337  0.0970  0.4103 -0.1248
41023W        W49623  19.314   2.930  10.955 -0.1238  0.0885 -0.0650
41024W        W49624  20.402   1.084   8.627  0.2044 -0.3105  0.0626
41025W        W49625  16.259   1.459  30.550 -0.4153  0.0912 -0.1163
41026W        W49626  13.198   2.424  10.203  0.0238 -0.1722  0.2656
41027W        W49627  17.982   5.344  27.749 -0.0329  0.1397 -0.0093
41028W        W49628   8.105   0.737  31.928 -0.0340 -0.2947  0.1107
41029W        W49629   4.660   0.889  29.502 -0.0005 -0.5575 -0.1459
41030W        W49630  24.007   7.530  12.913  0.0463 -0.1287  0.0467
41031W        W49631  23.410   7.518   6.755 -0.2708 -0.0436  0.0486
41032W        W49632   0.828   4.991   1.195  0.1372  0.1006 -0.1184
41033W        W49633   5.471   1.786  27.619  0.3094 -0.3587  0.1848
41034W        W49634  18.143   2.351  30.690  0.1077  0.2133 -0.0942
41035W        W49635  17.311   4.782  24.253 -0.1470 -0.0611  0.1153
41036W        W49636   9.413   6.180   4.199  0.1112 -0.2204 -0.0712
41037W        W49637   5.535   6.844  29.381  0.2657 -0.0527  0.0216
41038W        W49638  16.378   0.395  24.721 -0.0219 -0.2078  0.2088
41039W        W49639  23.217   6.385  27.002  0.0009  0.2457  0.0477
41040W        W49640   2.764   6.491  24.726  0.1757 -0.4104 -0.0433
41041W        W49641  22.114   7.767  27.934 -0.2055  0.0864  0.0154
41042W        W49642   2.538   4.704  25.324  0.1572 -0.1974 -0.0864
41043W        W49643   3.366   5.486   4.930  0.0313 -0.3761  0.0399
41044W        W49644  15.369   2.559   8.966 -0.0516 -0.0057  0.1540
41045W        W49645   9.004   7.245  15.790 -0.1600  0.0888 -0.3888
41046W        W49646   8.084   7.069   6.314  0.3039 -0.0789  0.6488
41047W        W49647   5.272   5.248  18.129 -0.0788  0.1344  0.0178
41048W        W49648  18.485   3.063  26.194  0.0639  0.2430 -0.0025
41049W        W49649  14.057   4.344  17.355 -0.1196 -0.0656 -0.2671
41050W        W49650  15.137   0.319  16.156 -0.3262 -0.0555  0.2611
41051W        W49651  12.931   5.964   6.463 -0.3034  0.2269  0.0776
41052W        W49652  10.229   2.553  23.082 -0.4094 -0.2858 -0.3344
41053W        W49653   2.978   2.929  12.641 -0.3143 -0.1672  0.0706
41054W        W49654   7.670   2.681  29.694  0.0389  0.4262 -0.1614
41055W        W49655   5.160   7.133  32.902 -0.1691  0.0712  0.0983
41056W        W49656  17.998   1.418   7.419  0.1303 -0.0299 -0.0080
41057W        W49657  17.492   0.774   1.391 -0.0433  0.0507 -0.1401
41058W        W49658   0.120   0.977   7.097 -0.1394  0.2439  0.1099
41059W        W49659   6.750   7.609  12.672  0.0802  0.0226  0.0413
41060W        W49660  11.019   1.066   6.487  0.1385 -0.1946  0.1833
41061W        W49661   0.051   7.765  24.796 -0.1058  0.3053 -0.2585
41062W        W49662  23.724   3.933  12.710  0.3880 -0.1263 -0.4438
41063W        W49663  11.898   7.237  31.642  0.2640  0.0821  0.2327
41064W        W49664  23.722   1.993  10.933 -0.2609  0.2846 -0.4264
41065W        W49665   1.721   3.070   5.694 -0.2213 -0.1910  0.0565
41066W        W49666  24.462   5.109  28.755 -0.0366 -0.0052 -0.3150
41067W        W49667   6.464   4.555  17.413  0.1117  0.1330 -0.1832
41068W        W49668  15.512   6.111   2.655 -0.1232  0.1352  0.1507
41069W        W49669   3.836   3.868  28.941 -0.1112  0.0329 -0.0898
41070W        W49670   7.800   1.953   7.398 -0.3400 -0.1866  0.1049
41071W        W49671   0.154   5.478  31.183  0.0240  0.0284 -0.0164
41072W        W49672   1.971   7.327  25.737  0.2310  0.0227 -0.0908
41073W        W49673   9.620   3.090  26.078 -0.2187  0.1484  0.0572
41074W        W49674   6.241   5.854   7.479 -0.1291 -0.1155 -0.4129
41075W        W49675  10.297   1.696   1.439 -0.2854 -0.0773 -0.1101
41076W        W49676  16.073   2.592  29.326 -0.0465  0.2961 -0.0470
41077W        W49677  21.637   5.358   6.581 -0.4713  0.1226 -0.0177
41078W        W49678   9.296   1.772  12.894  0.0786  0.2661 -0.3006
41079W        W49679   5.067   6.925  29.093 -0.0725 -0.1599 -0.0022
41080W        W49680   2.863   2.444  11.809  0.1617  0.1773  0.1107
41081W        W49681  14.200   1.180   3.995  0.1352  0.0818  0.0148
41082W        W49682  16.897   3.324  28.323 -0.0771  0.0669  0.0572
41083W        W49683   2.689   0.796  12.261 -0.2238  0.1064  0.0800
41084W        W49684  20.659   6.843  32.733 -0.1418  0.0734 -0.0647
41085W        W49685  10.868   3.699  29.493  0.0854  0.0424  0.0033
41086W        W49686  13.870   4.124   6.932 -0.1441  0.0390  0.1584
41087W        W49687  21.204   0.156   7.013  0.2210 -0.1577  0.1319
41088W        W49688  17.378   2.556  21.109 -0.0341 -0.1808  0.1666
41089W        W49689  11.986   7.306  30.313 -0.0838  0.3263 -0.0135
41090W        W49690  22.982   7.769   6.164  0.1256 -0.0863  0.1092
41091W        W49691  22.237   4.764  21.816 -0.1691  0.1223 -0.1399
41092W        W49692  23.430   0.410  25.553 -0.2212 -0.2382  0.1435
41093W        W49693   9.983   7.038  30.661  0.2138  0.0224  0.2282
41094W        W49694  19.003   2.095  26.040 -0.0937 -0.2194 -0.0512
41095W        W49695   9.307   4.086   0.843 -0.0640  0.0272  0.1923
41096W        W49696   8.120   5.168   8.697  0.2105 -0.1004 -0.3355
41097W        W49697  24.638   5.447  13.314 -0.1186  0.0481 -0.2815
41098W        W49698  10.612   4.480  32.101 -0.2193 -0.0523  0.0274
41099W        W49699  19.366   2.936   0.021 -0.1053 -0.0085 -0.1894
41100W        W49700  10.605   0.245  20.317 -0.0853 -0.1286  0.1953
41101W        W49701  17.744   0.913  16.956 -0.1088 -0.0326 -0.2366
41102W        W49702   9.089   1.601  25.137  0.0170 -0.3185 -0.1804
41103W        W49703   7.079   2.921   6.690  0.3578  0.0865 -0.1230
41104W        W49704   7.463   7.183  27.225  0.0931 -0.0853  0.1871
41105W        W49705  11.424   2.989  23.473  0.0920 -0.1578 -0.1108
41106W        W49706  18.416   2.561  28.959  0.1670 -0.0351 -0.2717
41107W        W49707  24.082   0.793  19.996 -0.3719 -0.1817  0.0195
41108W        W49708   9.247   4.087  11.494  0.1064 -0.2218 -0.2932
41109W        W49709  15.911   2.925   1.301  0.1303 -0.1573 -0.2454
41110W        W49710   4.340   6.251   2.329  0.1748  0.0268 -0.2635
41111W        W49711  10.946   0.187  24.673  0.3019  0.1171  0.0404
41112W        W49712   6.321   0.825   7.165  0.0935 -0.0839 -0.0469
41113W        W49713   1.793   3.610   0.735 -0.0988 -0.0680  0.2081
41114W        W49714  23.562   5.168  27.928  0.0349 -0.0620  0.2370
41115W        W49715  20.477   4.455   0.488 -0.0741  0.1256  0.1006
41116W        W49716  21.613   4.381  20.334 -0.0527 -0.3406  0.0411
41117W        W49717  10.461   0.667   7.592 -0.2312 -0.0307  0.0425
41118W        W49718  17.209   1.802  15.414 -0.1103  0.0710  0.0283
41119W        W49719   5.824   2.456   9.715 -0.0477  0.0979 -0.0123
41120W        W49720   5.865   1.931   2.256  0.1466 -0.1762  0.2104
41121W        W49721   9.861   1.859  27.323  0.0265  0.2473  0.1226
41122W        W49722  18.115   2.394  29.361 -0.2086 -0.0440 -0.0651
41123W        W49723  17.901   2.959   0.018 -0.1036 -0.0275  0.2330
41124W        W49724  10.721   2.438  21.953  0.1514  0.0330  0.2904
41125W        W49725  23.982   0.489  24.923  0.0219 -0.0648 -0.1511
41126W        W49726   0.583   0.510  13.618  0.2504  0.0735 -0.0210
41127W        W49727  13.020   7.193  10.594 -0.0944 -0.0807  0.1310
41128W        W49728  13.454   6.027  20.686 -0.2100 -0.1213 -0.2001
41129W        W49729  19.803   1.044   4.117 -0.1553  0.1711  0.0617
41130W        W49730   5.241   3.531  13.546 -0.2916  0.2340 -0.2661
41131W        W49731  20.715   4.808   9.658 -0.0357  0.0974 -0.0735
41132W        W49732   6.254   1.479  15.479  0.2612  0.1632  0.3056
41133W        W49733   4.427   2.276  29.468  0.0457  0.1341 -0.0737
41134W        W49734   9.228   2.805   6.970  0.1830  0.1739  0.1412
41135W        W49735   0.424   7.262  31.096 -0.0165 -0.1682  0.1028
41136W        W49736  23.306   4.491   8.325  0.0793 -0.0051  0.1331
41137W        W49737  12.396   4.592  11.269 -0.4492  0.0990  0.1262
41138W        W49738   8.325   2.324  30.016 -0.1232  0.2434  0.1702
41139W        W49739   6.789   1.062  30.340 -0.2753  0.3749  0.0929
41140W        W49740   1.488   0.710  12.851 -0.3327  0.0898 -0.1169
41141W        W49741  23.207   1.787  10.348 -0.0749  0.3145 -0.1934
41142W        W49742  20.090   4.659  10.705  0.0453  0.0168 -0.3841
41143W        W49743   0.502   5.949  15.564 -0.3541  0.0145 -0.1701
41144W        W49744  18.654   4.617  22.544 -0.1944 -0.0390  0.0529
41145W        W49745  12.194   2.241  26.145  0.3636  0.1632 -0.0996
41146W        W49746   5.632   4.014  32.036 -0.3352 -0.0430 -0.2294
41147W        W49747  16.305   3.849   7.732 -0.0483 -0.0801  0.2880
41148W        W49748  24.185   7.266   9.512  0.1723  0.6005 -0.1059
41149W        W49749  13.985   5.557  22.207  0.1282  0.0751 -0.1701
41150W        W49750   8.308   1.416  32.058 -0.2194 -0.1236 -0.0395
41151W        W49751   3.531   5.506   8.009  0.1125  0.0132 -0.3176
41152W        W49752  15.381   1.579  18.515  0.1237  0.1085  0.0676
41153W        W49753   5.648   5.829   9.849  0.2165  0.0203 -0.0620
41154W        W49754   7.833   4.235  11.336 -0.4244  0.2193  0.1764
41155W        W49755  10.397   5.293  21.221 -0.0688  0.1977  0.2436
41156W        W49756  11.074   3.871  18.782 -0.0104 -0.0010 -0.2116
41157W        W49757  23.362   0.204  21.360  0.3819 -0.0255 -0.1098
41158W        W49758  19.470   5.148   4.814  0.0455  0.0598  0.1013
41159W        W49759   2.889   5.141  13.769  0.1580  0.0836 -0.3836
41160W        W49760   8.170   5.435  10.519  0.4260  0.2543 -0.0073
41161W        W49761  15.755   6.170  30.382  0.2082  0.0811 -0.0273
41162W        W49762   5.862   5.460  27.404  0.0665  0.0423 -0.2084
41163W        W49763   0.533   4.709  23.515 -0.0619 -0.2433  0.2315
41164W        W49764  11.610   4.744  29.699 -0.3048 -0.2368 -0.2312
41165W        W49765   8.606   0.819   8.029 -0.0243 -0.0429 -0.1004
41166W        W49766   7.620   1.124  13.835 -0.0140  0.2121  0.3099
41167W        W49767   7.503   6.227  11.893  0.0051 -0.0033 -0.1087
41168W        W49768   0.218   3.840  10.553  0.1496 -0.0240  0.0365
41169W        W49769  19.043   2.473   0.788  0.0715  0.2834  0.0795
41170W        W49770  13.070   3.199  30.235  0.1653 -0.0393  0.2431
41171W        W49771   5.971   5.272  11.086  0.2152  0.2598 -0.0435
41172W        W49772  18.743   4.715   0.707 -0.1737 -0.2043  0.0145
41173W        W49773  16.697   7.747   5.913 -0.0132 -0.0542 -0.2532
41174W        W49774  16.757   3.226   4.899 -0.0899  0.0454  0.2617
41175W        W49775   1.898   3.234   8.851 -0.2160  0.0437 -0.3388
41176W        W49776   7.535   2.625  15.322 -0.1933 -0.1960 -0.1047
41177W        W49777  22.814   1.496   1.103 -0.1825 -0.2094 -0.0582
41178W        W49778  23.176   4.417  30.170 -0.0772  0.0683  0.1751
41179W        W49779   3.865   2.106   4.980 -0.0775 -0.1087 -0.1337
41180W        W49780   7.388   7.486  25.988  0.2020  0.0939  0.1229
41181W        W49781  14.592   6.863  31.355 -0.0470 -0.2930  0.5726
41182W        W49782   4.584   0.230  16.491  0.2417 -0.2922  0.0916
41183W        W49783  23.526   6.202  32.466 -0.1514 -0.0568 -0.1831
41184W        W49784  14.833   7.524   0.669  0.0474  0.0438 -0.1567
41185W        W49785  22.647   4.429   1.605 -0.1097  0.1535  0.0447
41186W        W49786  23.164   2.414  26.488 -0.1400  0.1968 -0.1043
41187W        W49787   9.661   2.759  22.402 -0.1271  0.1178 -0.1395
41188W        W49788  12.707   7.446   1.449 -0.1112  0.1509 -0.0005
41189W        W49789   5.518   1.620  22.321 -0.1396  0.3473 -0.2217
41190W        W49790   7.997   5.144  27.785  0.0366  0.1910 -0.1158
41191W        W49791  13.260   4.029   4.123  0.1709 -0.1024 -0.0861
41192W        W49792   7.423   2.533  31.649 -0.1267  0.0587 -0.2421
41193W        W49793  21.340   6.736  22.063 -0.0244  0.2156 -0.1332
41194W        W49794  23.184   6.577  10.594 -0.0083 -0.0066 -0.0218
41195W        W49795  17.868   7.281   1.056 -0.0237 -0.1429  0.0035
41196W        W49796   9.534   4.044   0.269 -0.0341 -0.3025  0.1533
41197W        W49797  18.243   2.321  23.243 -0.3682  0.0101  0.0288
41198W        W49798  24.411   2.642  29.014  0.3357 -0.1198  0.0817
41199W        W49799  17.114   2.248   6.807  0.0211 -0.2465  0.4135
41200W        W49800   7.403   0.375   5.636 -0.0062 -0.3051 -0.0890
41201W        W49801   9.681   0.222   5.970  0.0023 -0.1526  0.1833
41202W        W49802   2.467   2.152   1.149  0.1960  0.2064  0.1452
41203W        W49803   0.477   3.239  22.317  0.1111  0.0425  0.2622
41204W        W49804   7.977   0.399  32.925 -0.0715  0.1181 -0.4327
41205W        W49805   0.091   4.159  29.754 -0.0461 -0.0425  0.2346
41206W        W49806  22.506   1.744  31.048  0.1087 -0.2775  0.0418
41207W        W49807   1.613   2.392   9.157  0.1918  0.2852  0.2470
41208W        W49808  13.744   0.317  17.449 -0.0258 -0.0079 -0.1831
41209W        W49809   9.219   5.388   7.083 -0.1429 -0.1110  0.3106
41210W        W49810  23.381   7.217  23.861  0.1297  0.1052  0.0676
41211W        W49811   3.707   0.387  12.941  0.0101  0.0826  0.1043
41212W        W49812  18.586   3.187  20.646 -0.1172 -0.0217  0.0068
41213W        W49813  17.278   3.095   2.736  0.0906  0.1811 -0.0918
41214W        W49814   6.935   6.117   9.384  0.0304  0.2115  0.1615
41215W        W49815  13.607   3.988  31.284  0.0820 -0.2099  0.0160
41216W        W49816  17.352   1.625  32.321  0.0023  0.1720 -0.1116
41217W        W49817   7.044   0.665  14.206 -0.1508  0.1699 -0.2096
41218W        W49818   1.682   6.832  28.582  0.0369  0.0143  0.0804
41219W        W49819  15.492   6.532  26.113 -0.0815  0.0357  0.1470
41220W        W49820  23.906   0.771   9.694 -0.3686 -0.1680  0.2381
41221W        W49821  16.147   2.723  27.246 -0.1726 -0.0213  0.1979
41222W        W49822   2.950   6.988   9.478 -0.2649  0.0665 -0.0770
41223W        W49823   4.034   2.951   2.908 -0.5146 -0.0502 -0.0159
41224W        W49824  11.917   1.379  23.873  0.1262 -0.0182  0.3541
41225W        W49825  17.351   7.548   4.174 -0.1717 -0.0211 -0.3521
41226W        W49826   1.193   3.842  29.342 -0.0005  0.0228 -0.0283
41227W        W49827   5.242   5.292  30.314 -0.1237  0.1170 -0.0354
41228W        W49828  23.001   3.125  11.685  0.0979 -0.1665 -0.2819
41229W        W49829  20.727   1.553   2.105  0.2995  0.0923 -0.0317
41230W        W49830  18.370   5.928   1.936 -0.1756 -0.0095 -0.1431
41231W        W49831  13.905   4.560  29.222 -0.1966  0.1681 -0.1133
41232W        W49832  15.599   1.061  21.486  0.2501 -0.2290 -0.1589
41233W        W49833   8.275   7.306   9.155 -0.1978  0.1926 -0.2689
41234W        W49834   4.521   7.293   4.596 -0.4703 -0.2430  0.1659
41235W        W49835   5.033   4.396   3.349 -0.1351 -0.0281 -0.2169
41236W        W49836   8.626   2.821  12.500 -0.2540 -0.0426  0.2746
41237W        W49837  12.874   3.967   2.122  0.1353 -0.0314  0.0296
41238W        W49838  24.655   0.892  27.172 -0.0900 -0.0359  0.1858
41239W        W49839  11.733   7.345   9.826  0.0557 -0.1048  0.0611
41240W        W49840   1.798   1.944  26.155 -0.4082 -0.2161 -0.0221
41241W        W49841  12.475   6.136  30.091  0.2731 -0.2719  0.2622
41242W        W49842   1.558   3.418  32.327 -0.0533 -0.2609  0.1219
41243W        W49843   1.296   6.716  31.122  0.0269 -0.1974  0.3861
41244W        W49844   6.578   6.717  12.952 -0.3430  0.1397  0.1490
41245W        W49845   7.726   2.196   1.613  0.1621  0.1863 -0.2381
41246W        W49846   1.601   0.070  23.710 -0.1973  0.0864  0.0334
41247W        W49847   5.536   5.442  28.624 -0.0669 -0.0405 -0.0497
41248W        W49848  22.815   3.793   3.776  0.0784 -0.1133 -0.0772
41249W        W49849  18.000   7.602   6.959  0.0069 -0.2457  0.0775
41250W        W49850  24.726   4.537  15.294 -0.0209 -0.1389 -0.1368
41251W        W49851  11.285   1.523   5.017  0.0457 -0.0690  0.1749
41252W        W49852  23.395   5.078  20.390 -0.1320 -0.0217 -0.0000
41253W        W49853   1.206   1.167   8.737 -0.0948  0.0396 -0.0924
41254W        W49854   1.092   6.718   4.587  0.1054 -0.2967 -0.1332
41255W        W49855   3.938   2.130  19.109  0.1827 -0.1198 -0.0016
41256W        W49856  13.385   1.582   5.764 -0.0542  0.1982 -0.0346
41257W        W49857  18.102   6.653   3.023  0.3721 -0.1203  0.0033
41258W        W49858  18.339   5.216   1.229 -0.1054  0.1147  0.0461
41259W        W49859  24.221   6.832  28.909 -0.4196 -0.1361 -0.1786
41260W        W49860   0.776   6.459  22.658  0.2102  0.0928  0.2338
41261W        W49861  13.120   0.739   8.793  0.2058  0.0142 -0.1845
41262W        W49862  20.442   3.599   5.288  0.1929 -0.1897 -0.0084
41263W        W49863  21.046   7.554   6.643  0.0058  0.3367 -0.1365
41264W        W49864  20.246   2.684  26.281  0.3552  0.1594 -0.1798
41265W        W49865  13.966   3.334   0.594  0.0446 -0.3859  0.2559
41266W        W49866  18.805   4.146  17.199 -0.0565  0.0381  0.1236
41267W        W49867  14.132   2.540  21.183 -0.0075 -0.0460  0.0954
41268W        W49868   5.411   1.344  15.981 -0.0672  0.0282  0.2150
41269W        W49869  12.792   0.049   3.609 -0.0766 -0.2495 -0.0270
41270W        W49870  17.807   4.982   8.332 -0.2593 -0.0931  0.1361
41271W        W49871   6.689   4.650  32.185  0.1128  0.1023 -0.3589
41272W        W49872   3.810   3.810  27.021  0.2706  0.2594 -0.1127
41273W        W49873   8.505   7.778  24.020 -0.3532 -0.2264 -0.0501
41274W        W49874  11.826   4.793  22.239  0.1374  0.2254  0.0996
41275W        W49875  17.055   0.678  20.831  0.2724 -0.1776 -0.2667
41276W        W49876  18.436   1.957   1.411 -0.0881  0.0329 -0.3483
41277W        W49877   1.767   1.433  26.190 -0.0329 -0.1251 -0.2650
41278W        W49878   2.598   3.876  10.194 -0.1611  0.0559 -0.0355
41279W        W49879   4.210   1.802   4.159  0.0763  0.1778 -0.2543
41280W        W49880  23.355   7.457   7.798  0.0295 -0.0844 -0.2119
41281W        W49881  14.466   0.653   8.282  0.1253 -0.0644 -0.0230
41282W        W49882   6.664   1.232  24.727 -0.0459  0.1916  0.1864
41283W        W49883   2.972   0.436  27.358  0.0723  0.4837 -0.0808
41284W        W49884  15.398   5.942  10.601  0.0440  0.0725 -0.1898
41285W        W49885  18.864   6.437  28.784 -0.0922 -0.0386  0.2076
41286W        W49886  20.528   6.484   8.393  0.2019 -0.2522  0.1730
41287W        W49887  12.416   1.435   7.235  0.3056  0.1018 -0.0486
41288W        W49888  10.673   0.324  30.225  0.2317 -0.0221 -0.1625
41289W        W49889  19.906   3.610  24.762 -0.0001  0.1076 -0.0253
41290W        W49890   0.556   1.595   0.158  0.2642 -0.1480 -0.0533
41291W        W49891   5.407   3.553  22.179  0.1144 -0.0709 -0.0625
41292W        W49892  13.270   7.704   2.238  0.0281  0.1501  0.0954
41293W        W49893   4.084   0.018  15.769  0.0671 -0.2011  0.2135
41294W        W49894  13.730   6.503  27.657  0.0951 -0.0155  0.3180
41295W        W49895   6.127   2.985  26.480 -0.2779  0.1491 -0.1394
41296W        W49896   7.936   5.565   0.917  0.2583  0.0921 -0.2445
41297W        W49897  21.641   4.445  11.628 -0.3879 -0.0980  0.0391
41298W        W49898  20.520   6.388  10.170 -0.0338 -0.0807  0.2086
41299W        W49899  14.490   5.631   4.652  0.0805 -0.0839 -0.1627
41300W        W49900   5.613   5.189  29.900  0.0376  0.1761 -0.0439
41301W        W49901  24.732   4.686  14.214  0.1245  0.0512 -0.3017
41302W        W49902  12.175   0.111  27.771  0.2485 -0.0147 -0.1901
41303W        W49903   7.681   0.843   1.180  0.0427 -0.1149  0.1608
41304W        W49904  23.331   2.530   3.583  0.0959  0.2008 -0.0649
41305W        W49905   8.459   3.918   4.442  0.0366 -0.2511  0.1521
41306W        W49906  10.878   0.999  23.592  0.0342 -0.2132 -0.0087
41307W        W49907  13.810   4.848  16.655 -0.0769 -0.3414  0.1416
41308W        W49908   3.538   3.714  17.857  0.1070 -0.3225 -0.0183
41309W        W49909   2.011   1.159  31.168 -0.1419  0.3216 -0.0648
41310W        W49910   3.446   4.629  11.689  0.1688 -0.0948 -0.0660
41311W        W49911   9.290   4.744  31.876  0.5363 -0.3133 -0.0528
41312W        W49912  10.162   6.600   8.548 -0.0401  0.0778  0.0585
41313W        W49913  18.204   2.572   8.119 -0.0209  0.1370  0.5068
41314W        W49914  21.492   2.582   8.958  0.0828  0.1465  0.1222
41315W        W49915  22.188   3.223  32.092  0.0002  0.0985 -0.0649
41316W        W49916   9.564   1.293   4.452  0.3018  0.1515  0.4738
41317W        W49917  19.344   1.432  22.523  0.1331  0.0806  0.0498
41318W        W49918   7.205   2.115   8.331  0.0484  0.2275  0.1580
41319W        W49919  16.174   7.699  23.769 -0.1571 -0.0638 -0.1199
41320W        W49920   7.070   0.002   5.233 -0.1224  0.0414  0.4211
41321W        W49921  12.418   0.822  17.395  0.0759 -0.1612 -0.1859
41322W        W49922  11.994   4.579  23.158 -0.3036 -0.1856 -0.0627
41323W        W49923  17.225   6.646  25.364 -0.0364 -0.2409  0.2045
41324W        W49924   1.537   0.423   1.972 -0.2185 -0.1230 -0.1863
41325W        W49925  20.935   5.710   0.994  0.0669  0.2390  0.1178
41326W        W49926  12.275   4.049   3.276 -0.1867 -0.0436  0.0719
41327W        W49927   4.119   4.339   3.981 -0.0094 -0.0014 -0.0825
41328W        W49928  14.896   3.212  23.660 -0.4071 -0.0393 -0.0756
41329W        W49929  24.588   7.323   1.809  0.1119 -0.0121 -0.0684
41330W        W49930  15.043   7.536   9.996 -0.1518  0.1560  0.1262
41331W        W49931   4.562   1.373   7.184  0.1476 -0.0447 -0.2576
41332W        W49932   9.920   1.969   3.029  0.1474  0.1974 -0.0699
41333W        W49933  11.001   4.877  22.782 -0.2217 -0.0582  0.0736
41334W        W49934  11.846   0.798  23.249 -0.0212  0.0824  0.1579
41335W        W49935  14.691   3.387  17.268  0.1309  0.2756  0.0321
41336W        W49936   9.291   5.661   9.331 -0.0472 -0.1787 -0.1022
41337W        W49937  13.473   7.451  31.565  0.1273  0.2011  0.0157
41338W        W49938  20.863   0.003  32.556  0.2357  0.1375 -0.1739
41339W        W49939  17.950   6.990   2.241 -0.0726  0.1307 -0.0856
41340W        W49940  14.907   1.805  23.298 -0.5203  0.0713  0.0216
41341W        W49941  14.317   0.914   0.124 -0.2131 -0.1845 -0.1676
41342W        W49942  22.463   3.363   7.159  0.0712  0.4495 -0.0565
41343W        W49943   4.788   7.079  32.434 -0.0651  0.3089  0.3574
41344W        W49944   2.870   2.195  17.122  0.3699  0.0274 -0.0011
41345W        W49945  12.154   2.160  23.496 -0.0004 -0.0756  0.0015
41346W        W49946  16.362   2.468   9.694  0.1505  0.0013 -0.1234
41347W        W49947  11.640   5.419  12.104 -0.0459  0.1779 -0.2490
41348W        W49948  12.506   1.849   4.516  0.1122 -0.1949 -0.0582
41349W        W49949  14.374   1.655  24.999  0.2270 -0.0944 -0.1221
41350W        W49950   5.481   4.158   4.162  0.0690 -0.0836  0.0871
41351W        W49951  23.104   1.590  29.639  0.1798 -0.1652 -0.1391
41352W        W49952  11.829   0.648   8.779  0.0841  0.1501 -0.0372
41353W        W49953  24.239   1.967  23.511  0.1992  0.3829 -0.2063
41354W        W49954  20.366   5.376  31.829 -0.1050 -0.3912  0.0783
41355W        W49955  23.141   0.081   7.572 -0.1982  0.2132 -0.1411
41356W        W49956   8.586   1.476  25.075  0.2763  0.2263 -0.1049
41357W        W49957  23.304   3.254  29.917  0.1147  0.3992 -0.1370
41358W        W49958  21.966   4.438  33.021  0.2396 -0.1140 -0.0090
41359W        W49959  10.934   3.048   5.657  0.0092 -0.1183 -0.1081
41360W        W49960   7.900   2.685  26.393  0.2304  0.0351  0.2017
41361W        W49961   3.052   3.805  23.043 -0.1659 -0.3584  0.1968
41362W        W49962   5.656   4.814  25.042  0.1620 -0.1835  0.0551
41363W        W49963  15.400   6.898   3.683 -0.0047  0.0917  0.0942
41364W        W49964  15.865   0.047   6.310 -0.0461 -0.0381  0.0687
41365W        W49965  10.785   7.694   5.227 -0.4498  0.1312 -0.1734
41366W        W49966  15.459   5.840   8.895  0.0758 -0.0636  0.0919
41367W        W49967  14.843   1.869  24.764 -0.3570 -0.0007 -0.0621
41368W        W49968   1.998   6.245   8.749  0.1211 -0.0424  0.2719
41369W        W49969  11.361   6.498  21.924 -0.2193 -0.0649  0.0168
41370W        W49970   5.108   5.034  31.251  0.2527  0.2271 -0.1060
41371W        W49971  14.694   6.672  18.213 -0.1130 -0.3207  0.2018
41372W        W49972   8.144   5.413  31.179 -0.0941  0.1834 -0.0462
41373W        W49973  24.640   2.826  13.024 -0.3698 -0.0042  0.0821
41374W        W49974  12.521   1.279  20.504 -0.1049  0.2926 -0.2082
41375W        W49975   0.137   6.401   1.844  0.4218  0.0718 -0.2927
41376W        W49976  13.745   0.594   8.905 -0.0489  0.1209  0.1124
41377W        W49977  23.308   4.420  12.902  0.0467  0.0746 -0.1200
41378W        W49978  10.465   0.632   5.824  0.1215 -0.0336 -0.2232
41379W        W49979  14.262   2.558  24.795 -0.2073 -0.1056 -0.2043
41380W        W49980  11.946   1.691  28.366 -0.0868  0.2437  0.0188
41381W        W49981  13.655   3.564   0.912  0.0461 -0.2936  0.4032
41382W        W49982  13.874   0.619  27.685 -0.0551 -0.1159 -0.0724
41383W        W49983   7.097   3.061  23.347  0.2438  0.0629 -0.0475
41384W        W49984  20.752   6.706   1.714 -0.0388 -0.1899  0.2415
41385W        W49985  10.790   1.516   2.120  0.1358  0.1053 -0.1859
41386W        W49986  17.185   7.016   4.080  0.0431  0.0859 -0.2550
41387W        W49987  23.043   7.790  30.633 -0.1939  0.1100  0.0304
41388W        W49988  14.523   6.416   3.463  0.1048  0.1980 -0.2204
41389W        W49989  17.434   0.817   2.778 -0.0617 -0.0672  0.1494
41390W        W49990  24.264   4.483  13.013 -0.1914  0.3293  0.0679
41391W        W49991  17.413   0.908  26.267  0.1976  0.1907  0.2208
41392W        W49992   2.267   0.769  27.118  0.0625  0.1312  0.2041
41393W        W49993  23.843   1.174   7.762  0.3936 -0.1027 -0.0012
41394W        W49994  19.984   5.983   8.427 -0.0584  0.0788  0.1470
41395W        W49995   0.453   5.603   5.807  0.1543  0.0299 -0.0055
41396W        W49996   5.493   0.252   3.549 -0.0129  0.3038 -0.2516
41397W        W49997   3.129   7.206  23.508  0.0540  0.2335  0.0639
41398W        W49998  15.310   3.976   7.946  0.0948  0.3713 -0.0958
41399W        W49999   3.345   7.590  27.020  0.1433 -0.0699 -0.1395
41400W        W50000  20.435   3.806  28.664 -0.2169 -0.1667 -0.0294
41401W        W50001   7.816   7.389  30.585 -0.1129 -0.0263 -0.0690
41402W        W50002  16.695   1.638   4.980  0.3778 -0.2564 -0.1715
41403W        W50003   5.799   3.439  30.932 -0.2780 -0.0749  0.2063
41404W        W50004  14.932   0.947   7.357  0.0194 -0.1977 -0.2405
41405W        W50005  22.939   1.559  13.437 -0.1266  0.0913  0.1562
41406W        W50006  23.034   1.170  32.206 -0.1223  0.0899 -0.1024
41407W        W50007  23.785   5.400   4.209  0.0141  0.2380 -0.0376
41408W        W50008   4.355   4.478  29.431  0.2786 -0.0883  0.0037
41409W        W50009   5.035   6.499  22.975 -0.0011  0.3865 -0.0960
41410W        W50010  20.602   1.110  20.308 -0.1202  0.0145 -0.1336
41411W        W50011   7.211   2.412   3.104 -0.1129  0.1681  0.3978
41412W        W50012  17.145   6.686   9.032  0.0998 -0.2423  0.2760
41413W        W50013   7.884   5.770   9.582  0.2766 -0.0839  0.0294
41414W        W50014   0.630   3.460   2.670  0.4749 -0.2369 -0.2718
41415W        W50015  13.204   2.325  17.964  0.0679  0.3351  0.2360
41416W        W50016  20.062   4.202   9.621 -0.0487 -0.1971  0.0510
41417W        W50017   2.578   6.584   2.436  0.1008  0.1925  0.1595
41418W        W50018  16.292   6.813   2.359 -0.3145 -0.2575  0.1656
41419W        W50019   6.058   0.741  22.486 -0.3115  0.1358  0.1463
41420W        W50020   6.018   3.149  17.940 -0.0327  0.1142 -0.2858
41421W        W50021  13.281   2.636  32.370 -0.1310  0.1142  0.4006
41422W        W50022  16.684   7.770  31.659  0.1490 -0.1902  0.0560
41423W        W50023   8.129   4.009  10.605 -0.0927 -0.0936 -0.1328
41424W        W50024  18.242   3.049  20.314 -0.0755  0.3551  0.0623
41425W        W50025  23.260   6.631   1.772  0.2692 -0.1411 -0.0557
41426W        W50026   8.039   1.463  25.528  0.1063  0.5795  0.0916
41427W        W50027   4.322   6.242  22.880 -0.0852 -0.0440  0.0309
41428W        W50028   9.521   4.726   8.112 -0.1775  0.0090 -0.0952
41429W        W50029   5.500   6.980  23.363  0.4010  0.1990  0.2757
41430W        W50030   2.690   5.241  11.040 -0.4007 -0.4524  0.3189
41431W        W50031  23.917   5.170   5.184 -0.0396 -0.2052 -0.2249
41432W        W50032  18.369   2.113   4.726 -0.0033  0.2870 -0.0558
41433W        W50033  12.549   6.592   8.154  0.2365  0.0157  0.0992
41434W        W50034  11.221   1.637   2.354 -0.0672  0.0948  0.0202
41435W        W50035   7.598   0.305  27.056  0.0180  0.0460 -0.0545
41436W        W50036  22.198   7.374  11.072 -0.3725  0.1709 -0.0954
41437W        W50037  15.560   3.977  16.729 -0.2400  0.1196  0.2343
41438W        W50038  11.376   0.082  29.482 -0.0780  0.0081  0.2779
41439W        W50039  10.420   5.946  10.812 -0.1392  0.0056  0.3960
41440W        W50040  13.033   0.444   6.751  0.0467  0.1256 -0.0576
41441W        W50041  11.543   1.598   1.947  0.0011  0.1621  0.0882
41442W        W50042  18.119   0.889  29.798 -0.0878 -0.0596 -0.2260
41443W        W50043   5.109   7.489  13.764 -0.1377 -0.2224 -0.1147
41444W        W50044   8.823   1.565   3.342  0.0981  0.4333  0.0896
41445W        W50045   3.236   1.396  26.710  0.0989  0.0313 -0.0177
41446W        W50046   4.768   6.964  29.766  0.2737  0.2882  0.1513
41447W        W50047   8.830   3.392  28.586 -0.1715  0.0179 -0.1846
41448W        W50048  11.047   7.362   4.880 -0.2512  0.0755 -0.0577
41449W        W50049  12.889   2.147  23.089  0.0147 -0.2717 -0.0150
41450W        W50050  19.874   4.294  26.349  0.0425 -0.0180  0.1584
41451W        W50051  16.300   3.768   1.044  0.3451 -0.1916 -0.0317
41452W        W50052  19.178   3.368  24.417 -0.3096 -0.0546  0.4073
41453W        W50053   3.935   5.287   7.037  0.2977 -0.1484  0.2776
41454W        W50054   7.651   5.749   5.063 -0.1170 -0.0571  0.2723
41455W        W50055  16.063   7.367  10.642 -0.1558  0.0465 -0.0698
41456W        W50056  23.734   3.200  31.323  0.3174  0.0084  0.0097
41457W        W50057  15.734   5.148  29.750  0.0273  0.1713 -0.2101
41458W        W50058   1.926   7.199   7.467  0.0274  0.2245 -0.0938
41459W        W50059   8.237   5.583  28.324  0.2013 -0.2047 -0.2030
41460W        W50060   0.464   6.529   3.311  0.0288  0.0838  0.2383
41461W        W50061  15.500   3.314  31.271 -0.1867  0.1812 -0.0427
41462W        W50062   5.101   3.937   6.196  0.0814  0.1574 -0.1885
41463W        W50063   2.329   2.573  22.285 -0.1728 -0.0304 -0.1150
41464W        W50064   7.942   1.514  14.045  0.1070 -0.0976 -0.0522
41465W        W50065  15.747   7.610  31.578 -0.0477 -0.1804 -0.2475
41466W        W50066   2.572   0.996  26.785 -0.0374  0.2581 -0.2621
41467W        W50067  13.080   5.511   4.083  0.0978  0.0631 -0.0112
41468W        W50068  16.308   4.450  28.008 -0.1308 -0.1027  0.1001
41469W        W50069  21.413   3.566  18.800  0.1323 -0.0443 -0.0329
41470W        W50070  14.024   0.197  32.402  0.1041 -0.1247 -0.1879
41471W        W50071   5.723   6.773  13.426 -0.0811 -0.3820 -0.0029
41472W        W50072   4.846   0.961   7.389 -0.0825  0.0315  0.0860
41473W        W50073  10.907   2.334  20.364 -0.3275 -0.0347  0.4694
41474W        W50074   2.296   6.084  26.357  0.0487  0.0766 -0.0764
41475W        W50075  23.949   6.864   4.106 -0.0630 -0.1824  0.2968
41476W        W50076   6.483   6.751   0.274 -0.0316 -0.1789 -0.0572
41477W        W50077   4.479   6.605  29.530 -0.0499  0.0179 -0.0260
41478W        W50078   5.476   4.337  13.989  0.0513 -0.0286 -0.0852
41479W        W50079  12.140   6.586  23.151  0.2264 -0.1365 -0.1092
41480W        W50080  18.035   6.967   4.723  0.0077  0.0648  0.1693
41481W        W50081  21.167   4.950   2.160  0.0078 -0.0301  0.0009
41482W        W50082   4.815   3.649  13.103 -0.2648 -0.4976  0.1044
41483W        W50083  21.037   0.526  12.254  0.1913 -0.1015  0.3202
41484W        W50084  21.486   1.039  25.315  0.2631 -0.0575 -0.1806
41485W        W50085  15.763   1.722  19.119  0.3314 -0.0493  0.1459
41486W        W50086   7.764   1.057  12.717 -0.1306  0.1809  0.0076
41487W        W50087  21.869   4.776  32.653 -0.0812  0.3701 -0.2623
41488W        W50088  10.275   1.278   8.531 -0.1980  0.0600 -0.1421
41489W        W50089   2.249   2.631  30.775  0.0201 -0.0452 -0.0553
41490W        W50090  24.288   7.212  10.289 -0.3414 -0.0871  0.3187
41491W        W50091   6.457   5.675  12.381 -0.1713  0.1920 -0.3635
41492W        W50092   2.485   5.388  28.784 -0.0611  0.0043  0.0255
41493W        W50093   5.976   0.981  30.073 -0.1053 -0.0710  0.5095
41494W        W50094  10.474   7.386  10.441  0.0139 -0.5810 -0.2159
41495W        W50095  14.694   1.916   4.551  0.2183  0.1332 -0.0171
41496W        W50096  16.774   6.361  10.705 -0.2642  0.0059  0.1330
41497W        W50097  17.988   2.856  25.184  0.0854  0.0724  0.0759
41498W        W50098   9.926   6.838   1.177 -0.1234 -0.1582  0.0554
41499W        W50099  16.046   1.654  22.588  0.1286 -0.0312  0.2449
41500W        W50100  13.510   2.238   7.740 -0.2808 -0.0549 -0.2577
41501W        W50101  10.584   4.924  26.239  0.1037 -0.1662  0.0066
41502W        W50102  24.932   4.333  32.515 -0.0009 -0.0795 -0.0276
41503W        W50103  14.023   5.861  20.003  0.1444 -0.3383  0.2444
41504W        W50104  11.673   5.217   2.310 -0.1243  0.0745 -0.1120
41505W        W50105  24.596   3.817  22.559  0.0511 -0.3343 -0.2442
41506W        W50106  13.211   0.513  23.042  0.2168 -0.1134  0.2491
41507W        W50107   3.492   2.564  16.609  0.0989  0.0209  0.2269
41508W        W50108  11.096   2.201  18.536 -0.1824 -0.2244 -0.0054
41509W        W50109  18.104   7.342  24.764 -0.1970 -0.3528 -0.0098
41510W        W50110  22.737   3.169  26.252 -0.3318 -0.2636  0.2093
41511W        W50111  20.707   2.897   6.041 -0.1446 -0.1405  0.2977
41512W        W50112  10.619   3.195   6.719 -0.1097 -0.0483 -0.1453
41513W        W50113   5.741   2.053  10.166 -0.0154  0.3156  0.4178
41514W        W50114   3.117   6.798   6.092  0.3583 -0.1616  0.0972
41515W        W50115   7.334   3.077  25.002  0.0125  0.0019 -0.2782
41516W        W50116  14.572   0.959  25.072 -0.1968 -0.1875 -0.0009
41517W        W50117   8.470   1.175  10.002 -0.0674 -0.2676  0.2635
41518W        W50118  23.668   6.542  22.525 -0.2057  0.1861 -0.1125
41519W        W50119   1.873   5.048   9.149 -0.1121 -0.1040  0.1457
41520W        W50120  19.347   4.978   0.160 -0.0107 -0.1758  0.0574
41521W        W50121  16.602   5.110  15.059  0.1042 -0.0148  0.0529
41522W        W50122   6.655   0.628  11.510 -0.2861 -0.0075 -0.1961
41523W        W50123   1.543   5.731   7.437 -0.1494  0.1230 -0.1164
41524W        W50124  10.140   3.497  25.005  0.1399 -0.0955  0.2644
41525W        W50125  11.247   6.333  21.119 -0.0489 -0.2142 -0.3987
41526W        W50126   9.580   2.956   7.702  0.2233  0.1319 -0.1950
41527W        W50127   4.140   6.084   7.525 -0.1550  0.1302  0.0008
41528W        W50128  10.452   3.359   5.039  0.2055 -0.2224 -0.0251
41529W        W50129   5.221   4.543  16.926 -0.2829  0.0353 -0.0868
41530W        W50130  23.806   1.208  32.478 -0.0897 -0.3223 -0.0505
41531W        W50131   7.070   3.829   9.368 -0.0182 -0.1831  0.0033
41532W        W50132   5.764   0.858  11.947 -0.0460  0.1829 -0.1957
41533W        W50133   2.034   5.454   7.337 -0.0062 -0.3211 -0.4076
41534W        W50134  15.082   1.383  23.540 -0.1187 -0.1226  0.0192
41535W        W50135  22.723   2.947  22.853  0.0099 -0.2070 -0.0230
41536W        W50136  16.152   4.597  18.573  0.3055 -0.0429 -0.1668
41537W        W50137   2.513   3.686   7.951  0.2803 -0.1495 -0.0573
41538W        W50138   3.290   0.240  31.655  0.1963  0.0488 -0.0184
41539W        W50139  11.882   2.680   2.283  0.0808  0.1078 -0.0935
41540W        W50140   7.466   2.322  29.315 -0.0039  0.0550  0.0001
41541W        W50141   9.825   6.410   6.824  0.0504  0.0317  0.2025
41542W        W50142  22.205   1.469  27.885 -0.2977 -0.0800 -0.2875
41543W        W50143   8.223   2.449  12.608 -0.1767 -0.1057  0.1066
41544W        W50144  14.006   5.197  17.527  0.1531  0.1420  0.0356
41545W        W50145   2.932   6.426  24.114 -0.0691 -0.0069  0.1017
41546W        W50146  20.871   7.401  23.531 -0.0058 -0.2050 -0.0010
41547W        W50147   5.662   7.388   7.989  0.0709 -0.0622 -0.2330
41548W        W50148   2.708   2.356   4.961  0.3443 -0.1358 -0.4279
41549W        W50149   8.292   4.368  26.324 -0.1794  0.0254  0.0614
41550W        W50150  23.958   6.431  13.709 -0.0276 -0.2054  0.2158
41551W        W50151  22.648   1.643  22.877  0.3083  0.4179 -0.0838
41552W        W50152   9.115   5.064  24.991  0.1152 -0.0109 -0.2801
41553W        W50153   9.587   4.459   5.725 -0.2780 -0.1322  0.0301
41554W        W50154   5.487   6.260   3.725 -0.1867 -0.0230  0.0857
41555W        W50155  10.315   1.798  27.096  0.1109 -0.1808  0.0766
41556W        W50156  20.584   2.036  32.380 -0.0116 -0.2706  0.0984
41557W        W50157   8.008   3.409  30.617  0.0834 -0.1948 -0.1773
41558W        W50158  23.691   5.064  29.591  0.1151  0.0242 -0.1833
41559W        W50159  14.024   0.168  28.601 -0.1806  0.2772 -0.2567
41560W        W50160  18.395   5.249  15.351  0.0161  0.2496  0.0750
41561W        W50161  20.063   0.664  28.699  0.2148 -0.1614 -0.2149
41562W        W50162  15.712   1.559  27.526 -0.0327 -0.2664  0.1485
41563W        W50163  10.502   1.626   9.706  0.2016 -0.1769 -0.0100
41564W        W50164  14.645   5.998   5.816 -0.0963 -0.1339  0.0168
41565W        W50165  23.524   7.175  31.667  0.0971 -0.1242  0.2171
41566W        W50166  23.619   4.604  11.059  0.1958  0.0239  0.2233
41567W        W50167  22.135   6.276  22.505 -0.0437 -0.0420  0.0593
41568W        W50168  23.475   5.799  10.940  0.0466 -0.1047 -0.1917
41569W        W50169  12.839   3.306  32.925 -0.1941 -0.1350 -0.2152
41570W        W50170  24.317   4.222   5.157 -0.1455 -0.0296 -0.4105
41571W        W50171  10.387   5.217   4.708 -0.3961  0.1151  0.0420
41572W        W50172  13.465   4.698   2.994  0.0598 -0.1008  0.0989
41573W        W50173   6.567   4.714  12.228 -0.1499  0.4376 -0.0953
41574W        W50174   9.971   1.115  11.799 -0.2614 -0.2144  0.3382
41575W        W50175   9.452   0.171  11.503 -0.1759 -0.1061 -0.1574
41576W        W50176  24.362   1.050  23.627  0.1375  0.0880 -0.1045
41577W        W50177  23.125   5.446  30.406  0.2135 -0.1751 -0.0082
41578W        W50178   8.949   3.332  14.003 -0.1487 -0.2134  0.1548
41579W        W50179  24.619   7.303  10.673 -0.0219 -0.1855  0.0695
41580W        W50180  19.262   6.437  32.633  0.2628  0.0244  0.1590
41581W        W50181  20.519   5.525  24.900  0.2191 -0.1114  0.1301
41582W        W50182  20.263   7.044   0.622 -0.0648  0.1085  0.3199
41583W        W50183  14.415   1.814   5.646  0.0440 -0.0751 -0.1648
41584W        W50184  15.950   6.253  31.576  0.1241 -0.0836 -0.2575
41585W        W50185  16.269   2.151   2.803  0.1493  0.0257 -0.0646
41586W        W50186   7.133   5.533  32.587 -0.0142  0.2039 -0.0676
41587W        W50187  23.409   5.277   0.969 -0.2019 -0.3374  0.1617
41588W        W50188   7.562   3.197  28.422 -0.2037  0.1750 -0.2453
41589W        W50189  18.754   5.094  32.936  0.1464  0.3086  0.0780
41590W        W50190  21.081   5.325   4.660  0.1436 -0.0422  0.0569
41591W        W50191  22.463   4.152   3.986  0.1193 -0.1105 -0.0820
41592W        W50192  23.757   6.523   0.069  0.1429 -0.2235 -0.0066
41593W        W50193   6.339   3.590  23.981  0.4404 -0.1673  0.0247
41594W        W50194  16.954   1.613  20.322  0.2586 -0.1032 -0.1624
41595W        W50195  13.506   7.410   6.857 -0.1604 -0.1204 -0.2010
41596W        W50196  15.897   0.682  14.885  0.1913 -0.0179  0.1034
41597W        W50197   6.172   0.484  11.924  0.0297  0.2862  0.4145
41598W        W50198  18.632   6.274  24.674 -0.0659  0.0498 -0.0902
41599W        W50199   0.224   1.550  15.549  0.1663  0.0913  0.3893
41600W        W50200   2.727   1.111  28.403  0.0172 -0.2560  0.0846
41601W        W50201   2.911   5.688  16.816  0.1206 -0.0205  0.1453
41602W        W50202   3.344   2.638  26.390 -0.1812 -0.1657  0.0485
41603W        W50203   5.191   7.410  16.739 -0.1330 -0.0009  0.1273
41604W        W50204  18.302   6.951  17.283 -0.0141 -0.0659 -0.1807
41605W        W50205  24.253   7.083  26.852 -0.1974 -0.1323  0.3366
41606W        W50206   3.326   4.546  29.609 -0.0162 -0.3674  0.1256
41607W        W50207   6.633   3.291  27.759  0.2956  0.0255  0.0310
41608W        W50208   9.946   6.309   9.405  0.1982 -0.0333 -0.0205
41609W        W50209  16.589   1.989   3.130  0.1401 -0.2205 -0.1330
41610W        W50210  20.641   1.525  20.502  0.0099 -0.2164 -0.2195
41611W        W50211   5.671   0.721  29.338 -0.2765  0.0247  0.1080
41612W        W50212   0.222   4.520  15.034 -0.2380  0.0813 -0.1472
41613W        W50213   6.367   0.224   1.498 -0.2435  0.2360  0.0695
41614W        W50214   9.039   2.481   5.611 -0.0268 -0.0732  0.0313
41615W        W50215  11.286   0.343   1.001  0.0483 -0.1019  0.0656
41616W        W50216   1.128   5.635  25.532 -0.0166  0.3048 -0.2308
41617W        W50217   3.363   0.419  15.188 -0.3192  0.2058  0.2462
41618W        W50218  24.020   7.367  22.451 -0.1685  0.1344 -0.4445
41619W        W50219  19.349   0.908  22.655  0.2230 -0.0043 -0.0086
41620W        W50220  13.417   7.296  32.179 -0.0767  0.2605  0.2332
41621W        W50221   7.524   6.175   9.350  0.1248 -0.0355 -0.0412
41622W        W50222   0.009   1.983  28.262  0.2123 -0.1974  0.0355
41623W        W50223  23.844   5.442  25.947 -0.0247 -0.1932 -0.4734
41624W        W50224   7.143   0.092  23.016 -0.0340  0.0458  0.0186
41625W        W50225   5.349   7.327   6.404  0.2778 -0.3493 -0.1680
41626W        W50226   5.407   4.924  30.882 -0.1697  0.4186  0.0163
41627W        W50227  15.411   1.002  23.725 -0.1908  0.0222 -0.2112
41628W        W50228   3.394   3.791  25.609 -0.1133  0.1188 -0.0394
41629W        W50229  14.226   3.546  20.071  0.0120 -0.0797 -0.0044
41630W        W50230   1.303   6.229   6.608  0.1631 -0.3682 -0.0392
41631W        W50231  12.176   3.728  31.987 -0.1813  0.2121  0.1666
41632W        W50232   0.691   0.983  11.387 -0.0063 -0.0665 -0.0274
41633W        W50233   8.306   7.565   2.588 -0.3471  0.0551 -0.0939
41634W        W50234   4.313   0.904   9.620  0.1556  0.0198 -0.1447
41635W        W50235   6.779   2.004  15.781  0.1764 -0.0429  0.2553
41636W        W50236  13.789   3.427  18.395 -0.1073 -0.0375  0.1779
41637W        W50237  20.638   1.251   3.833  0.1896 -0.1296 -0.0818
41638W        W50238  12.774   2.693  24.351  0.2649  0.1500  0.1757
41639W        W50239   0.736   1.379   1.120 -0.0451 -0.0642  0.1582
41640W        W50240  23.419   0.313   1.570 -0.0686 -0.0546 -0.2208
41641W        W50241  19.899   4.195   3.853 -0.2528 -0.1615 -0.0982
41642W        W50242  21.646   6.861  19.341 -0.1357 -0.0104 -0.0100
41643W        W50243  11.092   0.133  27.882  0.0934  0.0111 -0.2926
41644W        W50244  16.447   6.707   9.481 -0.1706  0.1546 -0.0004
41645W        W50245  23.358   3.067  30.537  0.1116  0.2402 -0.2408
41646W        W50246   3.743   3.242  12.299  0.1209 -0.1847  0.1037
41647W        W50247  12.860   2.879   8.688 -0.5088  0.1098 -0.2789
41648W        W50248  22.114   5.016   2.933 -0.1778 -0.4997  0.0621
41649W        W50249   5.370   6.861   1.250  0.2264 -0.2979 -0.0900
41650W        W50250   1.237   0.409   6.573  0.0470  0.1323  0.2509
41651W        W50251  13.604   2.580  10.906 -0.2741  0.2156 -0.2510
41652W        W50252  19.578   2.186   3.180  0.0315  0.0040 -0.1787
41653W        W50253   6.811   7.350   9.097  0.0201  0.1504 -0.0771
41654W        W50254  19.300   2.157  10.492 -0.2755 -0.0336  0.0401
41655W        W50255   1.207   4.616   5.546  0.0194 -0.0825  0.0255
41656W        W50256   9.093   7.381  30.656  0.1097  0.1077  0.2710
41657W        W50257  23.753   7.677  11.714  0.1100 -0.1970 -0.0807
41658W        W50258   2.410   4.989  22.856  0.3928  0.4585  0.1160
41659W        W50259   8.605   7.714   4.801 -0.1350  0.1355  0.1151
41660W        W50260   4.280   3.385   5.307 -0.0179 -0.2863 -0.3214
41661W        W50261   1.673   5.312  12.506  0.0212 -0.1326  0.3534
41662W        W50262   3.595   6.617  15.381  0.2978  0.1120  0.0793
41663W        W50263  20.724   2.453  18.981 -0.1130 -0.0500 -0.0988
41664W        W50264   2.593   2.012  15.577 -0.2294  0.0602  0.0247
41665W        W50265   3.410   6.583   7.596  0.0922  0.2947 -0.0181
41666W        W50266  23.796   0.166  11.298 -0.0291 -0.1893 -0.0281
41667W        W50267   7.408   4.271  25.770  0.3852 -0.4157  0.0140
41668W        W50268   2.417   1.826  22.760 -0.2752  0.1807 -0.1481
41669W        W50269   0.297   0.832  11.036  0.1387  0.1667  0.0258
41670W        W50270  10.104   2.661  29.305 -0.0201  0.0124  0.1950
41671W        W50271  10.091   6.082   9.894 -0.0043 -0.1284 -0.0061
41672W        W50272  23.224   3.139   1.210  0.0058 -0.3099  0.0970
41673W        W50273  19.419   3.685   4.820 -0.3345  0.2379 -0.1633
41674W        W50274  18.143   0.573  22.451 -0.1308 -0.2677 -0.0738
41675W        W50275  14.831   2.527   7.443  0.0870  0.1733  0.0759
41676W        W50276  17.063   0.782   2.106 -0.0602 -0.3289  0.2080
41677W        W50277   3.518   4.668  12.275  0.1227 -0.2989  0.3136
41678W        W50278   0.698   6.858  28.891 -0.1119  0.1695  0.1343
41679W        W50279   3.372   4.021  27.259 -0.0873 -0.2645 -0.1520
41680W        W50280  21.720   3.641  23.369  0.1473 -0.2189  0.0042
41681W        W50281  16.150   2.111  20.019 -0.3637  0.4598  0.2518
41682W        W50282  17.376   0.148  28.755  0.0100  0.1808  0.0608
41683W        W50283   3.878   1.658   0.526 -0.4208  0.4311  0.1670
41684W        W50284   0.360   5.994   7.701 -0.0958  0.0369 -0.0304
41685W        W50285   6.126   6.528   3.463 -0.1054 -0.0692  0.1297
41686W        W50286  17.350   1.874  20.527 -0.0140 -0.3032 -0.0269
41687W        W50287  16.600   3.267  23.816 -0.1348 -0.1281  0.2332
41688W        W50288  24.710   2.401  27.050 -0.1358  0.2202  0.0330
41689W        W50289  17.904   0.426  22.956 -0.0878  0.2452  0.3083
41690W        W50290   3.865   2.146  26.835 -0.0583 -0.3240 -0.3354
41691W        W50291   6.486   1.729  11.409 -0.0024  0.3379  0.1433
41692W        W50292  15.145   3.696   2.085 -0.2301  0.0472 -0.1293
41693W        W50293  11.480   0.171  12.121 -0.4081  0.0756 -0.0094
41694W        W50294  15.273   5.289   0.872  0.0481  0.1402 -0.2410
41695W        W50295   7.261   6.264  23.033  0.1334  0.2422 -0.0037
41696W        W50296  19.615   1.683  22.179  0.1887  0.0767 -0.2016
41697W        W50297  12.763   2.283   3.234  0.1225  0.2427  0.0715
41698W        W50298  10.913   5.292  24.999  0.1802 -0.0426 -0.0786
41699W        W50299   0.722   3.217  11.037  0.0855  0.1087  0.0810
41700W        W50300  23.390   5.331  29.924 -0.1177 -0.2168  0.1672
41701W        W50301  10.815   3.921  29.075 -0.0101 -0.0998  0.2491
41702W        W50302  20.421   5.222  23.156 -0.0603 -0.0418 -0.0501
41703W        W50303   9.851   7.277   5.692  0.0057 -0.1791  0.2396
41704W        W50304  16.941   2.456   6.280  0.2387  0.2652 -0.0924
41705W        W50305  12.121   5.177   0.054  0.1792  0.0118  0.0667
41706W        W50306  12.182   7.052  10.763 -0.0259  0.2319 -0.1812
41707W        W50307  24.779   5.197   2.383  0.0527 -0.2452  0.1686
41708W        W50308  14.266   3.275  16.290  0.1326 -0.2344  0.1271
41709W        W50309   5.283   2.859  27.332 -0.0122 -0.0460 -0.3377
41710W        W50310   2.396   3.037  10.044  0.1517  0.1565  0.0085
41711W        W50311  23.534   4.329  24.964 -0.1168 -0.1134  0.4322
41712W        W50312   3.902   6.265  22.202 -0.2536  0.1362 -0.2995
41713W        W50313  15.483   4.107   6.201 -0.0890  0.0519  0.3027
41714W        W50314   4.556   1.375  13.518 -0.2289  0.0018  0.0793
41715W        W50315   2.171   6.972  30.882 -0.0268  0.2471  0.0685
41716W        W50316   9.816   7.549   4.490 -0.2850  0.0686 -0.0236
41717W        W50317   1.908   3.807  29.173 -0.0122 -0.0255 -0.0034
41718W        W50318   9.456   7.502  12.451 -0.0529 -0.3103  0.0885
41719W        W50319  18.628   2.139  26.464 -0.0776 -0.0664 -0.0615
41720W        W50320  23.106   0.676  13.419  0.0260 -0.2279  0.1583
41721W        W50321  13.666   5.770   3.393  0.1189  0.0488 -0.0376
41722W        W50322   5.255   4.034  24.826  0.2337  0.1661  0.0585
41723W        W50323  10.884   6.397   4.701 -0.1084 -0.1549 -0.0717
41724W        W50324   6.625   0.153   6.053  0.0100  0.2678  0.0956
41725W        W50325  22.527   3.390  30.808  0.0421 -0.2325  0.0405
41726W        W50326  19.985   3.804  24.106 -0.1200 -0.2248 -0.0743
41727W        W50327   4.815   6.978   6.865 -0.1677 -0.1541  0.0426
41728W        W50328  16.348   6.634  27.049  0.0509  0.0013  0.1636
41729W        W50329  20.880   6.068  28.994  0.4763  0.1944  0.2352
41730W        W50330  19.269   6.073  25.814 -0.2016  0.0823 -0.1695
41731W        W50331  16.591   0.290  28.046 -0.0752 -0.3047 -0.0988
41732W        W50332  23.568   5.369  12.654  0.0726  0.2211  0.0705
41733W        W50333  13.861   0.619  20.269  0.0730 -0.0876  0.0861
41734W        W50334  10.430   3.348   2.782 -0.2043 -0.1761  0.2050
41735W        W50335   3.000   4.044   3.192 -0.1087  0.0842 -0.0869
41736W        W50336  15.823   1.722  22.976  0.2989  0.1373  0.1290
41737W        W50337  22.065   0.801   5.038 -0.2559  0.0373  0.1247
41738W        W50338   8.337   3.848   9.628 -0.0691 -0.3480 -0.2795
41739W        W50339   8.716   4.912  24.001  0.0255 -0.1373  0.0016
41740W        W50340  12.325   6.073  31.099  0.2793  0.1535 -0.0372
41741W        W50341  14.165   2.484  22.024  0.1326 -0.0476 -0.1310
41742W        W50342  18.577   4.136  27.921 -0.2524 -0.0224 -0.1912
41743W        W50343   7.502   5.419  11.313 -0.2374 -0.0499 -0.0014
41744W        W50344   2.523   2.039  13.807 -0.1253 -0.3123 -0.3536
41745W        W50345   4.708   3.370   6.864 -0.1866 -0.1905  0.1415
41746W        W50346  14.060   6.881  27.403 -0.2800 -0.1569  0.1755
41747W        W50347  10.474   3.437   6.256 -0.0035 -0.0109  0.0179
41748W        W50348   6.430   4.705  25.964 -0.0523 -0.0125 -0.1373
41749W        W50349  16.701   4.924  25.900  0.1171  0.0700  0.2101
41750W        W50350   7.922   6.152   2.588  0.4668  0.1774  0.0288
41751W        W50351  24.286   6.329  25.686 -0.2260  0.3215 -0.0428
41752W        W50352  21.166   6.354  20.351 -0.4391 -0.0679  0.1357
41753W        W50353   4.803   0.799  27.298  0.0026  0.3986  0.5141
41754W        W50354   8.376   2.083  28.959 -0.2694 -0.0622 -0.0413
41755W        W50355  20.249   3.044   8.697  0.2701 -0.2230  0.2351
41756W        W50356  17.823   7.693   3.476 -0.0079  0.0695 -0.0426
41757W        W50357  15.226   5.331  17.597  0.1577 -0.1986 -0.2649
41758W        W50358   3.491   4.756  26.219  0.3802 -0.2475  0.0170
41759W        W50359   5.667   2.347   4.133 -0.1996 -0.0894 -0.2533
41760W        W50360  15.372   7.277   7.413 -0.0848 -0.1028  0.1416
41761W        W50361   1.440   1.557  31.138  0.1420 -0.1876 -0.1373
41762W        W50362   1.845   7.777  16.310  0.0284 -0.0106 -0.0237
41763W        W50363  19.086   6.664   5.613 -0.0336  0.2554  0.1822
41764W        W50364   7.878   7.721   1.350  0.1514 -0.3083  0.1433
41765W        W50365   2.288   5.550  17.025 -0.1195 -0.4837 -0.2609
41766W        W50366   8.607   5.979  30.221  0.1616  0.0426 -0.0330
41767W        W50367   4.529   5.803   2.544 -0.2008 -0.1527  0.2749
41768W        W50368  17.207   6.967  31.338 -0.3452  0.0146 -0.1272
41769W        W50369  19.400   2.797   2.576  0.0466  0.1438 -0.0453
41770W        W50370  17.707   6.005  29.232  0.0805 -0.1415 -0.0410
41771W        W50371  21.327   0.093  11.399 -0.0065 -0.3113  0.2195
41772W        W50372  13.925   5.492  24.513 -0.1687  0.0034  0.2295
41773W        W50373  13.806   5.639  20.936 -0.2583 -0.0490 -0.0116
41774W        W50374  22.499   7.446  25.846  0.0829 -0.0003  0.2912
41775W        W50375   7.443   1.253  31.960  0.0077  0.1155  0.1111
41776W        W50376  15.670   2.028  27.805 -0.0108 -0.0901 -0.0372
41777W        W50377   0.586   6.682  29.833  0.1555 -0.0908  0.0299
41778W        W50378  19.382   6.278   5.780 -0.0740 -0.1424  0.1352
41779W        W50379  19.739   6.703  23.905 -0.0877 -0.0564  0.1748
41780W        W50380   2.659   0.463  32.992 -0.0805 -0.0044  0.0405
41781W        W50381  23.252   3.535  27.027 -0.0127  0.2621 -0.0043
41782W        W50382   1.017   5.445  31.296  0.0812 -0.1563 -0.0631
41783W        W50383   3.867   2.027   8.562 -0.0716 -0.3156  0.0053
41784W        W50384   6.587   2.673  28.637  0.3760 -0.0236  0.0676
41785W        W50385  15.156   4.419   2.647 -0.3667  0.0986 -0.2398
41786W        W50386  16.146   7.082   0.087 -0.0426 -0.1858  0.1900
41787W        W50387  22.070   4.647   4.148 -0.1203 -0.0474  0.3355
41788W        W50388   7.585   3.173  24.202 -0.1449  0.0298  0.0533
41789W        W50389  13.011   7.252   9.466  0.1178  0.2625 -0.4836
41790W        W50390   6.055   4.435   7.948  0.2389  0.1752  0.0375
41791W        W50391  19.550   4.382  28.889  0.0434 -0.1898 -0.0778
41792W        W50392  18.110   4.301  23.143  0.3514 -0.1157  0.0103
41793W        W50393  20.450   7.446   0.356  0.0591 -0.0298  0.2599
41794W        W50394  12.629   2.534  24.894  0.1157 -0.0701 -0.1577
41795W        W50395  10.211   3.266   3.675  0.0627 -0.2339  0.0045
41796W        W50396  10.289   3.084  11.078  0.0610 -0.2336 -0.0638
41797W        W50397  12.878   1.951   8.791  0.2873 -0.2614 -0.0609
41798W        W50398   4.239   6.347   1.638  0.1360  0.0831 -0.2142
41799W        W50399  10.004   0.913  22.411 -0.1174 -0.0088  0.1205
41800W        W50400  14.715   3.901   4.167 -0.1138 -0.1637  0.0500
41801W        W50401  12.422   6.224  22.175 -0.0121  0.0180 -0.0600
41802W        W50402  21.838   2.125  23.699  0.1180  0.3932 -0.2779
41803W        W50403  22.657   1.430  30.580  0.1289  0.0084  0.0625
41804W        W50404  19.063   1.377   0.209 -0.1724  0.1990  0.2884
41805W        W50405   1.989   2.056   9.240 -0.2359  0.1527  0.1377
41806W        W50406   7.610   0.477  11.791 -0.0128  0.0689  0.2554
41807W        W50407   8.611   0.091  31.730  0.5343 -0.0602  0.1914
41808W        W50408   7.496   2.343  32.680  0.2625  0.3838 -0.1164
41809W        W50409  21.141   1.703  10.126 -0.2632 -0.0704 -0.3718
41810W        W50410  16.914   7.188  30.420 -0.2066  0.2729  0.0245
41811W        W50411  15.945   4.588  17.705 -0.2077  0.0942 -0.1363
41812W        W50412  13.781   7.361  20.538  0.0837 -0.0549 -0.3222
41813W        W50413  10.257   2.295  10.788 -0.1971  0.2132  0.3745
41814W        W50414  21.414   0.806   2.155 -0.1114  0.2066 -0.0422
41815W        W50415  11.636   6.616  26.336  0.0314  0.0425  0.0699
41816W        W50416  24.649   7.299   2.826  0.2423  0.1409  0.0008
41817W        W50417  13.483   7.149  18.936 -0.0206 -0.0382 -0.1101
41818W        W50418  12.737   4.683  31.276  0.4466 -0.0032 -0.0397
41819W        W50419  23.917   5.314  21.525 -0.2419  0.3778 -0.3393
41820W        W50420  11.527   2.333  10.892  0.4382 -0.5421  0.1203
41821W        W50421   9.064   3.968  32.983  0.0731  0.1593 -0.0046
41822W        W50422  24.742   3.997  24.704 -0.1004 -0.0765  0.0093
41823W        W50423   6.223   3.566  15.394  0.2315 -0.2273 -0.1429
41824W        W50424  10.186   5.539   7.633  0.0977 -0.1134  0.0102
41825W        W50425  15.235   6.714   1.024 -0.2871  0.0542  0.0004
41826W        W50426   0.901   7.218  13.634 -0.1347  0.0145  0.1269
41827W        W50427  24.657   3.995  29.385 -0.1834 -0.2562  0.0537
41828W        W50428  18.640   1.406   3.445 -0.0057  0.0459 -0.0378
41829W        W50429  22.969   1.780   9.521  0.0488 -0.2742 -0.3093
41830W        W50430  11.179   5.708  24.352 -0.1480 -0.0337 -0.0908
41831W        W50431  24.962   4.353  13.871  0.0049  0.1416 -0.1218
41832W        W50432  17.104   2.717  30.174 -0.0869  0.1919 -0.3277
41833W        W50433  15.539   1.187   6.158  0.1954  0.0197 -0.2270
41834W        W50434  13.985   4.723  20.611  0.3004  0.1724  0.1594
41835W        W50435  16.399   2.762  24.795 -0.2557  0.5618 -0.0394
41836W        W50436   3.424   2.153  30.074  0.1342  0.2175 -0.1453
41837W        W50437  19.319   5.157  21.622  0.1194  0.2362  0.0860
41838W        W50438  19.815   7.697   9.322  0.0766 -0.0640  0.3392
41839W        W50439  15.149   1.390  29.857 -0.0438  0.1443 -0.0455
41840W        W50440  12.074   1.758   9.130 -0.1097  0.1122  0.1953
41841W        W50441   3.919   0.597   1.701 -0.2433 -0.0132 -0.0312
41842W        W50442  11.026   2.703  31.058  0.1896 -0.3508  0.2586
41843W        W50443   4.617   2.840  26.218  0.0275  0.2411  0.2004
41844W        W50444  17.140   6.756  20.495 -0.1715 -0.0339 -0.3263
41845W        W50445   6.110   5.966  30.103 -0.1060  0.1020  0.0942
41846W        W50446   1.742   5.514   4.703  0.1877  0.0131  0.1459
41847W        W50447  23.757   1.135   3.022  0.1038 -0.3689  0.0512
41848W        W50448  15.316   0.901  31.645 -0.2062 -0.3684 -0.0610
41849W        W50449  11.145   7.519  21.621  0.1931 -0.0571 -0.3203
41850W        W50450  17.536   1.483   0.279 -0.0629  0.1370 -0.1955
41851W        W50451  20.530   2.327  11.086 -0.0424 -0.4044 -0.0458
41852W        W50452   1.982   4.017  28.684  0.0851  0.1414 -0.0515
41853W        W50453  20.347   7.772  27.891  0.3232  0.1687  0.1320
41854W        W50454   3.280   0.251   3.352 -0.0971  0.0267 -0.3365
41855W        W50455   3.881   6.191  30.317  0.0240 -0.0173 -0.2350
41856W        W50456   4.683   2.559  29.820 -0.2724 -0.2407 -0.1897
41857W        W50457   6.468   1.003  10.758 -0.0918 -0.0905  0.1471
41858W        W50458   1.496   5.087  17.028 -0.1548 -0.3184 -0.1910
41859W        W50459   1.266   2.052   6.519  0.1033 -0.0482 -0.1741
41860W        W50460  17.278   6.292  30.806 -0.1419 -0.1431  0.0479
41861W        W50461  19.383   2.742  26.010  0.1159 -0.0513  0.0764
41862W        W50462  22.453   4.144  20.501  0.0794 -0.2368  0.3782
41863W        W50463   0.189   5.551  28.409 -0.3700 -0.0482 -0.2912
41864W        W50464  12.005   4.593   6.824  0.0941  0.0803 -0.0470
41865W        W50465  21.491   3.752   9.946 -0.1958 -0.0345 -0.1672
41866W        W50466  23.027   4.577  28.643 -0.1457  0.0709 -0.0868
41867W        W50467   5.739   3.384   1.331 -0.0108 -0.0975  0.1660
41868W        W50468  14.429   7.602  15.659  0.1464  0.1412  0.2694
41869W        W50469  11.204   3.526   5.654  0.0165  0.2340  0.3022
41870W        W50470   0.335   2.255   5.561 -0.0959 -0.1162  0.2425
41871W        W50471  21.686   1.020   8.262 -0.0256  0.1495 -0.0522
41872W        W50472  16.710   6.999   4.323  0.4732  0.1464  0.2547
41873W        W50473  24.332   1.846  21.384 -0.3277 -0.1097  0.1967
41874W        W50474  19.798   1.288   7.248 -0.2151  0.0337  0.2120
41875W        W50475  18.182   7.388  16.003 -0.2531  0.2084 -0.0327
41876W        W50476   7.944   0.503  23.450 -0.0966 -0.0394  0.0632
41877W        W50477   1.802   4.307  30.433 -0.1046  0.0213  0.0399
41878W        W50478  10.504   3.190  21.388 -0.1542 -0.2874 -0.1599
41879W        W50479  17.394   1.117   5.406 -0.0071 -0.0349 -0.0055
41880W        W50480   5.561   1.189  27.662  0.0115  0.1648 -0.0690
41881W        W50481   8.834   1.084   3.267  0.3765  0.1131  0.0732
41882W        W50482   6.721   4.894  13.481  0.0353  0.1432  0.0776
41883W        W50483   1.808   1.494   3.360 -0.0120  0.1079  0.2206
41884W        W50484  22.911   4.427  20.547  0.0733  0.1117  0.3672
41885W        W50485  17.373   0.112  16.262  0.0136 -0.1408 -0.1077
41886W        W50486  21.774   3.205   2.893  0.2601 -0.0741  0.1848
41887W        W50487   4.707   1.905  23.869  0.1216 -0.1236 -0.1390
41888W        W50488   2.844   6.403   7.317  0.2510  0.0183 -0.0650
41889W        W50489  12.964   2.831  17.735 -0.0400 -0.2122  0.0447
41890W        W50490   0.856   1.691   1.839  0.2000  0.3718 -0.1615
41891W        W50491  23.265   1.428  31.381 -0.3653  0.0080  0.1430
41892W        W50492  15.358   7.794  31.945  0.1824  0.0882 -0.0364
41893W        W50493  18.113   0.667   5.616 -0.0614 -0.0968 -0.2531
41894W        W50494  21.576   0.830   6.372 -0.0271 -0.0928  0.2926
41895W        W50495   3.713   0.854   5.204 -0.0891 -0.0446 -0.0245
41896W        W50496   5.241   2.513  23.146 -0.1722  0.0588  0.0329
41897W        W50497   3.394   5.776  13.578 -0.2372  0.0433  0.0680
41898W        W50498  10.898   6.750  22.983 -0.0266  0.1267 -0.2191
41899W        W50499   2.050   0.615   1.073  0.0652 -0.2210  0.0009
41900W        W50500  16.349   1.386   8.305 -0.0686  0.0983  0.0390
41901W        W50501  23.323   0.927   6.239 -0.1452 -0.1245 -0.1259
41902W        W50502  17.428   1.678  15.871 -0.2563  0.1203 -0.2420
41903W        W50503  19.159   5.071   8.660 -0.1315 -0.0709  0.4210
41904W        W50504   4.089   7.421  24.640  0.2001 -0.0592  0.1213
41905W        W50505  20.871   6.039   7.452 -0.0439  0.2295  0.0823
41906W        W50506  17.260   2.657  27.219 -0.1469 -0.1887  0.2079
41907W        W50507   0.721   1.036   8.569  0.1103 -0.1469 -0.0655
41908W        W50508  21.086   3.682   3.559  0.2010 -0.0056  0.2232
41909W        W50509  18.029   7.602  17.661  0.1699 -0.1861  0.1173
41910W        W50510  23.602   4.503   1.277  0.1745  0.0902 -0.1889
41911W        W50511   7.913   1.621   2.280 -0.3245 -0.2120  0.0022
41912W        W50512  10.709   5.777   5.569 -0.1385  0.0390  0.1674
41913W        W50513  21.246   0.536   8.795  0.0578  0.1300  0.0018
41914W        W50514   8.021   4.668  27.280  0.4442  0.1037 -0.0217
41915W        W50515  18.748   1.638  24.867 -0.1482  0.1999 -0.1333
41916W        W50516   0.054   1.481  20.938  0.1453 -0.1100  0.1660
41917W        W50517   7.468   5.171  32.676  0.1442  0.1159 -0.0838
41918W        W50518  11.273   3.316   9.680  0.0310 -0.1095  0.2100
41919W        W50519  22.268   4.754  23.207  0.0345  0.0329 -0.2359
41920W        W50520  10.992   1.079  32.930 -0.1964 -0.2655 -0.0897
41921W        W50521  10.226   3.929   6.391 -0.0403  0.0629  0.1296
41922W        W50522   5.723   0.719  30.449  0.0116 -0.0236 -0.2129
41923W        W50523  15.394   2.507  23.193  0.1271 -0.0703  0.0016
41924W        W50524  14.783   3.251  30.797 -0.4309 -0.3039  0.1992
41925W        W50525   1.740   6.617  30.802 -0.0180  0.2790 -0.0104
41926W        W50526  16.055   3.940  26.604 -0.1043  0.0378 -0.1864
41927W        W50527   9.110   2.871  10.963  0.3562  0.1431  0.1381
41928W        W50528   3.296   6.910  28.081  0.0375 -0.0508 -0.0800
41929W        W50529  14.819   1.761  31.139  0.0979 -0.3313  0.0547
41930W        W50530  21.529   0.722   7.780 -0.0231  0.3559  0.0250
41931W        W50531  19.752   3.842   7.072 -0.2305  0.0914  0.0935
41932W        W50532   0.065   7.082  13.263 -0.0861 -0.0535 -0.1817
41933W        W50533   6.322   3.408  28.594 -0.0497  0.0874 -0.1052
41934W        W50534  10.345   2.052   8.952 -0.0348  0.0045  0.0915
41935W        W50535  23.058   6.686  14.297  0.3228  0.1726  0.2609
41936W        W50536  15.527   3.949   2.036 -0.1283 -0.1727  0.0056
41937W        W50537  21.972   5.732   6.520 -0.1332 -0.0850  0.1316
41938W        W50538  23.153   3.725  32.369 -0.1612 -0.0201  0.3878
41939W        W50539  24.268   5.697   6.635 -0.2189 -0.5146 -0.2392
41940W        W50540  20.809   4.642  10.161 -0.0552  0.0005 -0.2028
41941W        W50541   5.271   0.834   5.660 -0.0059  0.0022 -0.1266
41942W        W50542  14.369   5.012   1.782  0.2798  0.0331 -0.2811
41943W        W50543   5.862   6.733   7.167  0.4860  0.3475 -0.1403
41944W        W50544  19.445   5.306  23.379 -0.0199 -0.0126 -0.0611
41945W        W50545  22.152   5.709  20.692  0.1907  0.0396  0.2771
41946W        W50546   8.947   6.970  31.971  0.2549  0.0901 -0.0862
41947W        W50547   2.163   4.220  27.315 -0.0103  0.1242 -0.1672
41948W        W50548  16.416   4.969  32.146 -0.2124  0.1372 -0.1666
41949W        W50549  16.828   4.476   2.939 -0.0559  0.0347  0.4001
41950W        W50550  12.481   7.410   2.928 -0.1062  0.0428  0.2523
41951W        W50551   7.476   4.613  13.083  0.2344 -0.0913  0.2282
41952W        W50552   5.148   6.659   0.374 -0.0561 -0.0243 -0.1801
41953W        W50553  15.838   6.049   7.967 -0.1808  0.1939  0.4946
41954W        W50554   1.731   5.956   2.459 -0.4263  0.1218  0.0393
41955W        W50555   2.160   7.003   4.195  0.2497  0.2743  0.1562
41956W        W50556  13.062   7.667   0.474  0.3060  0.2936 -0.1558
41957W        W50557   4.120   0.568  28.603 -0.3693 -0.0112 -0.2628
41958W        W50558  17.235   2.197  15.745 -0.0535  0.3428  0.1052
41959W        W50559   5.990   2.153   3.205  0.2443  0.0371  0.0731
41960W        W50560   7.420   5.282  15.590  0.2276 -0.2864 -0.1319
41961W        W50561  23.818   6.486  31.116  0.1863  0.0871 -0.1017
41962W        W50562   0.220   2.007  26.230  0.1767 -0.0386 -0.0756
41963W        W50563   2.979   3.695  30.906 -0.2170 -0.0572  0.0065
41964W        W50564  10.663   5.075  10.122  0.1124 -0.1207 -0.3974
41965W        W50565   5.545   2.040  16.977  0.0454 -0.0390 -0.2309
41966W        W50566   6.227   3.258  15.804  0.0826 -0.0035  0.0894
41967W        W50567  23.401   1.917  11.709 -0.0221 -0.0651  0.1032
41968W        W50568  11.765   4.400  30.204  0.3617 -0.0240 -0.0384
41969W        W50569  19.498   0.052  26.364 -0.0292 -0.0347 -0.0886
41970W        W50570   6.797   4.278  10.431  0.0367 -0.2456  0.1381
41971W        W50571   5.494   0.626  32.839 -0.2335 -0.1593 -0.1352
41972W        W50572  15.402   1.461  19.518  0.1717 -0.0127  0.0352
41973W        W50573  16.377   0.804   7.099  0.1884 -0.0197  0.2414
41974W        W50574   7.348   3.575   3.267  0.1447 -0.3686 -0.1101
41975W        W50575  10.973   2.714  22.223  0.3026  0.1030 -0.2140
41976W        W50576   4.025   5.781  25.563  0.1153  0.2149 -0.1551
41977W        W50577  16.950   2.440   1.732  0.2545  0.0608  0.0007
41978W        W50578   2.851   2.274   1.785  0.1996  0.2255  0.0442
41979W        W50579  15.596   0.016   4.561  0.0128 -0.3481  0.1982
41980W        W50580  19.604   7.608  24.119 -0.0510 -0.1719  0.1415
41981W        W50581  16.171   0.541  24.229 -0.0165 -0.2418  0.4690
41982W        W50582   1.269   6.073  14.895 -0.1557  0.0883  0.0370
41983W        W50583  23.324   2.520   3.054 -0.2330 -0.0422 -0.0126
41984W        W50584  10.633   2.770  29.292  0.0689  0.1702 -0.4657
41985W        W50585  16.869   4.179   0.143  0.0913  0.1734  0.0205
41986W        W50586  19.022   3.510  22.530  0.0652  0.1585 -0.1193
41987W        W50587   3.203   0.814  31.742 -0.0709  0.0997  0.1715
41988W        W50588  21.208   2.791  22.565  0.2492  0.3470 -0.0927
41989W        W50589  11.271   1.648  26.785  0.2886  0.1732  0.2903
41990W        W50590  15.402   1.415  23.132 -0.0986  0.2681  0.1062
41991W        W50591  12.666   0.168   7.189  0.0719 -0.1694 -0.0062
41992W        W50592  10.644   5.799  26.369  0.3268  0.0415  0.4006
41993W        W50593   2.180   4.496  26.111 -0.3342  0.4634 -0.0081
41994W        W50594  11.332   4.735  27.045  0.3173  0.0311  0.1048
41995W        W50595  12.609   5.570  32.283  0.0512 -0.0855  0.1475
41996W        W50596  20.813   1.414  17.818 -0.0467 -0.2720  0.1074
41997W        W50597  15.467   3.096  31.737 -0.0718 -0.2273 -0.4582
41998W        W50598  23.003   7.545   9.817  0.0347  0.0490 -0.2612
41999W        W50599  19.728   1.059  21.430  0.0570 -0.4239 -0.0116
42000W        W50600  22.934   7.084  26.871  0.1943  0.0283  0.0680
42001W        W50601   9.418   0.436   9.088  0.0053 -0.1548 -0.3585
42002W        W50602  13.895   7.162  17.996 -0.2962 -0.1741 -0.1006
42003W        W50603  19.377   3.002  25.185  0.0439 -0.0388 -0.0463
42004W        W50604  13.047   5.077  18.427  0.1452  0.2228 -0.1643
42005W        W50605  13.107   1.014  26.436  0.1574 -0.1042 -0.0881
42006W        W50606  16.678   4.747   9.423 -0.1896 -0.1120  0.0416
42007W        W50607  10.051   1.748  25.969  0.0923 -0.0873  0.1281
42008W        W50608   9.022   5.330   1.070 -0.1236 -0.2030  0.0934
42009W        W50609  21.930   7.047  29.292 -0.1205 -0.0767  0.0865
42010W        W50610   9.616   4.588  11.982  0.2122  0.0548 -0.1788
42011W        W50611  20.807   4.288  11.478 -0.0373  0.0306 -0.1145
42012W        W50612  22.458   5.857  24.919  0.2010 -0.1003 -0.0748
42013W        W50613   9.059   5.394  24.140 -0.3660 -0.0233  0.0290
42014W        W50614   2.164   0.280  13.627  0.2576 -0.1084 -0.1343
42015W        W50615   5.657   4.659  33.012  0.1452  0.0009 -0.0185
42016W        W50616   7.588   4.518   6.279 -0.0711 -0.1404  0.0433
42017W        W50617   8.337   5.301  30.682 -0.1160  0.0895 -0.1653
42018W        W50618  17.914   4.531  18.434  0.0143 -0.1425 -0.0264
42019W        W50619  24.581   0.298  11.986 -0.2685  0.0960  0.1955
42020W        W50620  18.591   6.458  19.384 -0.0525 -0.3038  0.3246
42021W        W50621   1.271   5.495  27.015  0.1264 -0.1342  0.0012
42022W        W50622  22.272   7.346  31.992 -0.0872 -0.1646  0.0173
42023W        W50623  23.940   3.571  20.593  0.0442  0.0920 -0.1269
42024W        W50624   0.556   4.741  14.236 -0.2111  0.2133  0.1297
42025W        W50625  11.172   5.965   1.276 -0.2080 -0.0085  0.2927
42026W        W50626   9.538   3.634  11.794 -0.2254  0.1471  0.2752
42027W        W50627  10.407   2.277  29.048  0.0258  0.0153  0.1620
42028W        W50628   2.385   4.370  23.146 -0.0681 -0.0352  0.0420
42029W        W50629   0.035   0.606  13.755  0.0051  0.1983 -0.0931
42030W        W50630   5.282   0.093  11.977 -0.2021  0.0902  0.0390
42031W        W50631   6.127   7.423   9.286  0.1054 -0.1905 -0.2775
42032W        W50632  12.985   1.939  24.507  0.3306 -0.0363  0.2129
42033W        W50633   3.322   7.399   4.111 -0.2860 -0.3508  0.1189
42034W        W50634   5.632   1.720   9.838  0.1335 -0.1262  0.0285
42035W        W50635  24.749   3.335  27.463 -0.0512  0.0167  0.2471
42036W        W50636  17.505   0.525  18.635 -0.2489 -0.0044  0.0379
42037W        W50637  23.751   2.187  31.077 -0.1526 -0.2917 -0.0168
42038W        W50638   1.295   5.611  24.446  0.1282  0.1090 -0.1073
42039W        W50639   3.716   0.389  30.351  0.1762  0.0173  0.1996
42040W        W50640  10.540   5.562   0.947 -0.2179  0.0498 -0.0387
42041W        W50641  20.471   4.445   2.105 -0.2510  0.3467 -0.0196
42042W        W50642  20.108   1.848   1.475  0.0478  0.1821  0.1331
42043W        W50643  15.471   3.240  32.584  0.0249 -0.1042 -0.2497
42044W        W50644   6.470   0.550  26.505  0.1741  0.1939 -0.1287
42045W        W50645   4.758   7.546  10.298  0.2566 -0.1182  0.0240
42046W        W50646  17.798   2.084   4.490 -0.0361 -0.0143  0.0260
42047W        W50647  18.834   2.100  20.917  0.1772 -0.3249  0.1129
42048W        W50648  11.444   2.746  25.337 -0.0413  0.2601 -0.1435
42049W        W50649  20.783   0.244   2.128 -0.0921 -0.2151  0.1918
42050W        W50650   4.783   0.536  25.784 -0.1615  0.3996  0.3410
42051W        W50651  16.783   6.815  25.172  0.0708 -0.1362 -0.0274
42052W        W50652  10.985   1.736   8.320  0.1337 -0.1610 -0.0166
42053W        W50653   9.183   2.049  28.253 -0.1517  0.1304  0.0062
42054W        W50654  10.922   4.341  31.312  0.1379 -0.0768  0.2174
42055W        W50655   8.972   7.531  22.184  0.0877 -0.2248 -0.1765
42056W        W50656  14.215   6.208  28.810 -0.4476 -0.0905  0.2330
42057W        W50657   0.280   5.085  22.393  0.2578 -0.0095 -0.1027
42058W        W50658  18.020   6.491  32.101  0.1552  0.0170  0.0833
42059W        W50659  24.530   6.199   7.010  0.1608  0.3236  0.1582
42060W        W50660   4.411   2.363  30.559 -0.0773  0.1420 -0.2802
42061W        W50661  16.016   5.191  31.985  0.1652  0.2317  0.0784
42062W        W50662  23.159   2.288  24.989 -0.3137 -0.2525  0.0506
42063W        W50663   7.754   6.718  32.467 -0.0794  0.1389 -0.0192
42064W        W50664  24.528   0.433  12.631 -0.1017 -0.1542 -0.0164
42065W        W50665  24.053   6.548  12.063 -0.0732  0.1060 -0.0293
42066W        W50666  20.745   6.054  27.078  0.1836 -0.3626 -0.1679
42067W        W50667   0.809   3.128   7.643  0.3516 -0.1741  0.0302
42068W        W50668  16.366   2.482  28.506 -0.1468 -0.3176  0.0282
42069W        W50669   6.685   6.234  28.438  0.1402  0.3065  0.0740
42070W        W50670  18.886   3.298  26.298 -0.0317 -0.0611 -0.1183
42071W        W50671   5.133   3.743  26.169  0.1144  0.2451 -0.1270
42072W        W50672  16.692   0.298  26.515 -0.0443  0.0102  0.1692
42073W        W50673  19.669   1.860   4.696 -0.0162 -0.0129  0.0208
42074W        W50674  11.420   4.430  32.742 -0.2945 -0.2120  0.1118
42075W        W50675   3.244   6.068   0.179 -0.2233 -0.2885 -0.2926
42076W        W50676  20.358   4.706  24.855  0.2856  0.0013  0.2020
42077W        W50677  13.144   6.626  31.713 -0.1481 -0.0191  0.0339
42078W        W50678   0.857   6.667  30.524 -0.0967 -0.0351 -0.0158
42079W        W50679  13.959   5.881   4.535  0.1604  0.1093 -0.2199
42080W        W50680   5.311   4.195   4.793  0.2307 -0.1883  0.1377
42081W        W50681  24.836   5.348  31.562  0.1297 -0.0061  0.1804
42082W        W50682   1.237   2.044  17.232  0.3116  0.1870 -0.1667
42083W        W50683  24.928   0.683  22.089 -0.1175  0.2337 -0.0385
42084W        W50684  11.732   6.821  28.009  0.0874 -0.3712 -0.2015
42085W        W50685  16.538   4.029   0.577 -0.2721 -0.1872  0.1138
42086W        W50686   2.244   7.221  17.476  0.1149 -0.1923 -0.0912
42087W        W50687   0.500   4.735  13.755 -0.1169 -0.1309 -0.2172
42088W        W50688  19.360   0.615  31.628  0.1433  0.1326  0.2573
42089W        W50689   5.568   7.126   8.648 -0.1437 -0.0982  0.2872
42090W        W50690   9.739   0.750   3.025  0.0955 -0.0699  0.0223
42091W        W50691  24.739   1.655   5.798  0.0966 -0.0013  0.0702
42092W        W50692   3.395   0.029   9.056 -0.0181 -0.1225 -0.1722
42093W        W50693  11.772   6.299   4.980 -0.2638  0.1403  0.0953
42094W        W50694   6.607   4.840   3.671  0.1586 -0.3400 -0.0521
42095W        W50695   8.536   3.379  32.613  0.1258  0.1578 -0.2742
42096W        W50696  11.661   1.451  24.791 -0.2769 -0.0627  0.2249
42097W        W50697   4.012   7.601  15.285 -0.0123  0.0902  0.5038
42098W        W50698  20.724   4.879  20.850 -0.1161  0.1677  0.0616
42099W        W50699   9.187   5.812   6.407  0.2475  0.1978 -0.3535
42100W        W50700  13.140   2.413  26.367  0.2505  0.1978  0.1230
42101W        W50701   1.822   4.233  32.035 -0.3210  0.2493  0.0241
42102W        W50702  15.533   1.887  28.276 -0.2158  0.0722 -0.0399
42103W        W50703  23.666   5.981   7.999 -0.2013  0.2091  0.1548
42104W        W50704   3.149   0.094  28.282 -0.2322 -0.1809 -0.3602
42105W        W50705   4.559   1.763   7.872  0.3555  0.3060  0.0786
42106W        W50706   6.993   5.037  32.460  0.0096  0.1919  0.0372
42107W        W50707  19.529   6.469  25.010  0.1166  0.2794 -0.0060
42108W        W50708   0.710   4.866  29.398  0.1947  0.0315 -0.4774
42109W        W50709  11.173   3.872  10.711 -0.2029  0.0212  0.1692
42110W        W50710  20.533   6.471   4.125 -0.0634  0.1341 -0.4123
42111W        W50711  16.116   6.393   8.423  0.4245 -0.0155 -0.0468
42112W        W50712  21.729   1.993   4.542 -0.1738  0.0476  0.0020
42113W        W50713  24.592   4.116  26.375  0.2681  0.0873 -0.2384
42114W        W50714  17.555   5.631  27.789  0.3099 -0.0105 -0.0636
42115W        W50715   4.053   7.091   0.498 -0.0412  0.0800  0.0459
42116W        W50716   1.816   3.470  24.549 -0.0883  0.4786 -0.0163
42117W        W50717   1.337   7.626   0.216  0.0114 -0.1527  0.0850
42118W        W50718   4.244   5.713  12.145  0.1962 -0.0984 -0.3086
42119W        W50719   4.917   5.301  25.399  0.1661 -0.1165  0.1870
42120W        W50720  11.607   3.117  12.034 -0.3283 -0.2434  0.0502
42121W        W50721  22.324   2.703  11.281  0.0971  0.0441 -0.0140
42122W        W50722   6.112   4.826   3.463  0.1902 -0.1275  0.1549
42123W        W50723   5.620   1.734  23.279 -0.2684  0.4318 -0.1125
42124W        W50724  10.162   3.714  21.936 -0.3701 -0.2564  0.2820
42125W        W50725   2.730   1.895   8.559 -0.1025 -0.1894  0.2310
42126W        W50726  14.448   0.810  29.352 -0.3062 -0.0193 -0.1206
42127W        W50727  17.369   1.031  15.858 -0.2952  0.1410 -0.4644
42128W        W50728  21.279   5.286  32.198 -0.0580  0.3280 -0.1325
42129W        W50729  19.591   7.447  26.575 -0.0646  0.0250 -0.1379
42130W        W50730  11.846   1.079  27.023 -0.2184 -0.2604  0.1305
42131W        W50731   2.177   6.448   7.956  0.0332  0.3125  0.0702
42132W        W50732  23.579   5.649   6.363 -0.1287  0.0646 -0.0894
42133W        W50733   7.621   3.875  15.771  0.2201 -0.1598 -0.1010
42134W        W50734   3.253   7.493   0.355  0.1385  0.0850 -0.1214
42135W        W50735  21.902   3.398   4.463 -0.0133 -0.0700 -0.2872
42136W        W50736  23.965   7.252   4.416  0.3214 -0.2879  0.1653
42137W        W50737  18.008   6.979  22.309 -0.1650 -0.0684 -0.0687
42138W        W50738  18.770   3.833  30.591  0.0875 -0.2541 -0.3053
42139W        W50739  10.471   3.148   7.223  0.2414  0.1726  0.1011
42140W        W50740   6.924   3.295   0.581 -0.0272  0.0020  0.0966
42141W        W50741   8.303   3.037   6.846 -0.3454 -0.2501  0.0575
42142W        W50742  24.275   1.819   0.862  0.4792 -0.1042  0.0095
42143W        W50743  13.871   7.449  18.399  0.2255 -0.0252 -0.0850
42144W        W50744  20.385   2.803  32.604  0.1348  0.1900  0.2125
42145W        W50745   1.125   0.970   6.726  0.2451  0.1881  0.0283
42146W        W50746  13.432   3.721  26.848  0.2082 -0.0153  0.1437
42147W        W50747   3.383   4.555  17.472  0.1494  0.0209 -0.0745
42148W        W50748   8.892   2.137  24.590 -0.0409 -0.1507  0.1028
42149W        W50749   2.638   4.566  26.388 -0.0029  0.1725  0.2297
42150W        W50750   3.880   5.975   0.592 -0.1206 -0.0694  0.1307
42151W        W50751   3.474   3.523  27.381 -0.1941 -0.1431  0.0338
42152W        W50752   2.010   4.212  30.017 -0.1161  0.0855 -0.0769
42153W        W50753   8.264   6.081  25.994 -0.1751 -0.1095 -0.2853
42154W        W50754   9.979   4.471  25.604 -0.0512 -0.0618 -0.0494
42155W        W50755   0.588   6.689  28.300 -0.2757  0.0508 -0.0650
42156W        W50756   5.596   4.580  11.383  0.2308  0.3259  0.0633
42157W        W50757   1.291   6.429  27.101 -0.2000  0.1413  0.0169
42158W        W50758  13.211   7.362  18.568 -0.1143 -0.1976  0.0457
42159W        W50759   9.340   4.114  23.046  0.1182 -0.0874  0.0505
42160W        W50760  13.616   1.658   1.088  0.3961  0.1239 -0.0581
42161W        W50761  23.933   7.763  29.165 -0.0127  0.1403  0.3321
42162W        W50762   5.632   2.338   6.559 -0.3744 -0.0993  0.0035
42163W        W50763  11.424   7.021  11.376 -0.1293 -0.2469 -0.1852
42164W        W50764   5.843   1.185  15.244  0.0970 -0.1592 -0.2476
42165W        W50765   7.339   6.328   4.951  0.2588  0.1236 -0.0116
42166W        W50766   6.008   2.397   0.962  0.1569 -0.4321  0.0182
42167W        W50767  23.631   2.513  25.697 -0.1413  0.2351 -0.1953
42168W        W50768  11.408   3.917  23.903  0.2955 -0.2174 -0.1665
42169W        W50769  20.021   6.804  28.176 -0.0016  0.1490  0.1135
42170W        W50770   1.829   5.325   3.494  0.3463  0.2507 -0.1519
42171W        W50771   3.071   7.657  28.728  0.2582 -0.0777  0.2334
42172W        W50772   3.222   7.305   9.969  0.2319  0.0892 -0.1351
42173W        W50773   7.700   6.154  31.025  0.0547 -0.3241  0.4095
42174W        W50774   2.655   0.837   1.511 -0.0302 -0.0732  0.3112
42175W        W50775  17.945   1.758   1.621 -0.1321 -0.0451 -0.0000
42176W        W50776   3.335   4.896  10.822  0.0199 -0.4358 -0.0606
42177W        W50777   1.562   3.563  14.858 -0.2850  0.0778 -0.0961
42178W        W50778   6.573   5.067   7.129 -0.0629  0.1330  0.0500
42179W        W50779  22.568   6.501  28.603  0.0557 -0.0246 -0.0193
42180W        W50780   6.934   2.508  30.431 -0.0428 -0.0216  0.2904
42181W        W50781   3.237   2.856  14.435 -0.0236 -0.0174  0.0944
42182W        W50782   6.680   5.335   0.188 -0.1797 -0.1649  0.1306
42183W        W50783   0.584   6.768   7.269 -0.3917  0.1920 -0.1838
42184W        W50784   5.687   0.827  26.655  0.0071 -0.1487  0.0648
42185W        W50785   6.720   1.421  31.383  0.3342 -0.0350  0.0271
42186W        W50786  12.466   1.066  25.754 -0.2035 -0.0440  0.0129
42187W        W50787   9.590   3.535  28.035  0.3035 -0.1019  0.0245
42188W        W50788   6.940   2.319  13.179 -0.0125  0.0920  0.2446
42189W        W50789  11.748   0.452  23.660  0.3394  0.0119  0.0380
42190W        W50790  12.003   2.911   5.526  0.1781 -0.1176  0.1167
42191W        W50791  12.949   6.156   5.536 -0.1613  0.3200 -0.2360
42192W        W50792  13.574   6.146  30.644  0.0848  0.1094  0.1449
42193W        W50793   9.667   5.543   1.082  0.0966  0.5478  0.0036
42194W        W50794  20.078   0.610  25.480  0.1065  0.1030  0.1128
42195W        W50795  20.853   7.008  22.670 -0.0573 -0.1395  0.0324
42196W        W50796  22.291   1.253  22.715  0.2570  0.1579  0.2483
42197W        W50797  21.988   5.186  21.928  0.2484 -0.2771  0.0895
42198W        W50798  18.718   6.521   5.286  0.1008 -0.1343 -0.2273
42199W        W50799   4.137   0.235  32.365  0.4653  0.0039  0.1646
42200W        W50800   1.810   0.337  30.731  0.1632 -0.1093  0.0939
42201W        W50801  11.734   7.745  11.701  0.1681 -0.1707  0.1032
42202W        W50802   6.998   7.784  24.394 -0.1120  0.0188 -0.1419
42203W        W50803  10.432   3.617  25.534  0.0209  0.0866 -0.0209
42204W        W50804  21.859   2.053  21.497 -0.0739  0.1784 -0.0414
42205W        W50805   1.070   2.510   2.427 -0.0008 -0.2964 -0.0278
42206W        W50806   9.026   5.437   7.609  0.3396  0.0859  0.1681
42207W        W50807  21.505   5.882   6.512  0.1017  0.1413 -0.1306
42208W        W50808  17.920   0.520  20.579  0.0172  0.1023  0.2127
42209W        W50809  17.071   4.892   9.809  0.0437  0.2163 -0.0227
42210W        W50810   0.678   3.718  13.440  0.2948  0.0758 -0.0652
42211W        W50811  22.289   4.417  18.960  0.2456  0.1578  0.0515
42212W        W50812   3.620   5.512  22.912  0.0492  0.2223 -0.0916
42213W        W50813  14.609   3.535  25.406  0.1222 -0.2307  0.1452
42214W        W50814  21.736   3.966  11.356  0.3152 -0.2640  0.1041
42215W        W50815   7.288   2.716  28.172  0.0529  0.1333 -0.0992
42216W        W50816   8.377   5.419   5.418 -0.0596  0.2798 -0.2619
42217W        W50817   8.632   7.576  12.810  0.0420 -0.2576  0.0802
42218W        W50818  14.408   0.158   8.300 -0.3638 -0.2682 -0.2190
42219W        W50819   0.411   3.706  29.687 -0.0123 -0.0207  0.0222
42220W        W50820   6.910   6.872  17.205  0.0113 -0.1565  0.1016
42221W        W50821  14.766   6.985  30.918 -0.1638  0.0875  0.3680
42222W        W50822  14.628   5.009  27.113  0.1481 -0.1990  0.2283
42223W        W50823  21.241   2.702  23.523 -0.3033 -0.1891 -0.1079
42224W        W50824  24.207   7.492   2.707 -0.3319  0.0910 -0.0445
42225W        W50825  13.555   3.595  16.992 -0.4974 -0.3313 -0.1546
42226W        W50826  23.490   1.607  30.297 -0.2795  0.1509 -0.2709
42227W        W50827  17.557   0.081  27.906 -0.0178 -0.1706 -0.1534
42228W        W50828  11.538   1.529  21.585 -0.0223 -0.1040  0.1277
42229W        W50829  22.709   3.810   3.100 -0.0196 -0.1030 -0.0087
42230W        W50830  18.097   5.691  31.040 -0.1352  0.1397  0.0455
42231W        W50831   1.221   4.472   3.170 -0.1222 -0.1207  0.5355
42232W        W50832   4.696   4.123  18.406 -0.1399  0.0159 -0.0412
42233W        W50833  23.028   6.920  23.966 -0.2854  0.3581  0.1967
42234W        W50834  22.489   5.558   7.234 -0.1696 -0.0438 -0.1635
42235W        W50835  23.269   3.182  23.456  0.1635  0.0365  0.0725
42236W        W50836  15.237   1.529  31.969  0.0942 -0.1617  0.2233
42237W        W50837  17.754   6.775  29.806 -0.2535  0.0304 -0.1159
42238W        W50838  23.981   0.799  27.666  0.1686  0.0027 -0.0194
42239W        W50839  14.517   0.459   1.538 -0.2514 -0.1544  0.1804
42240W        W50840   2.389   3.913  30.174 -0.0020  0.0234  0.2863
42241W        W50841  12.441   4.457   8.653 -0.4533  0.1916 -0.0599
42242W        W50842   3.989   3.644  24.911  0.2228 -0.1207  0.0628
42243W        W50843  10.384   4.720  28.383 -0.0655  0.2195 -0.2122
42244W        W50844   4.773   3.514   2.640 -0.1425 -0.1822  0.1132
42245W        W50845  15.642   1.897  26.509 -0.2058  0.2465  0.0836
42246W        W50846  22.793   1.321  31.109  0.0645  0.0954  0.3780
42247W        W50847  10.060   4.828  12.293  0.2439 -0.2105  0.1012
42248W        W50848   3.781   1.901   2.616 -0.0060 -0.0144 -0.0358
42249W        W50849   8.179   0.932  27.716  0.1575 -0.0461 -0.0479
42250W        W50850   8.560   0.441  29.731  0.0061  0.1786 -0.2309
42251W        W50851   4.082   3.520   3.558 -0.0112  0.1695 -0.0841
42252W        W50852   3.170   5.896  11.933 -0.1434 -0.0598  0.1244
42253W        W50853  17.207   4.910  29.461 -0.0599 -0.5980  0.0553
42254W        W50854  11.328   2.180   3.063  0.0944  0.3493 -0.0375
42255W        W50855  13.418   6.430  23.401 -0.1462 -0.0711 -0.0579
42256W        W50856   8.187   3.404   8.526  0.2541  0.0821 -0.2712
42257W        W50857  10.188   1.758   7.584 -0.3245  0.0147 -0.1378
42258W        W50858  14.212   6.268  18.096  0.0800  0.1515  0.1962
42259W        W50859   7.432   4.929  23.405  0.2108 -0.1032  0.0106
42260W        W50860   6.647   4.188   5.486 -0.2355  0.0556  0.0162
42261W        W50861   7.616   0.480  25.547 -0.0667 -0.2308 -0.0848
42262W        W50862  14.727   5.603  16.810  0.0047 -0.0386  0.3158
42263W        W50863  12.268   4.965  21.698 -0.1928 -0.2466 -0.0950
42264W        W50864   7.576   7.136  11.578  0.2383 -0.0521 -0.0935
42265W        W50865  10.960   3.848   4.036 -0.3490  0.0922  0.0534
42266W        W50866   1.468   5.189  22.856  0.1088  0.0711 -0.0403
42267W        W50867  15.771   4.389  27.754 -0.0407  0.3577  0.2292
42268W        W50868   6.162   2.303   9.312 -0.0868 -0.0924 -0.2268
42269W        W50869  12.755   3.062  10.052  0.0101  0.2325 -0.0985
42270W        W50870  19.316   4.049  27.685 -0.0009 -0.1113 -0.0161
42271W        W50871  14.684   3.802  29.908 -0.0249  0.0172  0.1656
42272W        W50872   9.212   2.591  23.873  0.2269  0.0334 -0.0456
42273W        W50873  18.130   4.335  19.841  0.2462 -0.1154 -0.1369
42274W        W50874   4.530   0.787   0.451  0.1979 -0.0683 -0.1274
42275W        W50875   1.921   7.073  10.588 -0.0920  0.2914  0.1635
42276W        W50876  16.952   0.862  17.393  0.1446  0.2150 -0.1549
42277W        W50877  10.626   1.676   8.689 -0.0109  0.0564  0.0325
42278W        W50878   8.972   6.199  27.091  0.0958 -0.0647  0.2291
42279W        W50879  19.420   4.602  32.474  0.0222 -0.1999  0.1052
42280W        W50880  20.056   5.896   5.724  0.2472 -0.0033 -0.1119
42281W        W50881   7.263   4.820   5.464 -0.0278  0.1253  0.1881
42282W        W50882   5.459   1.592   2.373 -0.2877 -0.1493  0.1571
42283W        W50883   5.367   6.199  30.798 -0.3379 -0.1086 -0.0892
42284W        W50884   2.867   3.620  24.392 -0.1729  0.1196 -0.0360
42285W        W50885  24.280   5.089  25.775  0.1540 -0.1574 -0.2330
42286W        W50886   4.150   3.626  10.097  0.0484 -0.0383 -0.1103
42287W        W50887  13.650   3.724   2.227  0.1508 -0.2110 -0.0961
42288W        W50888  23.481   0.342  32.894 -0.1982  0.2742 -0.1539
42289W        W50889  20.344   2.740   1.978  0.0864  0.1760  0.1472
42290W        W50890   7.149   7.694   6.850 -0.1886  0.0934  0.1010
42291W        W50891   5.764   5.176   8.194 -0.0626  0.1227  0.1816
42292W        W50892  21.036   1.941  27.239  0.0859 -0.1619  0.0880
42293W        W50893  19.590   3.420  21.880 -0.2225  0.1621  0.1437
42294W        W50894  17.566   3.363  23.099  0.0177 -0.3859 -0.3633
42295W        W50895   5.759   4.569  31.008 -0.0729  0.0801  0.2352
42296W        W50896  22.353   7.772  30.023 -0.2966 -0.1448  0.0779
42297W        W50897   4.112   7.307  11.321 -0.0555 -0.0477 -0.1149
42298W        W50898   7.576   1.752  25.016 -0.0888  0.0059  0.2671
42299W        W50899  12.884   1.330  17.318  0.2253 -0.0114  0.1004
42300W        W50900   6.680   3.598  14.024 -0.1161 -0.1884 -0.3508
42301W        W50901   9.156   0.611   1.415  0.2280 -0.0922 -0.3053
42302W        W50902  13.577   3.267  17.425 -0.0800  0.3606  0.1288
42303W        W50903   7.197   1.199  15.454 -0.4320 -0.1255 -0.4652
42304W        W50904  16.242   5.989  24.194  0.1025 -0.3652 -0.1999
42305W        W50905   0.562   5.597   3.277 -0.3238  0.0134  0.3471
42306W        W50906  12.649   6.967  27.860  0.2255 -0.2346 -0.0774
42307W        W50907  16.606   5.301   7.861 -0.0163  0.1940 -0.1049
42308W        W50908  24.096   4.508  25.533 -0.1451 -0.2574 -0.0031
42309W        W50909   1.603   6.961  29.760  0.0949  0.0764  0.1085
42310W        W50910   8.579   4.744  21.296  0.0234  0.3592  0.3785
42311W        W50911  23.400   3.982  13.142 -0.3607  0.2022 -0.1249
42312W        W50912  19.127   7.169  21.098  0.1239  0.1251  0.1188
42313W        W50913   9.612   2.992  28.757  0.0218  0.0007 -0.0504
42314W        W50914   1.749   2.320  11.204 -0.0251  0.3303 -0.2178
42315W        W50915  18.256   4.886  18.879 -0.1401 -0.1653 -0.3269
42316W        W50916   8.299   1.124  29.204 -0.1974 -0.0906 -0.1285
42317W        W50917  14.468   6.242   2.238  0.0212 -0.2648  0.2567
42318W        W50918  18.221   2.736   0.809  0.0602 -0.0166  0.1734
42319W        W50919  11.828   7.263  17.384  0.2808  0.2762 -0.1545
42320W        W50920  23.071   1.697  11.409  0.1386  0.0174 -0.0155
42321W        W50921  21.707   1.534   4.404 -0.0119 -0.4021  0.2910
42322W        W50922  12.971   6.721  23.819  0.2269 -0.1929  0.0287
42323W        W50923  14.104   1.205  31.263 -0.0217  0.0041 -0.2220
42324W        W50924  19.578   0.609   9.519  0.0028 -0.3343  0.2604
42325W        W50925  11.454   5.690  17.555 -0.0750 -0.0925  0.1067
42326W        W50926   0.741   5.393  11.180  0.0221 -0.1365 -0.1405
42327W        W50927  15.395   1.137   5.277  0.2010  0.1113 -0.1496
42328W        W50928   9.400   3.551  30.110 -0.2173  0.1976  0.0491
42329W        W50929   0.972   7.403  24.893  0.2217  0.0295 -0.3274
42330W        W50930   2.361   3.282  23.033 -0.0711 -0.2174  0.0866
42331W        W50931   8.280   1.008  28.227 -0.0658 -0.0220 -0.1110
42332W        W50932  10.187   0.081  32.962  0.1320  0.0659 -0.2509
42333W        W50933  10.188   0.215  20.012  0.1693 -0.0588  0.1266
42334W        W50934  11.719   3.771   1.013  0.0608  0.1980  0.0128
42335W        W50935   5.272   7.573  26.183  0.1022  0.2376  0.0941
42336W        W50936  13.754   7.074  17.503  0.1452  0.2773 -0.0847
42337W        W50937  23.618   2.936  28.800 -0.1717 -0.0783  0.0205
42338W        W50938   9.934   4.210  26.144  0.1820 -0.0224 -0.3676
42339W        W50939  18.268   5.297   8.370 -0.0322  0.3932  0.0640
42340W        W50940  24.759   3.046   2.514  0.0137 -0.0952  0.1656
42341W        W50941  15.936   2.097   7.801  0.1773 -0.4279  0.0813
42342W        W50942   9.618   2.246  26.505  0.0410  0.1187  0.1134
42343W        W50943  16.899   2.743   8.510  0.0771 -0.1804  0.1911
42344W        W50944  20.928   5.021  21.804 -0.1546 -0.2900  0.1592
42345W        W50945   3.550   3.036  16.663 -0.0390 -0.1230  0.1630
42346W        W50946  18.602   5.752  32.051 -0.1793  0.0029 -0.2510
42347W        W50947  23.171   3.489   8.347  0.2372  0.0853 -0.1518
42348W        W50948   2.578   6.711   4.550  0.0264  0.1440 -0.0962
42349W        W50949  17.432   5.559   3.439 -0.0478 -0.1660 -0.2253
42350W        W50950   6.343   3.203  32.719 -0.0548  0.1030  0.1415
42351W        W50951  23.562   5.525  13.103  0.0678  0.2884 -0.2224
42352W        W50952   7.568   4.615  10.785 -0.0557  0.0136  0.3828
42353W        W50953   1.429   2.612   4.594 -0.1305 -0.2316  0.0444
42354W        W50954  13.392   5.345  29.175  0.0655  0.2644  0.0321
42355W        W50955   9.563   4.954  25.367  0.1863 -0.2348  0.1282
42356W        W50956  22.993   7.422  24.153  0.0681 -0.0832  0.1099
42357W        W50957  14.010   5.843  15.539  0.2821  0.0283  0.3959
42358W        W50958   6.278   4.286  26.701  0.1064 -0.0158  0.0359
42359W        W50959   0.528   1.478  13.642  0.0890 -0.2200 -0.2342
42360W        W50960  11.983   7.756  24.225  0.0538  0.4203 -0.1189
42361W        W50961   4.011   3.658   4.803 -0.0696  0.1015  0.0359
42362W        W50962  18.805   7.638  31.923 -0.0014  0.0711 -0.0606
42363W        W50963  23.585   3.569  13.674 -0.0236 -0.0874  0.0179
42364W        W50964  12.835   1.734  16.950  0.3494  0.1797 -0.0852
42365W        W50965  19.372   0.117  28.962 -0.1176  0.1928 -0.2224
42366W        W50966  22.958   4.463  29.354 -0.0147 -0.0209  0.0830
42367W        W50967   7.324   5.994   6.137 -0.0979 -0.2186  0.0183
42368W        W50968  11.673   5.726   3.945 -0.3344 -0.0592 -0.2448
42369W        W50969  23.733   1.886   4.129  0.0046  0.3017  0.0305
42370W        W50970   8.945   0.512   7.194 -0.2106  0.1166 -0.4473
42371W        W50971  18.944   1.286   3.926  0.2111 -0.0096 -0.0498
42372W        W50972   3.272   3.935  27.881  0.1990 -0.3766 -0.0247
42373W        W50973  21.666   0.145  30.724 -0.0453 -0.0216  0.1763
42374W        W50974  24.548   1.613   4.719  0.1039  0.5012  0.1419
42375W        W50975   5.347   7.318  29.283 -0.1737 -0.2444  0.2075
42376W        W50976   9.321   3.832   2.002 -0.2174  0.2437  0.2292
42377W        W50977  10.176   0.672  29.496  0.1428 -0.1043  0.0585
42378W        W50978   6.393   7.466  30.708 -0.1869  0.2206 -0.1271
42379W        W50979  15.976   0.128   5.527  0.3406 -0.0202 -0.1300
42380W        W50980   0.707   7.180  28.274 -0.2717  0.1925  0.1311
42381W        W50981   4.815   3.310   9.568 -0.0379 -0.0141  0.1541
42382W        W50982   6.735   6.486   1.194  0.1101  0.1722 -0.0754
42383W        W50983  20.344   2.895   7.297 -0.1732  0.0796 -0.0252
42384W        W50984   1.862   2.445  32.360  0.2089  0.0395  0.2633
42385W        W50985   7.114   5.693  32.102  0.0538 -0.0512 -0.0038
42386W        W50986   8.448   6.430  10.482  0.1295 -0.1379 -0.2848
42387W        W50987   3.710   1.325  28.569  0.1342  0.2460 -0.3528
42388W        W50988  20.810   3.094  19.616 -0.1216 -0.0552  0.2224
42389W        W50989   7.961   6.577  23.352 -0.0967 -0.2134  0.0895
42390W        W50990  24.189   6.404   4.637  0.1166 -0.2199 -0.1008
42391W        W50991  13.817   2.654  18.974  0.2324 -0.0071  0.2011
42392W        W50992  14.550   7.363   4.146  0.0164 -0.1356 -0.0092
42393W        W50993   0.914   4.946   7.071  0.3427  0.0670 -0.1100
42394W        W50994  17.838   6.363  17.270  0.4142 -0.1105  0.1194
42395W        W50995  20.574   2.843  10.664 -0.2453  0.1101 -0.1076
42396W        W50996  10.460   0.392   7.172  0.0846  0.0273  0.1515
42397W        W50997  12.158   5.813  24.094 -0.0797 -0.2300 -0.0170
42398W        W50998  12.508   6.899   8.578 -0.3140 -0.0178 -0.0452
42399W        W50999  10.575   1.272   6.293 -0.0480 -0.2319 -0.4002
42400W        W51000   9.265   0.845  26.755  0.0635  0.0826  0.1578
42401W        W51001   4.657   1.877  16.796  0.2052  0.0441 -0.1326
42402W        W51002   2.045   4.211  24.942  0.1873  0.0787 -0.3632
42403W        W51003  10.326   4.062   8.550  0.0631 -0.1856  0.1063
42404W        W51004   6.590   4.015   9.140 -0.3655 -0.1484  0.0891
42405W        W51005  24.160   3.445   2.785 -0.0399  0.3853 -0.0354
42406W        W51006  12.303   0.596   9.929 -0.0712 -0.2082  0.2754
42407W        W51007  15.499   2.879   1.591  0.1840 -0.0395 -0.0021
42408W        W51008  18.840   4.483   8.105 -0.0852  0.0185 -0.2485
42409W        W51009  23.264   5.191  31.168  0.0934 -0.1251 -0.2871
42410W        W51010  12.320   0.211   1.193  0.2279 -0.0107 -0.0543
42411W        W51011  23.571   2.186  25.321  0.0367 -0.1890  0.1416
42412W        W51012  15.418   2.279  15.975  0.1295  0.2626 -0.2727
42413W        W51013  18.993   7.092  29.594 -0.0016 -0.3966  0.0838
42414W        W51014   3.655   3.868  16.948 -0.1806 -0.1670  0.1174
42415W        W51015  23.368   0.805  23.614 -0.0309 -0.0404 -0.1845
42416W        W51016  17.671   5.224  25.692  0.0872 -0.1213 -0.0232
42417W        W51017  18.856   7.573  30.037  0.1729  0.0733 -0.0591
42418W        W51018   8.963   0.598  27.082 -0.0882  0.4935  0.0739
42419W        W51019   4.897   3.921  27.593 -0.0635 -0.1060  0.0332
42420W        W51020  17.213   3.279  31.444  0.1758 -0.0096  0.1671
42421W        W51021   5.355   0.276   2.010 -0.1157  0.2241 -0.0287
42422W        W51022  11.409   3.071   3.010 -0.0005  0.0705 -0.2219
42423W        W51023  20.194   1.349  20.925 -0.0495  0.2419 -0.1842
42424W        W51024  16.691   2.333   2.474 -0.2047  0.0698  0.2172
42425W        W51025  18.038   3.711  23.356 -0.0892  0.0474 -0.2323
42426W        W51026   8.641   6.048   2.964 -0.1423 -0.2552 -0.0800
42427W        W51027  16.340   6.202  28.805 -0.1816 -0.2432  0.2891
42428W        W51028  20.582   3.953   0.785 -0.0140  0.0970 -0.0093
42429W        W51029   4.747   3.291  25.123 -0.3351  0.1510 -0.1967
42430W        W51030  15.104   6.027  31.695 -0.2236 -0.1904  0.2447
42431W        W51031  16.301   3.731  23.687  0.0854 -0.1774  0.2182
42432W        W51032  18.598   6.378  29.570  0.2853  0.0273  0.1921
42433W        W51033  20.970   5.732  23.520 -0.4182  0.3916  0.0122
42434W        W51034  17.469   6.960  26.229  0.2930  0.1688  0.1557
42435W        W51035  18.079   5.475   0.151 -0.3111  0.0452  0.0789
42436W        W51036   1.734   5.149  28.087  0.1521 -0.1303 -0.0855
42437W        W51037   4.670   4.142   5.850  0.0040  0.3409 -0.2453
42438W        W51038  10.816   3.158  32.224 -0.1745 -0.2633 -0.0396
42439W        W51039   7.403   6.705  22.563  0.5577 -0.0267 -0.2370
42440W        W51040  22.778   5.288  12.419 -0.0245 -0.0633  0.0079
42441W        W51041  15.333   0.343  18.896 -0.0713 -0.0282 -0.0587
42442W        W51042   6.322   5.044  13.861 -0.0614  0.0189 -0.0336
42443W        W51043   2.031   7.255  28.699 -0.1033  0.1002  0.1450
42444W        W51044   5.888   1.290  15.826 -0.0756  0.1071 -0.2092
42445W        W51045  11.420   6.428  29.705 -0.0822  0.1788  0.0005
42446W        W51046  11.865   0.258   2.894  0.0995  0.1273 -0.1423
42447W        W51047  10.028   4.269  33.003  0.2010  0.2035 -0.1160
42448W        W51048  20.744   6.675  20.871 -0.0259  0.1612 -0.0452
42449W        W51049  21.237   4.940  24.671 -0.0625  0.0896  0.2082
42450W        W51050  17.196   7.414  18.939  0.1925  0.0909  0.0302
42451W        W51051  17.232   1.119   4.326  0.0570 -0.0916  0.0084
42452W        W51052  23.783   6.751   8.725 -0.0510 -0.1729  0.0264
42453W        W51053  11.766   6.016  18.427  0.1283  0.1454  0.0780
42454W        W51054  23.925   2.586   1.401 -0.0677 -0.0250  0.1791
42455W        W51055   4.474   0.337  14.576 -0.0299  0.3674 -0.3772
42456W        W51056  17.092   1.509   5.303  0.0010  0.1876  0.0877
42457W        W51057   9.696   7.398   1.294  0.1396  0.0786 -0.1318
42458W        W51058   5.602   7.206   3.196 -0.0435 -0.3772  0.0268
42459W        W51059  16.207   5.077  25.135 -0.1588 -0.1481  0.2451
42460W        W51060   5.956   6.226  28.214  0.1677  0.0006 -0.0786
42461W        W51061  15.948   5.432  24.886 -0.1520 -0.3253  0.2297
42462W        W51062   6.741   4.176  30.067 -0.4504 -0.1887  0.1503
42463W        W51063   2.729   4.929  10.571 -0.0133 -0.1228 -0.2348
42464W        W51064  19.956   5.189  26.815  0.2503  0.1232  0.4491
42465W        W51065   5.096   0.266  12.910 -0.3681 -0.3202  0.0926
42466W        W51066  12.659   0.551  17.008 -0.0226  0.1449  0.1622
42467W        W51067   3.550   7.433  24.759  0.2276 -0.0932  0.0546
42468W        W51068  13.518   2.668   8.947  0.1049 -0.2777  0.3107
42469W        W51069  24.663   1.475  25.573  0.2548  0.1286 -0.0429
42470W        W51070  24.066   2.640  25.951 -0.0580 -0.2506 -0.0196
42471W        W51071   8.050   3.869   7.528  0.2542  0.2546 -0.1690
42472W        W51072   2.191   0.294   1.405 -0.0710 -0.2367  0.1462
42473W        W51073  11.882   6.734   1.315  0.0827  0.2494 -0.0045
42474W        W51074  21.850   6.078   6.101 -0.0977 -0.1668 -0.0081
42475W        W51075  13.489   6.558   8.784  0.0110 -0.1231  0.2089
42476W        W51076  16.246   2.591   7.929 -0.1308 -0.0563 -0.1667
42477W        W51077  10.955   6.331  25.768 -0.1846 -0.0539 -0.0447
42478W        W51078  13.336   5.218  32.721 -0.0661  0.2258 -0.2276
42479W        W51079  13.880   5.739   6.942 -0.0943  0.2617  0.0277
42480W        W51080  15.803   3.096   9.875 -0.1345  0.0148 -0.2958
42481W        W51081  21.091   1.632   8.752  0.2418  0.2261  0.1327
42482W        W51082  19.029   1.018  22.179 -0.0856 -0.0379  0.3711
42483W        W51083  16.355   7.504   6.283 -0.0325  0.0832 -0.1591
42484W        W51084   1.541   4.356  24.641  0.1986  0.1653  0.1397
42485W        W51085  22.073   1.788  25.504 -0.0795  0.0872 -0.2222
42486W        W51086  22.709   4.881   7.158 -0.3783 -0.1840  0.1035
42487W        W51087  12.215   6.599   9.011  0.0494 -0.0013  0.1284
42488W        W51088  11.732   5.527   6.988 -0.2026  0.1292 -0.1452
42489W        W51089  21.549   1.208  24.222  0.0724  0.0376 -0.0115
42490W        W51090  23.325   4.775  19.463  0.1481  0.1991  0.0554
42491W        W51091  19.993   1.417   1.777 -0.0669 -0.0152 -0.1387
42492W        W51092   5.297   2.986  23.256  0.1615  0.0488 -0.0228
42493W        W51093  12.061   2.723  29.215 -0.0789 -0.0848 -0.2625
42494W        W51094   4.872   5.947  26.855  0.1131  0.0674 -0.1494
42495W        W51095   8.672   5.194   8.508  0.0230 -0.0529  0.1595
42496W        W51096  16.026   7.797  22.124  0.1878  0.4104  0.0622
42497W        W51097   8.410   6.725  25.505  0.2158  0.1745  0.1850
42498W        W51098  12.852   4.031  27.396 -0.0374 -0.2159 -0.2678
42499W        W51099   0.968   3.007  29.662  0.2966  0.0845 -0.1771
42500W        W51100  12.962   0.292  32.968  0.0905  0.2513 -0.0664
42501W        W51101  17.688   6.622  27.560 -0.0721 -0.1064  0.1099
42502W        W51102  11.195   0.739  20.958 -0.0924 -0.1414  0.1642
42503W        W51103  21.859   5.824  11.309  0.0328 -0.1212 -0.0618
42504W        W51104   2.820   1.914   2.233  0.3459 -0.1508  0.0771
42505W        W51105   6.583   0.126  24.166  0.0785  0.0560 -0.2266
42506W        W51106  19.988   3.912  16.338 -0.0324 -0.2050  0.1646
42507W        W51107   6.117   6.645   9.632 -0.0869  0.3544 -0.1772
42508W        W51108  10.636   3.608   0.967 -0.1584  0.1778 -0.0479
42509W        W51109   1.097   6.151   1.481 -0.1407 -0.2558  0.1500
42510W        W51110  18.919   0.575  29.281 -0.1533 -0.0580 -0.1322
42511W        W51111   5.473   4.216  11.697 -0.0525 -0.0459  0.1000
42512W        W51112  17.696   3.972  19.109 -0.2222  0.1049  0.1884
42513W        W51113  13.137   4.865  25.833 -0.0390 -0.1938  0.2082
42514W        W51114   0.884   3.824   0.122  0.0065  0.1991  0.2406
42515W        W51115  11.554   4.767  20.000 -0.3015  0.3108  0.0047
42516W        W51116   0.033   5.419  23.163  0.0850 -0.0226  0.2184
42517W        W51117   0.772   6.609   9.094  0.1767 -0.2144 -0.0588
42518W        W51118   8.617   7.754  24.519  0.0024  0.0068  0.1130
42519W        W51119  24.336   3.094  28.329  0.2137  0.1486 -0.0170
42520W        W51120   2.401   6.996  15.202  0.3005 -0.0351 -0.1577
42521W        W51121  15.701   6.726   9.701  0.0438 -0.1302 -0.0932
42522W        W51122   0.374   0.086  23.282 -0.2708  0.1963  0.0243
42523W        W51123   2.228   3.670   1.077  0.1538  0.0206  0.1730
42524W        W51124  13.252   2.323  18.873 -0.1679 -0.0610 -0.1617
42525W        W51125  23.410   1.939   2.696  0.2136 -0.1039  0.2838
42526W        W51126  22.383   2.968   8.293  0.3348  0.1154 -0.1168
42527W        W51127  14.408   1.820  30.670  0.1992  0.1717 -0.0193
42528W        W51128   9.055   5.681  30.301  0.1941 -0.0114 -0.0981
42529W        W51129   0.542   5.320  13.917  0.2648 -0.1876  0.1319
42530W        W51130   5.861   5.152  28.849  0.0084  0.3141 -0.1674
42531W        W51131   0.125   2.912  13.829  0.0949  0.2063  0.2624
42532W        W51132  12.657   1.010  16.876  0.0111 -0.1637 -0.2046
42533W        W51133  19.186   7.597   7.209 -0.1127  0.1498 -0.0465
42534W        W51134  21.282   7.567   2.684  0.0429  0.1523 -0.1816
42535W        W51135  21.521   0.559  26.206  0.0452 -0.1655 -0.0896
42536W        W51136   8.456   4.969  26.865  0.3738 -0.1483  0.3129
42537W        W51137  10.148   7.333   9.006  0.1523  0.1056  0.0871
42538W        W51138  11.939   5.873   8.820  0.0068 -0.0666  0.5038
42539W        W51139  16.650   7.602   6.674 -0.0665  0.0280 -0.3830
42540W        W51140   2.327   0.272  31.033 -0.0037  0.2748  0.0234
42541W        W51141   5.161   1.490   6.432  0.0057  0.1400  0.2746
42542W        W51142   2.933   4.436  24.575 -0.0396  0.1508  0.1651
42543W        W51143  15.437   1.859   6.948 -0.0096 -0.1465  0.0423
42544W        W51144  22.489   4.438  22.197  0.0344  0.1992 -0.1845
42545W        W51145   9.175   6.176  27.580 -0.0005 -0.0485  0.0937
42546W        W51146  11.540   6.274  30.725  0.0502  0.5576  0.2520
42547W        W51147   9.694   5.793  32.959 -0.3427 -0.0890 -0.2813
42548W        W51148   3.019   4.568  30.035 -0.0709 -0.2077 -0.2950
42549W        W51149   4.482   0.704   5.934 -0.0733  0.2434  0.0375
42550W        W51150   0.937   5.485   5.705 -0.1488  0.3492 -0.0752
42551W        W51151  18.030   4.241   2.783  0.1847 -0.2291 -0.1128
42552W        W51152  17.448   6.774   5.758 -0.0117  0.1712 -0.0452
42553W        W51153  13.441   6.759   7.526  0.0032  0.4472  0.0986
42554W        W51154   9.123   5.806  21.743  0.2041 -0.1139 -0.4723
42555W        W51155  19.341   1.926   9.576 -0.1452 -0.4405  0.1720
42556W        W51156   6.622   0.084   7.609  0.0472 -0.0982 -0.0374
42557W        W51157   9.252   1.297  24.151 -0.1343 -0.3196 -0.1663
42558W        W51158  19.235   2.437  17.739 -0.1066  0.0177  0.0794
42559W        W51159  10.207   1.008   3.186 -0.0598 -0.2047  0.2259
42560W        W51160  23.657   7.563  26.191  0.1348  0.2157  0.0521
42561W        W51161   3.922   7.183  13.123 -0.0585  0.0727  0.0997
42562W        W51162  16.703   0.471  26.998  0.1320  0.1805  0.1191
42563W        W51163   3.819   5.294  29.148 -0.2294  0.0312 -0.0924
42564W        W51164  11.072   1.462   0.248  0.0561  0.0130 -0.1337
42565W        W51165   1.487   5.537  13.610  0.1151  0.3433 -0.2948
42566W        W51166  11.361   3.969  17.955  0.0039 -0.1673 -0.6567
42567W        W51167  23.339   7.053   3.338 -0.1619  0.2380  0.0302
42568W        W51168  12.415   0.540   5.642  0.1197 -0.1514 -0.0076
42569W        W51169  10.532   4.758   9.686 -0.1576  0.0632 -0.0968
42570W        W51170  22.500   7.094   3.164 -0.0745  0.0171 -0.2661
42571W        W51171   0.431   1.294   5.846 -0.0117  0.0334  0.0463
42572W        W51172  17.378   3.673  16.924  0.0128 -0.2291  0.0768
42573W        W51173   1.403   1.869  28.816  0.0246  0.0319  0.0646
42574W        W51174  20.107   7.329  28.247  0.0567  0.0688  0.0793
42575W        W51175  16.566   4.379  22.061 -0.2073  0.1780 -0.3124
42576W        W51176  23.492   4.922  28.681  0.0462 -0.1954 -0.0436
42577W        W51177  15.741   6.998   1.658 -0.2239 -0.0399 -0.2199
42578W        W51178  17.825   4.407  32.167  0.2143 -0.2867  0.2101
42579W        W51179  15.955   0.619  30.790  0.0421 -0.2984 -0.0098
42580W        W51180   6.483   2.718  30.505 -0.0379 -0.0148  0.5718
42581W        W51181   3.685   3.098  27.577 -0.0954  0.1154 -0.0005
42582W        W51182   0.358   0.153  27.991  0.0187  0.0202  0.2296
42583W        W51183   4.912   5.023   2.428 -0.1384 -0.0826 -0.0511
42584W        W51184   0.763   3.126  14.723  0.1392 -0.0405  0.1351
42585W        W51185   4.024   0.948  26.461 -0.2107  0.2431 -0.2228
42586W        W51186  11.476   3.963   8.474 -0.3667 -0.0408 -0.0896
42587W        W51187  18.533   3.470  31.610 -0.0922  0.1977  0.0857
42588W        W51188  11.363   6.999  29.039  0.1082  0.0707 -0.1673
42589W        W51189  10.336   3.264   9.110  0.1178  0.1046  0.0693
42590W        W51190  19.797   3.035  26.139 -0.1103 -0.1199  0.0119
42591W        W51191  23.081   0.262  13.142 -0.0625 -0.1350  0.0203
42592W        W51192   8.214   0.934  10.356 -0.2162  0.1714 -0.1603
42593W        W51193  22.989   6.519   0.614  0.2532  0.2479 -0.1240
42594W        W51194  17.115   2.219  19.797  0.1047 -0.2182 -0.2453
42595W        W51195  16.111   1.519  25.723  0.0585 -0.1093 -0.0509
42596W        W51196   9.302   7.694  31.924 -0.2072  0.1806 -0.3877
42597W        W51197  12.960   2.945   0.766  0.2739  0.0865  0.3293
42598W        W51198   8.094   4.552  12.514  0.0682 -0.2484 -0.0081
42599W        W51199  23.525   3.167   2.841  0.1718  0.2305  0.1109
42600W        W51200   0.800   4.464  12.988  0.2179  0.1514 -0.1715
42601W        W51201   4.020   0.631   4.844  0.2815 -0.1892 -0.0342
42602W        W51202   9.158   2.059   6.383 -0.0184  0.1596  0.1297
42603W        W51203   5.466   7.214  15.789 -0.1484  0.3074 -0.1019
42604W        W51204   3.406   7.147  17.577 -0.0952  0.0199 -0.1362
42605W        W51205  15.278   6.214  30.418 -0.1215 -0.2547  0.0530
42606W        W51206  17.905   5.147  28.469  0.0756 -0.5167  0.3286
42607W        W51207   4.702   0.231   2.563 -0.0216 -0.1731  0.2474
42608W        W51208   4.514   2.461  18.215 -0.0997 -0.1723 -0.0213
42609W        W51209  24.376   0.814   9.811  0.0182  0.2060 -0.2926
42610W        W51210  11.065   0.940  22.225  0.0952  0.0808 -0.1621
42611W        W51211   4.836   6.926  24.731  0.0265  0.2689 -0.0311
42612W        W51212   6.051   0.333  17.033 -0.0592  0.0546  0.0585
42613W        W51213   2.283   1.921  13.049 -0.0803  0.0478  0.2535
42614W        W51214   1.741   0.617  22.376 -0.1953 -0.1736  0.1666
42615W        W51215   2.445   6.094   0.103  0.3687  0.0766  0.2661
42616W        W51216  23.002   6.661   9.748 -0.2282 -0.1995 -0.0867
42617W        W51217   9.355   3.522  12.347  0.0340 -0.0588  0.0788
42618W        W51218  15.811   2.073  24.873 -0.2204 -0.0097 -0.1344
42619W        W51219   9.876   4.401   5.325 -0.3287  0.0260  0.0492
42620W        W51220   6.509   5.363  30.393 -0.0653  0.1269 -0.0158
42621W        W51221  19.967   0.689  24.010  0.2438 -0.4931 -0.3008
42622W        W51222   5.535   3.965   0.129 -0.0889 -0.0834 -0.1333
42623W        W51223   3.609   2.603  24.079 -0.1946 -0.0699 -0.1769
42624W        W51224  12.812   7.222  23.659  0.1551 -0.2557 -0.1053
42625W        W51225   4.162   3.536  23.883 -0.1154 -0.2220  0.0108
42626W        W51226   7.753   3.754  28.794  0.2040  0.2014 -0.1963
42627W        W51227   8.714   0.650  22.337 -0.0629  0.0670 -0.0306
42628W        W51228  17.214   7.722  25.608  0.2074 -0.0343 -0.0499
42629W        W51229  14.116   5.050   8.070  0.1722  0.1809  0.2231
42630W        W51230  21.711   3.150  31.940 -0.1194  0.2596  0.1135
42631W        W51231  23.238   6.638   4.617  0.0898 -0.0946 -0.1132
42632W        W51232  12.290   4.554   0.858 -0.0257  0.0471  0.1997
42633W        W51233   1.989   0.928  15.990  0.1320 -0.0296 -0.1884
42634W        W51234   0.186   0.953   3.600  0.2905  0.2199  0.1391
42635W        W51235  18.075   5.161   1.797  0.2364 -0.1281  0.0525
42636W        W51236   5.799   0.825   8.971 -0.0253  0.0447  0.1362
42637W        W51237   1.317   0.762   4.433  0.5004  0.2427  0.1729
42638W        W51238   1.727   3.790   2.914 -0.0710 -0.2356 -0.2188
42639W        W51239   6.046   0.010   7.839  0.3418 -0.0424  0.1470
42640W        W51240  21.668   6.795  25.368  0.0977 -0.1951  0.0572
42641W        W51241  10.394   4.728  23.744  0.0929 -0.0533  0.1642
42642W        W51242  15.107   5.724  28.261  0.1777 -0.2407 -0.3074
42643W        W51243  23.213   2.458   7.920  0.1079  0.4413 -0.1059
42644W        W51244  21.364   7.545   7.684 -0.0956 -0.0151  0.2220
42645W        W51245  11.918   7.749  19.536 -0.0535  0.2114 -0.0208
42646W        W51246   0.764   0.044  29.149  0.2367 -0.0129 -0.0431
42647W        W51247  16.676   4.066   6.208  0.2025  0.0963 -0.0122
42648W        W51248  10.837   5.369  25.987  0.2741  0.0940 -0.0737
42649W        W51249   7.129   4.844   3.638  0.1585  0.1784  0.1198
42650W        W51250   8.655   6.984   9.218  0.1522 -0.1626  0.0464
42651W        W51251  24.894   6.668  31.634  0.0533 -0.0302  0.0067
42652W        W51252  12.069   7.259   1.984 -0.1386 -0.0859 -0.1913
42653W        W51253   9.560   2.317   4.185 -0.0999 -0.1281 -0.0760
42654W        W51254   0.871   2.259  13.156 -0.1459  0.0176  0.3116
42655W        W51255  16.004   5.123   0.151  0.0534  0.0405 -0.0323
42656W        W51256   4.237   4.752  10.617  0.2848  0.2105 -0.0450
42657W        W51257   0.162   4.546  31.080  0.3282 -0.2005 -0.3350
42658W        W51258   8.686   6.408  13.518  0.0226  0.0090 -0.1834
42659W        W51259   6.460   5.560  26.661 -0.0753  0.0418 -0.2672
42660W        W51260  10.666   4.354  20.358 -0.0771  0.0172 -0.0401
42661W        W51261   9.973   3.336  30.729 -0.0565  0.1612 -0.1525
42662W        W51262  22.416   7.581  32.914 -0.3666  0.1525  0.1687
42663W        W51263   3.968   1.273   0.825  0.0354  0.2611  0.0676
42664W        W51264  15.305   3.992  18.758 -0.0022 -0.3692 -0.1177
42665W        W51265  15.794   4.393   9.990 -0.0284  0.0506 -0.1038
42666W        W51266  23.308   1.419  11.772  0.2946 -0.0352  0.3263
42667W        W51267  21.516   4.291  21.749 -0.1856  0.1257 -0.1421
42668W        W51268   4.450   7.370  28.648  0.0452  0.0760 -0.0544
42669W        W51269  24.755   2.912   3.020  0.1949 -0.0440  0.1182
42670W        W51270  18.457   0.226   2.694  0.2130 -0.2844 -0.2358
42671W        W51271  24.076   3.560  27.008  0.1809 -0.0094  0.0170
42672W        W51272   2.053   6.743   5.401 -0.0794  0.0200 -0.1673
42673W        W51273   1.900   7.275   2.718 -0.0548  0.2822  0.0953
42674W        W51274  12.941   1.824   6.066 -0.1111 -0.1076 -0.2549
42675W        W51275   8.833   0.191  25.922  0.0514  0.2294  0.2273
42676W        W51276  12.729   1.360  31.126 -0.0403  0.2972 -0.0208
42677W        W51277  15.385   7.603  25.703  0.2360  0.1232 -0.1395
42678W        W51278  19.491   3.354  22.732  0.1918  0.0154 -0.0084
42679W        W51279   1.789   2.693  23.577  0.2530  0.0871  0.1734
42680W        W51280  16.827   2.221  27.024  0.1249  0.1885  0.0972
42681W        W51281   4.187   7.394  23.682  0.3262  0.0397  0.0758
42682W        W51282  13.141   3.480  27.124  0.1479 -0.1107 -0.2730
42683W        W51283  17.900   7.670  26.021 -0.0311 -0.2120 -0.2977
42684W        W51284  12.308   1.601   0.623 -0.0094 -0.1799  0.3214
42685W        W51285  20.460   7.757  10.903  0.2770 -0.1326  0.2416
42686W        W51286   6.268   6.006  10.576  0.3777  0.0702 -0.0744
42687W        W51287   2.931   1.502   8.303  0.2553  0.0732  0.2257
42688W        W51288  10.230   7.560  29.421 -0.0757  0.2782 -0.1267
42689W        W51289   6.795   7.482  15.863 -0.0346  0.0154  0.2845
42690W        W51290  21.337   2.708  30.184 -0.1981  0.1823  0.0528
42691W        W51291  24.557   3.886  28.527  0.1108 -0.0099 -0.0274
42692W        W51292   1.478   3.863  16.728  0.2492  0.3651  0.0722
42693W        W51293   4.150   1.020   3.249  0.1246  0.0528 -0.2515
42694W        W51294  12.271   2.535   9.318  0.1471 -0.3703  0.3073
42695W        W51295  10.423   3.718   3.236  0.1984  0.3475  0.0125
42696W        W51296  16.855   4.490  25.733 -0.0724  0.1146 -0.0352
42697W        W51297   5.202   5.128   5.570 -0.0143  0.1777 -0.3484
42698W        W51298   6.990   4.913  28.263 -0.1150  0.0986  0.2190
42699W        W51299   6.226   5.782  31.697  0.2336  0.5106  0.1738
42700W        W51300  15.548   4.609  15.377  0.1951  0.1531 -0.0751
42701W        W51301  11.455   3.053   0.666 -0.2201  0.0211  0.1760
42702W        W51302   4.950   2.994   2.549 -0.0270  0.2560  0.0875
42703W        W51303   6.906   5.446   6.765  0.0739 -0.4108  0.2623
42704W        W51304  10.092   1.757  10.887 -0.0197 -0.3158 -0.0154
42705W        W51305   0.103   6.916   3.513 -0.1185 -0.0037  0.0544
42706W        W51306  23.892   2.722  23.907 -0.1471  0.1109  0.2505
42707W        W51307  21.024   0.106   4.237  0.2456  0.0467 -0.1257
42708W        W51308  15.320   0.519  23.598 -0.1239 -0.2702 -0.0750
42709W        W51309  23.731   6.987  12.131 -0.1632 -0.0290 -0.0704
42710W        W51310   4.036   6.878  26.024 -0.2125  0.3907  0.3137
42711W        W51311  17.109   1.341  30.032  0.0313  0.1199  0.2692
42712W        W51312   9.029   5.495   0.450  0.0347 -0.0670  0.1279
42713W        W51313   7.670   3.475   1.831 -0.4185  0.1231  0.1118
42714W        W51314  17.582   0.630  31.538 -0.0575 -0.2160  0.1865
42715W        W51315   8.207   7.251   6.892 -0.0875 -0.0874 -0.0597
42716W        W51316   2.213   4.204  10.214  0.0370  0.0213  0.1082
42717W        W51317  10.176   2.163  26.325 -0.0110 -0.0501  0.1337
42718W        W51318  17.367   1.996   0.103 -0.1025 -0.0052  0.1976
42719W        W51319   3.008   2.381  10.511  0.0287  0.2669 -0.2392
42720W        W51320   0.675   0.564  17.132  0.0468 -0.1495  0.0110
42721W        W51321   8.501   7.502   2.073 -0.0327 -0.2132 -0.0648
42722W        W51322   9.691   6.232  25.935  0.0406 -0.2234 -0.2604
42723W        W51323  12.163   0.890   5.072 -0.1165  0.1212  0.1270
42724W        W51324   9.139   0.719   5.808  0.0558  0.2324 -0.2539
42725W        W51325  15.169   4.494  30.201  0.1389 -0.1841  0.1140
42726W        W51326   1.634   3.857  25.748  0.3262 -0.0902 -0.0326
42727W        W51327  11.653   2.836  32.700  0.1501 -0.1547 -0.0438
42728W        W51328  21.690   0.354  28.522 -0.0578 -0.0978  0.1926
42729W        W51329  13.409   6.340  22.043 -0.0086 -0.1094  0.0424
42730W        W51330  24.061   5.910  25.924  0.2099 -0.0625  0.0752
42731W        W51331   2.710   3.261  27.503 -0.0520 -0.2486 -0.0767
42732W        W51332  20.681   7.338   8.813  0.1184 -0.3043  0.3376
42733W        W51333  18.525   1.955   2.894  0.2190  0.0449  0.0290
42734W        W51334  14.940   7.653   8.776 -0.1986  0.0117  0.2628
42735W        W51335  19.609   6.034  30.371  0.1844  0.1439  0.2353
42736W        W51336   4.721   4.833  31.539  0.0729 -0.2236  0.1624
42737W        W51337  21.594   1.366  27.148 -0.1872  0.2656  0.0611
42738W        W51338   0.912   0.443  28.808 -0.2503  0.1921 -0.1890
42739W        W51339   2.662   4.111   6.377  0.1903  0.0359  0.3857
42740W        W51340  20.684   6.366   3.250  0.1385  0.1164 -0.1565
42741W        W51341  11.965   7.449   4.019  0.1774 -0.0279  0.1437
42742W        W51342  11.829   2.277  28.996  0.0807 -0.1162  0.0856
42743W        W51343   9.133   1.706   9.634 -0.0422  0.2084 -0.2356
42744W        W51344  10.123   3.080   6.913 -0.2797 -0.3824  0.1437
42745W        W51345   6.762   1.109  16.941 -0.0205 -0.1828 -0.0361
42746W        W51346   4.218   0.171  25.781 -0.1063 -0.0058  0.2524
42747W        W51347   8.913   2.231  24.048 -0.1827 -0.0671  0.2321
42748W        W51348   2.793   1.010  25.844  0.0107 -0.2226 -0.1195
42749W        W51349  13.411   1.180  20.707 -0.0866 -0.0387 -0.0055
42750W        W51350   9.265   5.796  12.132  0.0935  0.0568  0.0716
42751W        W51351   1.222   0.879   7.518 -0.0295 -0.1125  0.0827
42752W        W51352   8.702   0.181   1.574  0.2421  0.3337  0.0762
42753W        W51353   0.289   6.197   1.406  0.0533  0.3259 -0.3476
42754W        W51354  18.492   5.787   5.742  0.1481  0.0378 -0.0654
42755W        W51355  11.618   2.449  27.551  0.0257  0.4103  0.1007
42756W        W51356  20.719   1.585  28.126  0.0692 -0.2241  0.0653
42757W        W51357   1.098   6.012  24.794  0.1845 -0.1623  0.0520
42758W        W51358   2.655   7.769  12.744  0.1423 -0.2933 -0.0127
42759W        W51359   1.719   0.896  16.615  0.0947  0.1514  0.0480
42760W        W51360   5.624   2.175  17.473 -0.2083  0.1400 -0.1552
42761W        W51361   2.525   2.096  28.386  0.1751 -0.0955  0.2364
42762W        W51362   6.425   5.898   4.594  0.2166  0.0508 -0.2406
42763W        W51363  22.233   1.308   1.668 -0.0448 -0.1786  0.0626
42764W        W51364  24.914   5.903   8.057  0.3673  0.1185 -0.1251
42765W        W51365  20.696   0.398  29.551  0.0857  0.0513 -0.1452
42766W        W51366   1.283   4.574  13.193 -0.0081 -0.0372 -0.0219
42767W        W51367  23.943   6.135  29.693 -0.2164 -0.1616  0.0253
42768W        W51368   0.663   1.266  29.351 -0.1834 -0.0439  0.3176
42769W        W51369  12.217   4.064   6.902 -0.0938 -0.0288  0.1041
42770W        W51370  21.117   5.289   5.198  0.2733  0.1829  0.1903
42771W        W51371   1.959   0.787   2.247 -0.0341  0.2302 -0.0506
42772W        W51372  16.772   1.766  28.960  0.1208 -0.0058 -0.4739
42773W        W51373  16.986   3.453   9.337 -0.1637 -0.3254  0.1378
42774W        W51374  14.444   5.917  27.720  0.1358  0.0625 -0.4743
42775W        W51375  19.068   5.143   5.162  0.3461 -0.0484 -0.0111
42776W        W51376  15.600   0.957   1.527 -0.1682 -0.0655 -0.2427
42777W        W51377  11.951   0.599   1.562  0.3477 -0.1623 -0.0182
42778W        W51378  17.028   2.120   0.806 -0.0248 -0.1946 -0.0006
42779W        W51379  21.073   6.525   8.293 -0.1269  0.0443 -0.4212
42780W        W51380  11.078   7.677  26.371 -0.0881 -0.0890 -0.0427
42781W        W51381  16.091   7.025   9.804  0.3151  0.2489 -0.0304
42782W        W51382  21.895   7.600  29.519 -0.1321 -0.1574 -0.5190
42783W        W51383  18.845   5.988  22.764 -0.0096  0.1257 -0.2641
42784W        W51384  14.713   0.496   3.170  0.1349 -0.1629  0.3657
42785W        W51385   7.399   0.492  14.817  0.0101  0.1125 -0.0006
42786W        W51386   6.242   3.294  24.367  0.0932  0.0154 -0.4553
42787W        W51387  18.494   0.602  21.386 -0.1391  0.1679 -0.0124
42788W        W51388   1.680   0.826  13.312 -0.0501  0.0968  0.0848
42789W        W51389   7.623   2.474  22.470 -0.0449  0.3335  0.2415
42790W        W51390   0.835   1.826   6.236 -0.1055  0.3558 -0.0402
42791W        W51391  21.592   4.269  17.794  0.0214 -0.3124 -0.0226
42792W        W51392   9.330   1.344  24.703  0.1183  0.1250  0.0683
42793W        W51393   6.259   1.254  16.854  0.0900  0.0793 -0.2027
42794W        W51394  18.030   2.127   3.072  0.1274 -0.0467 -0.2544
42795W        W51395   8.984   0.508  26.397 -0.0573  0.1668 -0.0307
42796W        W51396  12.644   3.352  23.923 -0.1426 -0.2347  0.3649
42797W        W51397  20.386   1.095  32.820  0.4282  0.1184 -0.1368
42798W        W51398  24.670   1.686   8.737 -0.1837  0.0565 -0.4730
42799W        W51399  10.763   6.278  31.356  0.1747  0.0457 -0.1581
42800W        W51400  17.294   3.698  28.990  0.0902  0.0109  0.3116
42801W        W51401  11.497   0.592  29.701 -0.1449  0.1099 -0.0136
42802W        W51402   5.977   4.219  27.745 -0.1032 -0.2205  0.1096
42803W        W51403  24.764   3.937   3.042 -0.1939 -0.0686 -0.2031
42804W        W51404   9.834   6.549  26.457 -0.0457  0.3451  0.4367
42805W        W51405   2.298   1.222   2.426 -0.0092  0.2805  0.0892
42806W        W51406  11.109   1.323  22.665 -0.0494 -0.2426 -0.2397
42807W        W51407   3.502   0.083  14.389 -0.0012  0.0591  0.0365
42808W        W51408   2.189   2.565  31.924  0.3063 -0.5047 -0.0621
42809W        W51409  13.300   3.515  32.536 -0.0668 -0.4941 -0.1036
42810W        W51410  21.467   3.173  19.807 -0.0657 -0.0488  0.1236
42811W        W51411  20.094   2.942  18.692  0.1522 -0.0160  0.1033
42812W        W51412   7.037   0.384  23.975 -0.1471 -0.1092 -0.1914
42813W        W51413  19.632   1.609  29.645  0.0403  0.1486 -0.1775
42814W        W51414  13.605   2.067   7.220  0.1515 -0.1337 -0.2559
42815W        W51415   9.392   4.499  23.370  0.2072 -0.1391  0.2029
42816W        W51416  17.579   1.769  24.162 -0.1272  0.1156 -0.1635
42817W        W51417   1.367   5.122   7.470 -0.2416  0.0116  0.1159
42818W        W51418   5.734   5.318  23.026 -0.1126  0.3066  0.0174
42819W        W51419  13.365   0.446  18.278  0.0745 -0.0437  0.1410
42820W        W51420   2.914   0.002  29.223  0.1539 -0.0572 -0.1249
42821W        W51421  21.593   3.538  28.231  0.0238  0.0104 -0.1484
42822W        W51422  14.489   1.257  26.793  0.3052 -0.2667  0.2323
42823W        W51423   8.841   4.287   4.552  0.1193  0.3474  0.3313
42824W        W51424  19.659   6.001  32.164  0.0954 -0.0275 -0.0227
42825W        W51425   8.391   4.375   3.420  0.0828  0.3452  0.1054
42826W        W51426  11.247   1.464   6.299  0.0789  0.0530 -0.3913
42827W        W51427  16.808   6.490  22.761 -0.3504 -0.1272  0.2230
42828W        W51428  18.945   2.842  18.408  0.0339 -0.2036  0.0308
42829W        W51429  17.616   0.040  30.323 -0.0075 -0.2390  0.0297
42830W        W51430   5.652   2.956   8.808  0.1030  0.0384  0.2501
42831W        W51431  13.422   0.312  16.784 -0.0328 -0.2410  0.2301
42832W        W51432   8.434   7.450   3.515 -0.0236 -0.2449 -0.0453
42833W        W51433  13.854   0.715  30.091 -0.2225  0.3617  0.3066
42834W        W51434   0.616   7.596  24.436 -0.0069 -0.2346  0.0473
42835W        W51435   2.966   1.323   5.417  0.0799  0.0403  0.0600
42836W        W51436  20.169   7.186  10.313  0.1236 -0.0030 -0.0286
42837W        W51437   7.897   0.487  24.454 -0.0825  0.0080  0.0130
42838W        W51438   3.792   0.293   8.462  0.0950  0.1951 -0.0361
42839W        W51439  22.634   4.844  11.105 -0.1113  0.1926 -0.0680
42840W        W51440  11.878   0.534  27.646  0.2234 -0.3829  0.0165
42841W        W51441  17.088   5.890  23.579 -0.2165  0.1140  0.0696
42842W        W51442   5.870   4.669   0.406  0.0248 -0.0102  0.1885
42843W        W51443   1.004   3.533  10.339  0.2200 -0.0478 -0.4117
42844W        W51444  17.895   4.163  17.849  0.1890 -0.2485 -0.0874
42845W        W51445   7.147   1.110   3.706  0.1901 -0.2503 -0.0726
42846W        W51446  20.723   7.377   8.262  0.3448 -0.0335  0.2095
42847W        W51447  13.846   7.139  15.518 -0.0998 -0.1657 -0.0876
42848W        W51448  21.994   0.822   7.844 -0.0742 -0.1051  0.0565
42849W        W51449  21.845   1.495   5.135  0.1680  0.0898 -0.3992
42850W        W51450  14.033   5.015   9.799  0.0792  0.0518 -0.1429
42851W        W51451  13.091   0.035  18.620 -0.1481 -0.0874 -0.0302
42852W        W51452  19.548   6.484   4.784  0.2383  0.1433 -0.0460
42853W        W51453   4.967   0.044  28.002 -0.0570 -0.0648 -0.3818
42854W        W51454   3.733   1.333  23.165  0.3282 -0.2051  0.0063
42855W        W51455  19.100   6.348  10.665  0.2017 -0.0720 -0.0288
42856W        W51456  24.601   2.983  13.789 -0.2372  0.1095 -0.1056
42857W        W51457   6.861   5.776  22.158  0.1380  0.2668  0.0345
42858W        W51458  24.910   5.149  28.941 -0.1617 -0.0983 -0.2683
42859W        W51459   9.309   2.593   6.508 -0.2319  0.0104 -0.1137
42860W        W51460  12.061   1.217  20.523  0.3499 -0.1256 -0.0070
42861W        W51461  17.555   6.003   8.782  0.0621  0.0297  0.0867
42862W        W51462  21.405   0.501  31.790 -0.2540  0.2161 -0.0524
42863W        W51463   8.632   1.141   4.072 -0.0630 -0.4594  0.0012
42864W        W51464  20.306   0.730   5.526  0.3839 -0.1010  0.2164
42865W        W51465  19.422   0.450  20.384  0.4815 -0.0366 -0.1127
42866W        W51466  24.359   2.454   5.386 -0.0005 -0.1064  0.2450
42867W        W51467  21.916   2.650   2.786  0.1764  0.2262 -0.0383
42868W        W51468  11.071   1.012  26.700  0.1649 -0.1827 -0.0730
42869W        W51469  23.966   2.967   9.570 -0.0488 -0.1634  0.0066
42870W        W51470  24.535   3.903   5.436 -0.0398 -0.1420  0.1080
42871W        W51471  12.801   1.945   9.708 -0.3110 -0.1049  0.1126
42872W        W51472  18.081   3.325  29.665  0.1247 -0.3454  0.0106
42873W        W51473  17.763   5.766  25.839 -0.1284  0.3605 -0.0250
42874W        W51474  15.139   0.601   9.494 -0.2157 -0.0041  0.0362
42875W        W51475  20.676   0.093   9.936 -0.1091 -0.2934 -0.1646
42876W        W51476   8.985   4.242  13.830  0.4041 -0.0975  0.3714
42877W        W51477  12.208   4.775  10.851 -0.2009 -0.2717  0.0910
42878W        W51478  17.518   6.546  32.174  0.3462  0.0190 -0.0806
42879W        W51479  12.449   2.330  17.514  0.1381  0.2230  0.3458
42880W        W51480  19.124   5.873  16.954 -0.1831  0.0026  0.0729
42881W        W51481  11.344   7.618   8.903 -0.0064 -0.1578 -0.1119
42882W        W51482  18.930   5.381   5.658 -0.3217 -0.2296  0.1881
42883W        W51483  11.859   4.459   0.550 -0.0152 -0.2792  0.2528
42884W        W51484   6.041   2.419  10.208 -0.1264 -0.0111  0.0920
42885W        W51485  15.012   7.569  18.829 -0.0275 -0.0308  0.2479
42886W        W51486   4.998   6.382  13.876  0.0201  0.0149 -0.2982
42887W        W51487  14.109   4.009  31.232  0.1877 -0.1411 -0.1216
42888W        W51488   3.809   6.335   7.796  0.2659  0.4919  0.0117
42889W        W51489   6.997   2.275  24.403 -0.1040 -0.0305 -0.1098
42890W        W51490   8.486   1.069   1.150 -0.1295  0.0906 -0.0044
42891W        W51491   9.177   0.743   8.772  0.2684 -0.1535  0.3233
42892W        W51492   1.168   3.282  27.463  0.0542  0.1057 -0.4419
42893W        W51493  24.240   4.698  23.158  0.0302  0.1054  0.0717
42894W        W51494   2.457   1.206  29.357  0.1342 -0.2756  0.0567
42895W        W51495  11.184   6.145  24.078  0.3473  0.1073  0.1538
42896W        W51496   1.447   4.556   6.002 -0.1607 -0.4054  0.1925
42897W        W51497   7.428   3.517   9.633  0.0493  0.1998 -0.1393
42898W        W51498  23.159   2.858   9.564 -0.0042  0.0768 -0.2283
42899W        W51499  16.011   3.310   2.525  0.0989  0.2397 -0.2299
42900W        W51500  13.585   6.733  21.246  0.2306  0.0433 -0.2210
42901W        W51501  22.897   6.634  27.356  0.0165  0.1480 -0.1234
42902W        W51502  14.547   6.214   0.492 -0.1168 -0.1783 -0.1597
42903W        W51503  14.685   3.603   5.740 -0.3429  0.1986 -0.1188
42904W        W51504  24.294   7.756   1.830  0.4764 -0.1885  0.0619
42905W        W51505  20.402   1.685   4.131  0.1531  0.1666 -0.0662
42906W        W51506  16.428   6.026  32.769 -0.1127  0.2077 -0.0271
42907W        W51507   7.251   4.805   8.885 -0.0574 -0.0280  0.1301
42908W        W51508   1.168   0.747  32.488  0.0318  0.1218 -0.2318
42909W        W51509   3.087   5.019  29.698 -0.2859  0.1756 -0.1515
42910W        W51510  19.594   3.010   5.877  0.2139  0.0797  0.0619
42911W        W51511  24.959   3.173   8.160 -0.1152 -0.0029  0.0407
42912W        W51512  22.067   3.650  11.116 -0.0444 -0.1330 -0.2477
42913W        W51513  19.487   2.816  22.673  0.2155 -0.0307  0.1343
42914W        W51514   7.761   1.449  32.732  0.1021  0.1963  0.0444
42915W        W51515   0.030   1.246  10.864  0.0206 -0.4845  0.0565
42916W        W51516   7.815   3.705   5.797  0.0321 -0.0930 -0.0798
42917W        W51517  10.558   4.199  12.978  0.4786 -0.2126  0.2196
42918W        W51518   7.556   1.778   1.809 -0.1757 -0.0961  0.0652
42919W        W51519   0.104   4.725  25.621 -0.0836 -0.0197  0.1988
42920W        W51520  20.074   7.252  26.558 -0.0585 -0.1781 -0.1714
42921W        W51521   5.116   3.065   6.775  0.0977 -0.0684 -0.1125
42922W        W51522  23.657   1.779   3.650 -0.0001  0.1072  0.0817
42923W        W51523   2.750   4.662  11.430 -0.3351 -0.0081  0.1190
42924W        W51524   9.464   4.886  22.939 -0.2102 -0.0244  0.0852
42925W        W51525  24.427   1.555   3.588 -0.0604 -0.1395 -0.0034
42926W        W51526   4.923   3.522  12.044 -0.1673 -0.3684 -0.1678
42927W        W51527   3.521   2.618   7.811 -0.1132  0.3594 -0.1610
42928W        W51528   0.299   4.741   9.894  0.0595 -0.3925  0.0669
42929W        W51529  17.588   4.557   9.400 -0.2118 -0.0753  0.1091
42930W        W51530  13.554   0.956  15.539  0.5308  0.1228  0.0239
42931W        W51531  20.788   3.884   1.363  0.3384 -0.1338  0.0190
42932W        W51532  23.078   5.426  11.317  0.1549 -0.4105  0.0198
42933W        W51533  21.199   2.545  11.719  0.1071 -0.2537 -0.2148
42934W        W51534  12.741   4.923   7.864  0.0750  0.0352 -0.3583
42935W        W51535  23.945   6.077   3.705 -0.1019  0.1817  0.0948
42936W        W51536   5.605   5.757  12.706  0.3253 -0.0982  0.0141
42937W        W51537   9.264   6.545  12.192 -0.2210 -0.2029 -0.1265
42938W        W51538  13.384   0.359  28.624 -0.1245  0.0879 -0.1842
42939W        W51539  13.677   2.081  31.735 -0.2130  0.1799  0.3204
42940W        W51540   2.291   2.240   5.419 -0.0946 -0.1686  0.1811
42941W        W51541   2.338   2.241  27.925 -0.0701 -0.0090  0.1903
42942W        W51542  15.102   2.242   2.308 -0.1875  0.3393 -0.2016
42943W        W51543  20.696   3.688  25.687 -0.2366  0.1362  0.0846
42944W        W51544  21.192   4.328  28.988 -0.0593 -0.0690  0.0810
42945W        W51545   2.123   4.100  13.252  0.1217 -0.0711  0.3498
42946W        W51546  23.470   2.504  12.353  0.0811 -0.0920 -0.1423
42947W        W51547   8.386   2.009  32.404  0.4119 -0.0851  0.0722
42948W        W51548  24.437   6.063  11.913 -0.0444  0.0977  0.1805
42949W        W51549   2.729   2.427  11.327 -0.0748  0.1524  0.1063
42950W        W51550  24.821   5.584   8.729 -0.1621  0.4432  0.0910
42951W        W51551  22.062   3.962  25.554 -0.1496 -0.0463 -0.0988
42952W        W51552   0.755   5.650  12.282 -0.1215  0.0190 -0.4357
42953W        W51553   0.897   2.062  27.206 -0.3066 -0.2145  0.1794
42954W        W51554   6.731   2.993  31.457  0.0043  0.0096  0.2894
42955W        W51555  19.924   4.922  20.252  0.2437 -0.2947 -0.1799
42956W        W51556   8.077   6.767  13.119  0.0191 -0.1210  0.3140
42957W        W51557  24.044   0.497  24.439  0.2991 -0.0192 -0.3362
42958W        W51558  24.672   2.469  24.245  0.0681 -0.4650 -0.3744
42959W        W51559  11.206   5.668  23.892 -0.0222 -0.0756  0.0067
42960W        W51560  16.076   0.586  26.968 -0.3095  0.0637  0.1717
42961W        W51561  18.528   5.712  15.767 -0.0618 -0.1853  0.1899
42962W        W51562  24.538   0.572  11.535  0.0270  0.0448  0.3454
42963W        W51563  18.257   2.620   8.664  0.0221  0.3032  0.0381
42964W        W51564   6.167   7.373  27.322  0.2984 -0.1865 -0.0138
42965W        W51565  14.975   1.738   4.944  0.1126 -0.1483  0.0343
42966W        W51566   7.515   4.377  27.463  0.1223 -0.0293 -0.2887
42967W        W51567  19.816   5.001   0.070  0.0482 -0.3144  0.0795
42968W        W51568  13.191   2.867  20.046  0.1766 -0.0096 -0.0586
42969W        W51569  19.982   7.754  31.605  0.1595  0.1415  0.0375
42970W        W51570  20.158   6.651   7.460  0.0278  0.0739 -0.1053
42971W        W51571  16.426   6.642   4.663 -0.2597  0.3971  0.0822
42972W        W51572  12.221   1.631   4.994  0.0814 -0.1008 -0.0540
42973W        W51573   5.162   2.998  16.623  0.0919  0.0715  0.2436
42974W        W51574   6.950   7.396   1.744  0.0692 -0.1836 -0.2929
42975W        W51575   2.459   4.315   0.935  0.1999  0.0124  0.2800
42976W        W51576  23.351   6.809   8.429  0.1964 -0.2317 -0.0116
42977W        W51577  12.520   4.059  18.019  0.1931  0.1239 -0.2604
42978W        W51578  23.459   0.550  26.412 -0.0887  0.0688 -0.2153
42979W        W51579   2.186   0.075  12.003  0.1437  0.1025 -0.3348
42980W        W51580   5.384   1.262   9.954 -0.1930  0.0741 -0.3579
42981W        W51581  19.397   5.809  23.707 -0.0865 -0.0999 -0.1633
42982W        W51582   8.288   0.931   2.057  0.3878 -0.1442 -0.0086
42983W        W51583   7.369   2.870   2.679 -0.2885 -0.1322 -0.0386
42984W        W51584  17.457   3.045  25.874  0.1675 -0.2441 -0.1913
42985W        W51585   4.043   4.266  29.976 -0.2139  0.2352  0.2235
42986W        W51586   8.730   2.314  32.204  0.4207  0.1259  0.3026
42987W        W51587   0.870   2.141   0.072 -0.0193  0.2821  0.1005
42988W        W51588   4.390   2.979   0.092 -0.2456  0.1403 -0.0083
42989W        W51589  11.338   6.334  23.101  0.1708 -0.1431  0.0049
42990W        W51590   4.219   1.378  28.582 -0.0934  0.0076  0.3118
42991W        W51591  15.400   1.988  23.111 -0.1689 -0.1110  0.1434
42992W        W51592  10.649   4.204  28.282 -0.1892  0.0542 -0.0316
42993W        W51593  23.225   2.367  31.176  0.0419  0.0702 -0.1130
42994W        W51594   5.703   3.627  29.753 -0.2285  0.1922 -0.1403
42995W        W51595  17.566   5.068  23.391  0.0739 -0.1167 -0.1078
42996W        W51596   5.951   6.622  30.734 -0.4177  0.1067  0.0069
42997W        W51597  19.435   0.505  27.153  0.1698  0.1325 -0.0126
42998W        W51598  18.242   1.305  25.452  0.0374 -0.1977  0.1657
42999W        W51599  18.044   5.617  23.030  0.2491  0.0050 -0.1399
43000W        W51600   4.244   5.617  16.368 -0.0368 -0.1473 -0.0215
43001W        W51601   8.820   4.213  23.908 -0.0786 -0.1314  0.2291
43002W        W51602  20.672   3.111   2.887  0.0203  0.2923  0.2553
43003W        W51603   8.184   0.676  25.387 -0.0213 -0.3085 -0.0014
43004W        W51604  12.984   6.520  27.057 -0.0998 -0.0613  0.2127
43005W        W51605  24.360   6.644  31.629 -0.0055 -0.1132 -0.1932
43006W        W51606  23.847   1.790  25.623 -0.4406  0.0795  0.4358
43007W        W51607   1.262   1.576  13.020  0.0001 -0.0913 -0.0173
43008W        W51608  20.404   2.343  24.535  0.1092  0.3949 -0.2935
43009W        W51609   3.992   1.741  23.135 -0.0684 -0.0157 -0.0584
43010W        W51610   5.182   7.237   5.373  0.0090  0.1950  0.1390
43011W        W51611  18.616   6.518   9.532  0.3859 -0.0790 -0.0204
43012W        W51612   8.222   6.575   9.710 -0.0454 -0.5673 -0.1453
43013W        W51613   6.571   6.996  29.027  0.0714 -0.3119  0.1294
43014W        W51614   7.342   2.046  31.831  0.0735  0.2174  0.2273
43015W        W51615  13.190   4.354  31.258  0.0351  0.1126 -0.4123
43016W        W51616  11.807   3.689  25.482  0.0809  0.1907 -0.1024
43017W        W51617   5.187   7.085  30.627  0.2658 -0.1622  0.1368
43018W        W51618   7.858   3.340   0.686 -0.3055  0.2735 -0.4700
43019W        W51619   1.522   7.355  16.955  0.1765 -0.0888 -0.4487
43020W        W51620   1.844   2.715  17.765  0.1756 -0.1424 -0.1263
43021W        W51621  13.853   0.923  21.270  0.1139  0.1907  0.0365
43022W        W51622  18.280   3.846  22.900 -0.0423  0.0948 -0.0762
43023W        W51623  15.989   2.443   1.924  0.0575 -0.0802  0.2264
43024W        W51624   4.575   4.757  27.340  0.1625 -0.1341 -0.3690
43025W        W51625  11.752   0.985  27.545 -0.0484 -0.1592 -0.1596
43026W        W51626  13.747   3.795   0.473  0.0870 -0.1159  0.2249
43027W        W51627  15.551   3.559   6.355  0.1225  0.2371  0.2568
43028W        W51628  19.900   6.174  29.986 -0.0739  0.1066  0.3036
43029W        W51629   2.709   7.104   4.847 -0.2147  0.0816  0.2824
43030W        W51630   5.730   6.209  30.356 -0.0950 -0.0321  0.0438
43031W        W51631   1.591   2.683   0.122 -0.0671 -0.1397 -0.1410
43032W        W51632   5.983   4.573  23.435 -0.0928  0.0253  0.4425
43033W        W51633   6.865   5.662  30.912  0.4353  0.1015 -0.0706
43034W        W51634   3.994   7.404  23.198 -0.0184  0.0650 -0.0593
43035W        W51635   4.563   3.458   7.390  0.1721  0.3796 -0.1157
43036W        W51636   8.716   3.331  11.744  0.0522  0.0567  0.1185
43037W        W51637   3.903   7.516  17.042  0.0909  0.1842 -0.1110
43038W        W51638  17.932   0.799   1.771 -0.0926 -0.2180 -0.0215
43039W        W51639  12.368   4.696  27.430  0.2894  0.0959  0.1888
43040W        W51640  14.145   4.619  10.313  0.2064 -0.1029  0.2006
43041W        W51641  12.487   5.515  28.269  0.1303 -0.0358  0.3097
43042W        W51642   3.977   3.562   7.623  0.1974  0.0567 -0.0605
43043W        W51643  13.139   0.924   6.809 -0.0852  0.3089 -0.2024
43044W        W51644  10.827   1.856  26.951 -0.2304  0.2027  0.0542
43045W        W51645  17.815   6.825  17.022  0.0469 -0.1820 -0.2062
43046W        W51646  10.409   0.809   6.271 -0.0180 -0.1465 -0.1031
43047W        W51647  10.498   5.667   3.993  0.5514 -0.2231 -0.1775
43048W        W51648  20.219   3.326  21.253 -0.1309 -0.3094 -0.3083
43049W        W51649   7.099   4.870  23.850 -0.2054  0.0295 -0.2128
43050W        W51650   9.372   1.282   9.643  0.2845 -0.2533  0.1005
43051W        W51651  22.708   3.494  32.904  0.4159 -0.0065 -0.1601
43052W        W51652  21.679   5.589  20.908  0.0683 -0.3277 -0.4613
43053W        W51653   1.512   2.917  13.573  0.1609 -0.0250  0.0076
43054W        W51654  23.627   2.106   3.120  0.0045  0.0701 -0.1786
43055W        W51655  13.391   0.478  32.847 -0.1173 -0.0966  0.2169
43056W        W51656   5.821   7.691   7.377 -0.1457 -0.0653 -0.2156
43057W        W51657   5.249   0.766  12.529 -0.1975  0.2321  0.1589
43058W        W51658   7.361   0.402  11.322  0.1820 -0.1114 -0.0528
43059W        W51659  20.672   1.930   8.722  0.1192 -0.1626  0.1723
43060W        W51660   0.861   4.192   0.433  0.3428  0.0761 -0.1256
43061W        W51661   1.955   0.808   0.122 -0.1492  0.1660 -0.0172
43062W        W51662  13.299   4.129  10.499 -0.2047  0.0453 -0.0595
43063W        W51663   3.599   5.703  27.417 -0.1695  0.0950 -0.2299
43064W        W51664  10.262   4.951  32.801  0.3351  0.0871  0.0483
43065W        W51665   6.379   2.364  30.120  0.2008  0.1800 -0.1831
43066W        W51666   6.956   3.212  31.035  0.0854 -0.2900 -0.0415
43067W        W51667  24.816   1.578  21.810 -0.3966  0.0335  0.0229
43068W        W51668  22.775   4.730  21.878 -0.1142  0.2914 -0.0468
43069W        W51669   5.453   6.784  26.524 -0.1266 -0.2380  0.1128
43070W        W51670  24.316   2.431   8.069 -0.1385 -0.2420 -0.2205
43071W        W51671  17.553   6.060   7.106 -0.1706  0.5040 -0.2493
43072W        W51672  14.979   6.655  31.654 -0.0550  0.1294 -0.2332
43073W        W51673   8.489   5.108   0.671 -0.0328  0.0840 -0.1249
43074W        W51674  16.485   4.148   3.700 -0.1731 -0.1979  0.0217
43075W        W51675  15.827   6.131  19.688  0.1316 -0.1280  0.2677
43076W        W51676  22.324   5.745   8.285  0.0380 -0.0697 -0.1736
43077W        W51677   1.023   2.588  29.917  0.0551 -0.2028 -0.0902
43078W        W51678  15.109   5.170  23.166 -0.0951  0.1280 -0.1425
43079W        W51679  16.375   7.221   4.010  0.0431  0.0391 -0.0398
43080W        W51680  16.233   3.515  23.277 -0.0542 -0.1303  0.1449
43081W        W51681  23.997   2.343   4.141 -0.3547 -0.1424 -0.5452
43082W        W51682  17.399   1.187  21.441  0.0713  0.2364  0.1243
43083W        W51683   6.258   6.953   8.119 -0.0792 -0.2495 -0.0615
43084W        W51684   2.992   5.094  15.654  0.1997  0.0832 -0.0643
43085W        W51685  24.812   0.988   4.616  0.1724  0.1906  0.2579
43086W        W51686  23.426   7.678  32.686  0.0270  0.0127 -0.0700
43087W        W51687  11.416   5.963   8.642 -0.1140 -0.1091  0.1916
43088W        W51688  21.975   2.778   8.455  0.1109 -0.1760  0.2337
43089W        W51689  10.384   5.284  26.986 -0.1102  0.0066 -0.0844
43090W        W51690  23.171   3.182   4.334 -0.0394  0.1589 -0.2385
43091W        W51691  17.760   3.418   1.581 -0.2318 -0.0344  0.0223
43092W        W51692  10.449   0.366  26.557 -0.2608  0.0041  0.0344
43093W        W51693  15.961   5.004   2.865 -0.2442 -0.1379 -0.1019
43094W        W51694  13.835   2.211  28.760  0.2240  0.0020  0.1801
43095W        W51695   4.146   2.777   8.888  0.0136  0.0152 -0.1572
43096W        W51696  17.497   7.504   6.881  0.2982 -0.1430  0.3288
43097W        W51697  16.809   3.380  10.284  0.1510 -0.2043  0.1493
43098W        W51698  22.808   6.137  23.293 -0.1291 -0.0353  0.1109
43099W        W51699  22.402   3.462  30.324 -0.2890 -0.2186 -0.3043
43100W        W51700   5.968   6.405  15.775  0.0794 -0.5050 -0.1534
43101W        W51701   8.334   1.710  27.974  0.2044 -0.1517  0.0478
43102W        W51702   3.674   1.671  27.514 -0.0989 -0.1939 -0.1339
43103W        W51703  14.585   0.691  20.823  0.2842  0.0808 -0.0599
43104W        W51704   7.067   4.623  10.980 -0.2703 -0.0909 -0.0839
43105W        W51705   8.494   4.818  25.370  0.1156  0.1899  0.1734
43106W        W51706   5.663   1.508  26.583  0.0325  0.2136  0.0152
43107W        W51707  15.449   3.520  17.452 -0.3574  0.0531 -0.1816
43108W        W51708   9.824   6.586   6.052 -0.1996 -0.2566 -0.1687
43109W        W51709   2.999   2.938  28.270 -0.0918  0.2368 -0.1865
43110W        W51710   4.613   2.868  14.561 -0.0759 -0.1424  0.1656
43111W        W51711  23.689   7.670  29.767  0.0828  0.0276  0.0748
43112W        W51712  14.646   3.652  23.662 -0.1975 -0.2712 -0.1233
43113W        W51713   4.853   5.257   5.948  0.1072  0.1510  0.2836
43114W        W51714  13.364   4.947   4.627  0.1149  0.0111 -0.0822
43115W        W51715  14.669   3.829  30.375  0.0347 -0.1485  0.2302
43116W        W51716  11.610   3.216   5.589 -0.0363  0.1508 -0.0126
43117W        W51717   2.093   0.909   0.708  0.2945 -0.2566  0.1869
43118W        W51718  19.340   6.414   4.326 -0.1054 -0.1594 -0.1520
43119W        W51719  14.661   3.973  15.792  0.0630 -0.3225  0.2125
43120W        W51720   8.585   6.948   5.612 -0.0319  0.0278  0.0985
43121W        W51721  24.069   2.153   1.182 -0.1214  0.0118  0.0346
43122W        W51722  10.440   3.844  12.291  0.4626 -0.0654 -0.0672
43123W        W51723   3.733   1.396  26.490 -0.1072  0.0093  0.0066
43124W        W51724  11.706   5.481  30.028  0.2557  0.0636  0.2335
43125W        W51725  10.305   0.303  21.867  0.1741 -0.0726  0.0527
43126W        W51726  23.235   1.847  27.347 -0.0137 -0.1772 -0.0854
43127W        W51727   4.884   0.748   6.739 -0.2274  0.0384 -0.0365
43128W        W51728  12.822   1.537  24.987 -0.0412 -0.0794  0.0744
43129W        W51729   6.312   3.772   6.566  0.1105  0.1202  0.1332
43130W        W51730   9.739   2.638  31.601  0.0762  0.2581 -0.3743
43131W        W51731  17.745   6.834  29.255  0.1181  0.0145 -0.1961
43132W        W51732  16.440   6.226   4.925 -0.1102  0.0956  0.2035
43133W        W51733   9.659   1.417  13.054 -0.0033 -0.2566 -0.0375
43134W        W51734  10.287   5.482   0.208 -0.0716 -0.1803 -0.0985
43135W        W51735   5.768   5.530   8.999 -0.2609 -0.0801 -0.0497
43136W        W51736  19.493   7.127   9.994 -0.3733  0.0918  0.0594
43137W        W51737  11.576   6.892  29.756 -0.0554  0.1375  0.1986
43138W        W51738  22.733   1.296   2.589  0.2461 -0.0454 -0.0345
43139W        W51739  16.464   3.084   1.319  0.2027  0.0207 -0.1016
43140W        W51740   6.801   4.926   3.219  0.0859  0.0282  0.3666
43141W        W51741  24.504   5.195  22.890  0.0327 -0.2492  0.0668
43142W        W51742   6.715   1.704  30.893 -0.0501  0.2449 -0.0974
43143W        W51743   6.918   0.320  10.196  0.1357  0.0957 -0.2567
43144W        W51744  16.983   6.819   5.343 -0.0229  0.1194 -0.0125
43145W        W51745  16.703   1.299   1.207 -0.0962  0.0552  0.0845
43146W        W51746   6.695   0.944   7.557 -0.1317 -0.4262  0.0938
43147W        W51747   0.096   3.677   8.450  0.0220  0.1920 -0.0701
43148W        W51748  15.191   5.237  29.056  0.3458 -0.2709  0.3065
43149W        W51749  16.695   7.062   7.964  0.0020  0.4744 -0.0025
43150W        W51750  16.337   2.134  29.437 -0.2925  0.5488 -0.0942
43151W        W51751  22.506   3.968  12.914  0.0652  0.1099 -0.1688
43152W        W51752   1.752   7.544  13.092 -0.0345 -0.0767  0.0063
43153W        W51753   7.815   0.491   1.495 -0.0791  0.0122 -0.2495
43154W        W51754  20.206   0.637  29.259  0.0132 -0.1683  0.1772
43155W        W51755  15.306   4.121   0.105 -0.0184  0.1669 -0.0654
43156W        W51756  11.729   5.232  27.629  0.2391 -0.0562 -0.0777
43157W        W51757  15.563   1.103  18.274  0.2299  0.0786 -0.2097
43158W        W51758   8.643   0.758  23.692 -0.1221  0.0104  0.0785
43159W        W51759   3.069   7.232  26.222 -0.1053  0.1279 -0.2651
43160W        W51760  19.122   1.612  32.833  0.0713 -0.1180 -0.0923
43161W        W51761  18.313   1.431  22.161 -0.0107 -0.1246  0.2549
43162W        W51762  18.611   5.213  32.382  0.0935  0.0783  0.1435
43163W        W51763  23.744   7.002  22.120 -0.1201  0.0822 -0.0350
43164W        W51764  11.572   0.822  20.233 -0.0251  0.0970  0.2027
43165W        W51765  17.277   2.803  17.981  0.2388 -0.0462  0.0808
43166W        W51766  23.808   7.770   0.765  0.0781  0.2407 -0.2572
43167W        W51767   1.211   2.532  10.022  0.0642  0.1583 -0.0084
43168W        W51768  15.534   6.662   2.715  0.1421  0.1371 -0.3141
43169W        W51769   9.715   4.466  24.250  0.0435 -0.0820  0.0744
43170W        W51770   2.819   1.091  15.043 -0.0772  0.1660 -0.0339
43171W        W51771   7.315   6.224  15.716  0.3152  0.1585  0.1148
43172W        W51772  22.444   3.086   0.009 -0.1565 -0.0917 -0.0148
43173W        W51773   1.564   1.805  23.773 -0.0080  0.1542  0.0323
43174W        W51774  14.388   1.085   0.579  0.0248  0.1740 -0.0017
43175W        W51775  17.864   6.943  27.118 -0.0752 -0.0179  0.0559
43176W        W51776  18.359   3.945  31.773 -0.1004 -0.1285 -0.0825
43177W        W51777  20.064   5.998  10.929  0.2620 -0.1236  0.3468
43178W        W51778  16.410   4.736  22.895  0.3939 -0.0379  0.0594
43179W        W51779  14.708   7.492   5.636  0.2069 -0.0187  0.0244
43180W        W51780  16.251   7.746  28.178 -0.0324 -0.3486 -0.1587
43181W        W51781   8.553   7.156  25.681 -0.0926  0.0822 -0.0962
43182W        W51782  17.268   3.547  26.896 -0.1607  0.1800  0.0804
43183W        W51783   5.080   2.543   9.034  0.1771 -0.0561 -0.1424
43184W        W51784   3.953   5.471  12.784  0.0710 -0.0312 -0.4012
43185W        W51785   8.791   7.327  25.211 -0.2010 -0.0215  0.0449
43186W        W51786   7.360   1.471   9.559  0.0375  0.0975  0.2192
43187W        W51787  16.681   5.712  18.128  0.2477  0.1934 -0.0874
43188W        W51788   5.941   0.198  31.535  0.0642  0.1872 -0.1194
43189W        W51789  20.141   2.075   8.702 -0.1275  0.2151 -0.0387
43190W        W51790  23.339   2.051  14.453 -0.0601  0.0153  0.0037
43191W        W51791   4.702   0.858  15.898 -0.1705  0.1989 -0.1798
43192W        W51792   2.485   3.273  18.206  0.1242  0.0438 -0.0833
43193W        W51793   7.020   6.199  28.785  0.1817  0.1767  0.1780
43194W        W51794  13.476   6.150  26.233 -0.1023 -0.0092  0.1120
43195W        W51795  17.649   1.802  30.166  0.0185 -0.0977 -0.0202
43196W        W51796   8.516   2.056  26.295  0.1577  0.3416 -0.1637
43197W        W51797   2.986   5.134  22.753 -0.3547 -0.1126 -0.0104
43198W        W51798  21.825   0.738  11.841 -0.0346  0.0317 -0.0464
43199W        W51799   4.783   2.302  23.285  0.0683 -0.1468  0.2115
43200W        W51800  11.627   1.659   7.605 -0.0208  0.3576 -0.3211
43201W        W51801  23.368   1.983   9.079  0.2219  0.0137  0.1937
43202W        W51802  20.694   6.531  31.106  0.0320  0.1164  0.4456
43203W        W51803   0.841   1.767  12.141  0.1035 -0.3070 -0.0473
43204W        W51804  13.497   2.955  25.022  0.0885  0.1468  0.1184
43205W        W51805   9.628   7.097  11.430  0.1848 -0.1750  0.3767
43206W        W51806  11.597   2.415   9.323  0.0172  0.3343  0.0402
43207W        W51807   8.287   0.996  11.368  0.1740  0.1655 -0.2946
43208W        W51808   7.261   1.318  24.231  0.1835 -0.0526  0.1457
43209W        W51809  13.040   5.941  27.857 -0.0958  0.0430 -0.0362
43210W        W51810  17.717   5.423  17.213  0.2754  0.2520  0.2723
43211W        W51811  22.707   4.224   5.705 -0.0886  0.2739 -0.0567
43212W        W51812  13.831   6.974   2.101  0.0285 -0.0988  0.0592
43213W        W51813  14.505   7.458  29.259  0.0843  0.1851 -0.2551
43214W        W51814  11.195   3.006  23.966 -0.0372 -0.0378 -0.0454
43215W        W51815  13.375   5.338  24.677 -0.3335  0.0863  0.0433
43216W        W51816   6.942   4.306   4.804 -0.0474 -0.2087  0.0069
43217W        W51817  10.516   1.877   2.369  0.0493 -0.0145  0.2193
43218W        W51818  11.773   3.201  25.868 -0.0924 -0.1117  0.1983
43219W        W51819  14.755   3.970   0.930  0.0182 -0.0217  0.0691
43220W        W51820  22.018   4.347  30.914 -0.0220  0.0085 -0.1950
43221W        W51821   6.566   3.629   8.201 -0.3422 -0.1156 -0.1767
43222W        W51822  21.746   5.441  22.320 -0.1869  0.1790 -0.0024
43223W        W51823  19.164   6.919   0.367 -0.0421  0.0585 -0.2457
43224W        W51824  24.020   7.513   0.339 -0.1670  0.0817 -0.1298
43225W        W51825  18.107   7.069  32.131 -0.3384  0.2040 -0.2672
43226W        W51826   1.768   1.964   2.590  0.2680 -0.1876 -0.0589
43227W        W51827   8.428   0.402  32.114 -0.1329  0.6344  0.2579
43228W        W51828  16.696   3.495  25.852  0.0889  0.2594  0.0823
43229W        W51829   4.981   1.162  24.496  0.0268  0.1098 -0.2774
43230W        W51830   6.887   3.286   1.560 -0.0267 -0.0899 -0.0191
43231W        W51831  12.938   0.256   5.312 -0.0259  0.1264 -0.1091
43232W        W51832   6.072   0.556   9.777 -0.3484  0.0856 -0.0681
43233W        W51833  10.149   3.994   8.103  0.1574  0.1810 -0.2460
43234W        W51834  11.131   2.997  18.626  0.2048  0.1657 -0.0677
43235W        W51835  13.646   7.540  22.559  0.1611  0.0876 -0.2244
43236W        W51836  22.274   2.521   5.796 -0.3524 -0.1333 -0.3227
43237W        W51837   9.915   7.543  24.142  0.0499  0.0741 -0.0359
43238W        W51838  19.834   5.872   0.301  0.1538 -0.1146 -0.1417
43239W        W51839   5.243   4.166  27.170  0.1311 -0.0854  0.2365
43240W        W51840   7.590   6.704  26.309 -0.0338 -0.1086  0.3214
43241W        W51841   6.648   0.220  26.133  0.1768 -0.0739  0.5488
43242W        W51842   9.638   5.788  30.089  0.0108 -0.0486  0.1179
43243W        W51843  21.236   0.358  21.976  0.2610 -0.0804 -0.1192
43244W        W51844  14.295   7.001  23.647 -0.1894  0.2523 -0.2153
43245W        W51845  15.475   7.133  26.894 -0.0275 -0.0040  0.0485
43246W        W51846   7.586   1.762  30.945  0.2171  0.1807  0.0223
43247W        W51847  15.876   7.037  17.727 -0.1964 -0.1494 -0.0008
43248W        W51848   3.052   7.591  31.485 -0.0506  0.1403  0.1149
43249W        W51849  15.378   3.917   3.428  0.2845  0.0415 -0.2696
43250W        W51850  23.876   1.490  20.075  0.1484  0.0291 -0.0486
43251W        W51851  11.427   2.748  30.808 -0.1365 -0.0948  0.1196
43252W        W51852   9.672   4.090  10.200 -0.5767 -0.0813  0.1416
43253W        W51853   3.573   1.242  30.059 -0.1511 -0.1123  0.1585
43254W        W51854  15.809   3.980   1.488 -0.1426  0.0880 -0.1314
43255W        W51855   0.831   4.330  23.762  0.0771  0.3467 -0.0344
43256W        W51856  17.895   5.609  20.107  0.3860 -0.0363 -0.0273
43257W        W51857   8.875   3.333  20.876 -0.1188  0.1286 -0.0431
43258W        W51858  23.739   5.956  15.226 -0.3533 -0.0698  0.1777
43259W        W51859  12.803   2.190   5.674 -0.2752 -0.1346  0.1090
43260W        W51860  24.450   7.107   4.540  0.0648 -0.1252 -0.2602
43261W        W51861  14.021   2.283   7.066 -0.0123 -0.1167 -0.1653
43262W        W51862  14.185   0.078  10.035  0.0599  0.0832 -0.0185
43263W        W51863   9.583   4.202   2.195 -0.3595  0.0330  0.1304
43264W        W51864   9.979   4.878  13.104  0.0600  0.0531  0.3859
43265W        W51865  22.859   5.011  13.399  0.1397  0.1796  0.3273
43266W        W51866  23.125   2.580   9.143  0.1246  0.2226  0.1724
43267W        W51867  17.479   2.117   1.006  0.0569  0.2267  0.0189
43268W        W51868   5.172   6.418   2.033 -0.1404  0.0237  0.2669
43269W        W51869   9.172   4.920   1.901 -0.1085  0.1418  0.0287
43270W        W51870  23.158   2.605  25.544  0.2198 -0.0362  0.1417
43271W        W51871  22.657   4.284   0.627 -0.0519  0.2097 -0.2751
43272W        W51872  24.572   0.624  23.765 -0.1842 -0.1025  0.2224
43273W        W51873   3.985   6.957  11.675  0.4873 -0.3105  0.3079
43274W        W51874  16.817   4.885  22.687 -0.0876  0.2853  0.1317
43275W        W51875  18.530   6.675  26.744 -0.1455 -0.3015  0.2946
43276W        W51876  18.607   1.004  25.644 -0.0034  0.0750 -0.0606
43277W        W51877  20.947   3.484   3.064 -0.0967  0.2135 -0.0068
43278W        W51878  20.484   2.628  24.080 -0.2270  0.0343 -0.4029
43279W        W51879   2.924   7.129   5.306 -0.0362 -0.1149 -0.1120
43280W        W51880   0.540   1.978  28.120 -0.0075  0.3521 -0.2154
43281W        W51881  12.858   2.313   6.252  0.0636  0.1442 -0.0692
43282W        W51882  21.467   5.304   3.949  0.0492 -0.0665 -0.0059
43283W        W51883  24.102   4.755   4.913 -0.2880 -0.1368  0.0664
43284W        W51884  22.124   0.543  32.900 -0.1342 -0.1950  0.5067
43285W        W51885  23.937   0.089  10.272 -0.0096  0.1831 -0.0595
43286W        W51886   4.430   5.246  28.559  0.0550  0.3458 -0.2226
43287W        W51887  19.996   6.528   3.837  0.0011  0.0598  0.1177
43288W        W51888   6.559   6.096  26.849 -0.2033  0.2084 -0.1427
43289W        W51889  15.964   1.967  31.490  0.0031  0.0573 -0.1104
43290W        W51890   0.506   6.788   4.630 -0.0845  0.2994  0.0947
43291W        W51891   8.777   1.545   7.329  0.0320 -0.0011  0.0522
43292W        W51892   8.006   6.454  27.947  0.0397 -0.0107 -0.3655
43293W        W51893  14.278   3.547  30.108  0.1993  0.0542  0.1161
43294W        W51894   2.318   1.601   7.786  0.0743  0.1505 -0.3500
43295W        W51895   9.072   5.784   3.047 -0.0835 -0.1497  0.0324
43296W        W51896   6.713   7.389  22.915 -0.2081  0.0612  0.0378
43297W        W51897   8.475   4.776  22.548  0.0698 -0.0087 -0.0344
43298W        W51898  19.928   5.693  30.143  0.1081  0.0244  0.0867
43299W        W51899   4.281   7.173   8.177  0.2317 -0.0013 -0.1732
43300W        W51900  22.093   7.239   0.834 -0.1108 -0.1076 -0.2731
43301W        W51901  21.870   1.067  28.851  0.1207 -0.0454 -0.1382
43302W        W51902  14.354   6.503  28.409 -0.2013  0.1974 -0.1047
43303W        W51903   9.874   5.143  23.032  0.0040  0.2204 -0.0639
43304W        W51904  21.285   0.233  19.754  0.0425 -0.0639  0.0169
43305W        W51905   7.146   2.608  23.129 -0.3205  0.2837  0.0949
43306W        W51906   4.825   2.575  30.311  0.1000 -0.1004  0.0964
43307W        W51907  18.110   3.131   8.292  0.1315 -0.2250  0.0675
43308W        W51908  18.996   2.320  17.013  0.2517  0.1659  0.0981
43309W        W51909   2.221   1.109   1.154 -0.2271  0.1291  0.3889
43310W        W51910   6.316   7.677  28.002 -0.1820 -0.2706 -0.1349
43311W        W51911   4.620   4.519  23.253 -0.0572 -0.1077  0.1795
43312W        W51912  23.099   6.640   6.918 -0.2234  0.0892 -0.0432
43313W        W51913   4.418   0.271   4.139  0.1354 -0.0003 -0.0436
43314W        W51914   3.499   0.095  24.575 -0.2281  0.0466  0.0819
43315W        W51915  14.042   4.101  17.854  0.1849 -0.2112  0.0142
43316W        W51916   2.609   7.032  14.551  0.1434 -0.1381  0.3194
43317W        W51917   7.356   5.742  27.926 -0.2320  0.1771 -0.2077
43318W        W51918  11.075   2.409  10.473  0.2523 -0.0053  0.1443
43319W        W51919   5.617   5.101  17.846  0.1500 -0.0783 -0.1293
43320W        W51920   1.737   1.507  28.910 -0.0195 -0.3164  0.0016
43321W        W51921  13.370   1.868   1.888 -0.2354 -0.2721 -0.1396
43322W        W51922  12.568   5.074  11.765 -0.2011  0.0478 -0.0333
43323W        W51923  12.748   0.993  27.283  0.0013 -0.1454  0.0546
43324W        W51924   5.243   4.427  17.453  0.0485 -0.0736 -0.0631
43325W        W51925  20.561   4.094   8.485 -0.0968  0.0540 -0.0923
43326W        W51926  13.316   5.984  10.762  0.2275 -0.1774  0.0064
43327W        W51927  23.391   6.537   3.313  0.0999  0.0716 -0.0619
43328W        W51928   8.745   4.675   2.043 -0.1678 -0.3436 -0.2083
43329W        W51929   4.320   1.321  29.552 -0.1791  0.3296  0.0008
43330W        W51930  11.407   2.072  26.989  0.0958 -0.1956 -0.2151
43331W        W51931  11.154   1.039   8.109 -0.1431  0.1112  0.0544
43332W        W51932   4.231   1.253   4.035 -0.4427  0.0316  0.2866
43333W        W51933   8.687   6.898  29.135 -0.1086  0.1835  0.0318
43334W        W51934  18.742   6.955  19.582 -0.0563  0.2413 -0.1693
43335W        W51935   9.386   3.461  28.440  0.1491 -0.0293 -0.3483
43336W        W51936  10.300   6.724  32.223  0.0353 -0.1801  0.1001
43337W        W51937   8.512   4.813  30.698  0.0152  0.1470 -0.1210
43338W        W51938  15.014   4.795  22.862 -0.3303 -0.1303 -0.0193
43339W        W51939  14.328   0.954   9.093 -0.0767  0.1647  0.1389
43340W        W51940   9.913   6.258   4.342 -0.2616 -0.0058  0.0290
43341W        W51941  11.259   1.244  11.311  0.0650  0.0031 -0.0766
43342W        W51942  14.507   0.292  26.390  0.1310  0.1220  0.1030
43343W        W51943  24.824   4.679  26.047 -0.0932 -0.2483  0.1107
43344W        W51944   6.654   5.907  31.357 -0.2832 -0.0666 -0.0565
43345W        W51945  12.795   2.496  19.793  0.1222  0.1342  0.0219
43346W        W51946  24.606   3.264  25.369 -0.0761 -0.0349  0.1894
43347W        W51947   3.164   1.983   9.610 -0.2041 -0.1093  0.2373
43348W        W51948  16.663   2.176  23.153 -0.3323 -0.0136  0.0240
43349W        W51949  14.562   6.332  31.509  0.1001  0.1709  0.1562
43350W        W51950  20.425   7.608   5.389 -0.0495  0.1737  0.4560
43351W        W51951   7.012   7.063  25.658  0.0173 -0.0010 -0.4181
43352W        W51952   9.957   5.489  32.093  0.1835 -0.1149  0.0059
43353W        W51953   1.683   5.920  24.838 -0.2237  0.0418  0.1467
43354W        W51954   7.929   4.908   5.576  0.0886 -0.1773 -0.2864
43355W        W51955  22.008   6.057  28.271 -0.0043 -0.0965  0.4421
43356W        W51956  20.481   4.913  27.782  0.1378 -0.1803  0.2092
43357W        W51957  18.468   7.122  30.616 -0.0833  0.0820  0.1901
43358W        W51958  22.509   1.569  12.248  0.0352 -0.0585  0.0320
43359W        W51959   3.343   2.635  23.521  0.0098 -0.2523  0.2931
43360W        W51960  14.225   5.838   1.460 -0.2735 -0.2196  0.0256
43361W        W51961   9.097   4.685   5.377 -0.2684  0.0576  0.1027
43362W        W51962  19.738   6.693  32.790  0.1124 -0.1667  0.0241
43363W        W51963   3.665   3.760  11.784  0.0377 -0.1397 -0.3114
43364W        W51964  16.795   0.740  19.392 -0.0702 -0.1415 -0.0124
43365W        W51965  19.995   0.508  19.799 -0.1831  0.2331 -0.3086
43366W        W51966  20.066   5.384   0.345  0.0608  0.0293 -0.0985
43367W        W51967  24.779   0.943   1.922  0.1693 -0.0540  0.1314
43368W        W51968  16.708   6.003  28.245 -0.0909  0.1749  0.2016
43369W        W51969  21.675   3.022  20.920 -0.1697  0.0475  0.1624
43370W        W51970  21.646   0.715   0.712 -0.1829 -0.0822 -0.0779
43371W        W51971  20.599   4.898  27.235 -0.1116 -0.5458  0.1461
43372W        W51972   3.689   7.206  28.000 -0.3067  0.4694  0.1411
43373W        W51973  15.483   6.686  24.950 -0.2845  0.0538 -0.0552
43374W        W51974  18.396   1.170  20.869 -0.0002 -0.2818  0.0457
43375W        W51975  14.775   7.443  27.921  0.0289 -0.1726 -0.1996
43376W        W51976  18.519   4.251  21.034  0.0855 -0.0639  0.2025
43377W        W51977   6.571   3.351  30.010  0.1070 -0.2567  0.0912
43378W        W51978  24.607   5.633  12.149  0.2736  0.1721 -0.0882
43379W        W51979  18.505   4.523  24.070 -0.1933 -0.0138 -0.0143
43380W        W51980  12.629   5.317   1.979 -0.0031 -0.1170 -0.2683
43381W        W51981   6.158   4.568   1.796 -0.1697  0.0348 -0.0138
43382W        W51982  17.409   4.784   5.176  0.1078  0.1969 -0.5317
43383W        W51983  10.313   1.868  27.626  0.0948 -0.0000  0.0582
43384W        W51984  19.904   4.573   6.387  0.0311 -0.2201  0.2240
43385W        W51985   2.390   2.537   1.628 -0.1380 -0.0005  0.0585
43386W        W51986  18.584   2.830   8.285 -0.2201  0.2042 -0.1758
43387W        W51987  17.203   0.502   1.001 -0.1610 -0.1139 -0.2111
43388W        W51988   0.297   7.355   7.710 -0.2477  0.2998 -0.0309
43389W        W51989   9.606   5.475  12.459 -0.1449  0.3378  0.1218
43390W        W51990  19.579   1.252  32.674  0.0978 -0.3052 -0.2286
43391W        W51991  10.957   6.523   2.306 -0.0363  0.1499 -0.0951
43392W        W51992   1.612   3.721  24.046  0.0400 -0.0157 -0.0149
43393W        W51993  13.807   0.967   9.435 -0.1967 -0.4215  0.1412
43394W        W51994   8.333   7.569   6.488 -0.0408  0.1828  0.0267
43395W        W51995  14.416   4.950   8.505 -0.4713  0.0410  0.1638
43396W        W51996   7.626   4.171  10.380  0.1710  0.1386 -0.0140
43397W        W51997   4.469   3.833   4.973 -0.1027 -0.0205  0.2405
43398W        W51998  24.066   6.024  32.443  0.3035  0.0857 -0.1956
43399W        W51999  18.750   2.340  23.038  0.2686  0.2527 -0.1454
43400W        W52000  14.855   6.195   3.834 -0.1636  0.3365 -0.1219
43401W        W52001   2.961   1.158  28.986 -0.1845  0.1482 -0.0811
43402W        W52002   6.250   2.879  10.258  0.0026  0.2361  0.0946
43403W        W52003   5.365   0.619  12.045  0.0313 -0.0262 -0.1793
43404W        W52004   0.843   1.738  28.595  0.1246  0.0153 -0.1849
43405W        W52005  12.913   3.862  32.239 -0.1536 -0.1120 -0.0116
43406W        W52006   1.948   7.742  27.059  0.1249 -0.2960 -0.1311
43407W        W52007  23.723   6.280  30.675 -0.0455  0.2109  0.1936
43408W        W52008  13.873   7.701  31.054 -0.1220  0.0020 -0.1050
43409W        W52009  17.322   0.485  27.584  0.3435  0.2162 -0.2912
43410W        W52010  10.728   5.253   0.196 -0.0362  0.1047 -0.1857
43411W        W52011   8.681   4.300   8.548 -0.2617  0.0892 -0.0195
43412W        W52012   3.743   0.197   0.106  0.0715  0.2409  0.2694
43413W        W52013   7.366   1.008  25.148 -0.3118  0.0814 -0.0088
43414W        W52014  17.053   4.059  20.166  0.3140 -0.0501 -0.1695
43415W        W52015  16.803   4.706  27.167  0.1448 -0.3096  0.4884
43416W        W52016   4.548   0.715  15.326  0.3841  0.2849 -0.1935
43417W        W52017   6.435   1.278   2.097 -0.0844  0.0472 -0.1028
43418W        W52018  19.009   5.654   9.340  0.1955  0.0525 -0.1944
43419W        W52019   0.112   1.592  26.499  0.0057 -0.0405  0.1694
43420W        W52020  12.760   1.778   0.628  0.0760 -0.0749  0.2751
43421W        W52021  21.532   5.728  22.718  0.2088  0.0530 -0.1193
43422W        W52022  16.874   2.273   8.500  0.0621  0.1767 -0.1026
43423W        W52023  14.563   7.775  20.817  0.1279  0.2953 -0.2848
43424W        W52024   8.421   7.757  13.836  0.2349  0.1302  0.0772
43425W        W52025   6.913   4.236  15.382  0.0767  0.2073 -0.0313
43426W        W52026  15.953   4.138  18.801  0.0534  0.0203 -0.1554
43427W        W52027   3.575   4.678  15.252  0.1484 -0.0202  0.0418
43428W        W52028   3.956   0.164   6.221 -0.1994 -0.0572 -0.0210
43429W        W52029   9.871   0.050  23.698  0.0289 -0.3854  0.0801
43430W        W52030   2.468   7.329  26.899 -0.0741 -0.0040 -0.0029
43431W        W52031  18.284   4.497  32.368 -0.2362  0.0920 -0.1172
43432W        W52032   2.298   0.848  17.327  0.1117 -0.2265  0.3506
43433W        W52033   5.750   3.486  16.415 -0.0186 -0.1777 -0.0959
43434W        W52034  20.244   7.636  29.083 -0.2154  0.2733 -0.0661
43435W        W52035  13.613   7.699  17.703 -0.1684 -0.2279  0.1921
43436W        W52036  19.812   3.824  32.736  0.1487 -0.1469 -0.0351
43437W        W52037   4.473   1.129  26.417  0.2639  0.1922 -0.0720
43438W        W52038  10.681   2.435  21.444  0.3234  0.0268 -0.2152
43439W        W52039   9.154   6.203  13.771  0.2272  0.0641  0.0019
43440W        W52040  24.820   3.449  28.604 -0.0550  0.0981 -0.0663
43441W        W52041  20.275   6.077  28.336  0.0630  0.2477 -0.3368
43442W        W52042   5.730   7.076  23.830  0.0404 -0.1453  0.0159
43443W        W52043   6.356   5.807  23.058 -0.0987  0.0449  0.1316
43444W        W52044  24.703   4.918  23.288 -0.0541 -0.1189  0.0181
43445W        W52045   3.518   4.040  24.082 -0.1583  0.0946  0.3031
43446W        W52046   7.714   6.250  32.698  0.0864 -0.1673  0.3233
43447W        W52047  21.541   1.893   5.442  0.0161 -0.0622 -0.0788
43448W        W52048   3.987   5.996  31.739  0.2247 -0.1998 -0.1802
43449W        W52049   2.824   3.537   1.847 -0.1602  0.2522  0.1037
43450W        W52050   7.441   2.884  25.447  0.1652 -0.1186  0.1802
43451W        W52051  16.996   0.026   2.521 -0.3024 -0.1699  0.2183
43452W        W52052  13.534   7.535  19.379  0.0021 -0.0787  0.0234
43453W        W52053  13.309   0.452  25.560 -0.1564 -0.0048  0.1279
43454W        W52054  17.557   0.552  16.019 -0.0609 -0.0625 -0.0500
43455W        W52055  23.821   7.128  28.121 -0.5643  0.0531 -0.0625
43456W        W52056   1.418   3.621  15.390  0.0437 -0.3188  0.2657
43457W        W52057   1.652   4.049   6.597 -0.2525 -0.1379  0.1911
43458W        W52058  14.149   2.103   5.991  0.1016  0.3491  0.0017
43459W        W52059   4.591   2.018   5.621 -0.0786  0.2648 -0.0309
43460W        W52060  23.614   5.137  21.940 -0.1247  0.2690  0.1528
43461W        W52061  22.617   0.020   4.793  0.3941  0.4578  0.0097
43462W        W52062   1.555   0.429  27.889 -0.0667 -0.0222  0.0726
43463W        W52063  12.505   4.531  26.476 -0.1980 -0.2570  0.1285
43464W        W52064   2.523   0.193  22.373 -0.1599  0.0643  0.0694
43465W        W52065   8.883   3.959  10.225  0.1953 -0.1244 -0.0374
43466W        W52066  18.779   6.983   9.427 -0.0886 -0.2093 -0.1132
43467W        W52067  16.271   1.684  21.049 -0.4154 -0.0529  0.3605
43468W        W52068  17.806   3.268  20.527  0.1645  0.0238  0.1033
43469W        W52069  19.751   7.060  31.117  0.0509 -0.1481  0.1905
43470W        W52070  22.459   1.769   2.519  0.1870  0.0739  0.0041
43471W        W52071   9.016   4.323  29.722 -0.2315  0.0201  0.1194
43472W        W52072  17.562   5.209  28.073 -0.2143  0.1626 -0.0077
43473W        W52073   2.335   7.102  27.649 -0.0921 -0.0315 -0.2256
43474W        W52074  15.739   6.567  24.231 -0.0483 -0.1254 -0.1739
43475W        W52075  24.526   2.115   2.776 -0.0186 -0.2128 -0.1812
43476W        W52076   3.948   3.755   6.798 -0.1638  0.1286  0.2521
43477W        W52077  22.043   5.783   1.637  0.1443 -0.0631 -0.1861
43478W        W52078  23.811   2.456  10.815  0.0443  0.1194 -0.1625
43479W        W52079  22.907   6.880  27.981 -0.2698  0.0496  0.0944
43480W        W52080   7.719   0.865  24.753 -0.3072 -0.2366  0.1307
43481W        W52081  23.008   3.878  30.194  0.0514 -0.0526  0.1345
43482W        W52082  16.272   1.582  28.830  0.1754 -0.2178  0.2613
43483W        W52083   1.018   7.745  30.500 -0.2273 -0.1529  0.0250
43484W        W52084   8.979   5.389  26.108 -0.2932 -0.0068  0.0679
43485W        W52085  16.112   2.000   9.801 -0.1794  0.0227 -0.1727
43486W        W52086  13.939   4.415  20.126 -0.0348  0.1384 -0.0579
43487W        W52087  12.514   3.639   5.949  0.0332 -0.0833 -0.1057
43488W        W52088   3.101   2.012  11.494 -0.0128 -0.3685 -0.0794
43489W        W52089   9.691   7.282  31.042  0.0918 -0.2861 -0.0601
43490W        W52090  14.613   6.618  25.020  0.0539 -0.1236 -0.0852
43491W        W52091  21.647   3.367   9.166 -0.1348  0.0707 -0.1216
43492W        W52092   7.148   3.494  10.386  0.1496  0.2972  0.0510
43493W        W52093   3.693   2.999  10.328 -0.0719  0.1451 -0.0458
43494W        W52094  21.540   2.871  10.541  0.1945 -0.0826 -0.1236
43495W        W52095  19.958   6.930  21.010  0.4063  0.0864  0.1165
43496W        W52096  20.378   1.776  23.760 -0.1385  0.0999 -0.0625
43497W        W52097  10.976   4.049  28.621  0.0737 -0.0027 -0.3430
43498W        W52098  21.654   0.794   8.700  0.0664  0.1807 -0.0739
43499W        W52099  16.146   7.137  18.150 -0.1688 -0.0052  0.4988
43500W        W52100  10.052   4.318  12.197 -0.1103 -0.0793  0.1583
43501W        W52101  12.039   0.516  30.771  0.1788  0.1695  0.0530
43502W        W52102  14.819   3.332  21.259  0.0532  0.0672 -0.0751
43503W        W52103  18.846   7.374  20.279 -0.0949  0.0329  0.0113
43504W        W52104   7.534   3.954   5.473  0.0534 -0.0133  0.1484
43505W        W52105  16.477   2.331  32.064  0.0565  0.0548  0.0290
43506W        W52106   8.163   6.428  12.237 -0.3114 -0.1486 -0.0050
43507W        W52107   1.808   7.584  22.649 -0.4348 -0.0374 -0.1856
43508W        W52108  16.788   0.396  32.015  0.1052  0.0375  0.0691
43509W        W52109   1.552   3.624   6.295 -0.1652 -0.1849 -0.1272
43510W        W52110  19.417   5.920  28.206  0.1641  0.1222  0.2780
43511W        W52111  16.264   1.313  18.797  0.2302  0.0635  0.0924
43512W        W52112  15.646   0.594   1.957  0.1069 -0.1245 -0.1845
43513W        W52113  17.466   5.515  24.920  0.0189  0.2101  0.2312
43514W        W52114   8.085   6.296  26.860  0.0909 -0.3049 -0.2026
43515W        W52115   9.073   6.727   0.866  0.1969 -0.0127 -0.1740
43516W        W52116  24.379   7.688  32.487 -0.1341  0.3090 -0.1194
43517W        W52117  13.589   0.948  23.345  0.2325  0.2489 -0.0755
43518W        W52118   6.788   4.360  11.855 -0.3857 -0.0236 -0.1754
43519W        W52119   8.172   5.480  12.571  0.2766  0.2550  0.2829
43520W        W52120   2.054   6.380  12.022 -0.0689  0.1112 -0.2415
43521W        W52121  11.738   2.950  20.021 -0.1485 -0.2657  0.0594
43522W        W52122  17.503   3.771  15.952 -0.2025  0.1368 -0.3668
43523W        W52123  24.181   7.093  21.523  0.3338 -0.0982 -0.1532
43524W        W52124  21.350   1.770  22.236  0.3533 -0.2904  0.1265
43525W        W52125   9.354   3.125  21.584  0.0349  0.1749 -0.2298
43526W        W52126  15.930   4.892   8.990 -0.0503 -0.0692 -0.1142
43527W        W52127  10.201   4.814  10.088 -0.1355  0.1548  0.1187
43528W        W52128  12.361   4.876  25.368 -0.0962 -0.1158 -0.0983
43529W        W52129  20.613   5.130  19.205  0.1506 -0.0853  0.4040
43530W        W52130   9.893   6.798  25.277 -0.1013 -0.0539  0.1197
43531W        W52131  23.466   6.670  30.807 -0.2335 -0.3477 -0.1467
43532W        W52132  16.573   5.574   8.733  0.0451  0.2823  0.3239
43533W        W52133  14.327   3.249  19.169  0.0452 -0.1811 -0.2306
43534W        W52134   5.882   3.969  26.807  0.0016  0.1877 -0.1864
43535W        W52135  18.705   4.325  18.111  0.0839  0.2748 -0.1079
43536W        W52136  18.872   0.255   7.028  0.0065  0.0157  0.1286
43537W        W52137  11.843   4.811   4.099  0.3656 -0.2404 -0.2393
43538W        W52138   4.244   4.608  31.637 -0.1324 -0.0591 -0.1120
43539W        W52139   5.258   3.129   6.306  0.0031  0.1085 -0.3420
43540W        W52140  10.406   5.467  31.867  0.1374 -0.0588  0.0711
43541W        W52141  14.521   1.540   6.480  0.3052  0.0649 -0.1730
43542W        W52142   6.245   5.280   9.074  0.1215  0.0678  0.0337
43543W        W52143  16.467   3.749  26.237 -0.0321 -0.1492 -0.0061
43544W        W52144  12.102   7.206   9.383 -0.1253 -0.3374 -0.0659
43545W        W52145  10.945   0.914  30.783 -0.2508 -0.0334  0.1919
43546W        W52146  15.173   0.211  24.389 -0.2486 -0.4170 -0.1306
43547W        W52147   9.160   4.361   8.342  0.0649  0.1753 -0.1929
43548W        W52148   4.685   6.233  26.512  0.2700  0.1038  0.3917
43549W        W52149   0.802   7.705  30.009 -0.2127  0.1014  0.0215
43550W        W52150   7.364   1.748  23.040  0.4459 -0.2077 -0.1981
43551W        W52151  18.577   4.985   5.272 -0.0016  0.0253 -0.0134
43552W        W52152  12.772   0.702   1.926  0.1610  0.1058 -0.1604
43553W        W52153  11.625   6.773  23.200 -0.0288  0.2668 -0.3142
43554W        W52154  17.086   5.195  28.369  0.5294  0.0815 -0.2048
43555W        W52155   0.944   1.630  16.029 -0.2637  0.3390  0.0061
43556W        W52156  12.922   4.753  29.324 -0.3606 -0.0992  0.0516
43557W        W52157   8.222   3.392   5.597 -0.3190 -0.4289  0.0423
43558W        W52158  22.161   0.684  19.894  0.1678 -0.0815 -0.0705
43559W        W52159  14.660   2.524  21.188 -0.1080 -0.0949  0.1129
43560W        W52160   6.693   5.429   5.311 -0.0646 -0.0933  0.0534
43561W        W52161  19.909   6.707  25.927  0.0862  0.0689  0.2507
43562W        W52162  23.709   7.730   8.790 -0.3355  0.3535 -0.3127
43563W        W52163  10.962   3.709   4.958  0.3315 -0.2467  0.0618
43564W        W52164  22.858   4.729   0.329 -0.0512  0.0032 -0.1119
43565W        W52165  23.092   6.235  31.834  0.0629  0.1185 -0.0947
43566W        W52166   4.520   3.861  10.407  0.1897 -0.1328  0.1373
43567W        W52167  17.889   3.557   6.048 -0.1266 -0.2462  0.0361
43568W        W52168   9.021   6.783   8.278  0.2046  0.1979  0.1864
43569W        W52169  10.092   5.089  11.877 -0.0279 -0.1159 -0.0094
43570W        W52170  17.343   3.002  29.718 -0.2986 -0.1069 -0.2919
43571W        W52171   7.576   6.982  30.758 -0.4002 -0.1317 -0.0582
43572W        W52172  23.260   5.697   9.463 -0.1589  0.0529 -0.0961
43573W        W52173  19.661   1.007  17.729  0.2065 -0.1036  0.1705
43574W        W52174  17.099   6.628  10.068  0.0840 -0.0409  0.1052
43575W        W52175  18.039   3.032  17.467  0.0998  0.1067 -0.2085
43576W        W52176  19.368   6.807  16.684 -0.1084 -0.0715  0.0934
43577W        W52177   0.423   4.234  32.484 -0.2017  0.2313  0.0039
43578W        W52178  17.679   7.435  27.166 -0.1888  0.0184  0.0704
43579W        W52179  20.627   5.222   6.227  0.0670  0.0454  0.3136
43580W        W52180  20.658   4.024  18.457  0.0561  0.1493  0.1951
43581W        W52181   4.190   4.320  17.138  0.1262  0.0094  0.1446
43582W        W52182  18.589   7.068  27.707  0.4513 -0.0003 -0.1191
43583W        W52183   5.879   0.990  16.198 -0.0356  0.0167  0.0611
43584W        W52184  17.843   3.938   7.099  0.0661 -0.1732  0.0135
43585W        W52185  21.865   5.117  24.688  0.0619 -0.0883 -0.2122
43586W        W52186   6.404   0.876  25.025  0.0754 -0.1375 -0.2278
43587W        W52187  13.489   2.778   4.540  0.2087  0.0332 -0.1941
43588W        W52188  22.444   0.563  26.272  0.1445 -0.1116  0.0609
43589W        W52189  16.879   4.008  17.317 -0.0247 -0.1716 -0.3896
43590W        W52190  19.856   5.103   5.136  0.0933 -0.1570  0.1676
43591W        W52191  15.461   5.310   9.864  0.1418 -0.0210 -0.0173
43592W        W52192   4.719   5.897  16.618  0.0885  0.0115  0.1354
43593W        W52193   1.933   1.013   3.426 -0.0339  0.2286 -0.2702
43594W        W52194  22.745   2.015  12.357  0.0975 -0.1191 -0.0389
43595W        W52195   9.463   5.610   7.492  0.3870 -0.1192 -0.0585
43596W        W52196   3.686   1.160   3.492 -0.0110  0.2752 -0.1154
43597W        W52197  17.034   5.204  27.272  0.2817  0.0104  0.0815
43598W        W52198  10.155   1.533   6.526  0.0701  0.2831  0.4002
43599W        W52199  10.082   6.268   6.354 -0.1833  0.2163  0.5030
43600W        W52200  19.220   3.628  19.182 -0.1827 -0.1056  0.3141
43601W        W52201   7.643   2.204   1.068 -0.0184 -0.0198 -0.0497
43602W        W52202   7.774   5.999  25.474 -0.2253 -0.0702 -0.2676
43603W        W52203  20.256   5.476  18.167  0.1764  0.2729  0.0145
43604W        W52204   0.094   0.973   4.138  0.3102 -0.1507  0.0598
43605W        W52205  12.810   5.949  22.390 -0.2065 -0.0143  0.0764
43606W        W52206  18.179   6.036   3.698 -0.3940  0.0723  0.0661
43607W        W52207  23.317   5.513   3.187 -0.2654 -0.1045 -0.1517
43608W        W52208  24.760   4.888  31.969 -0.1819  0.0767 -0.2406
43609W        W52209   4.089   6.301  24.800 -0.1388  0.2843 -0.1102
43610W        W52210  10.895   5.539   8.545 -0.0388  0.0608 -0.5523
43611W        W52211  22.994   4.231  10.810  0.3257  0.0335  0.1173
43612W        W52212  17.550   3.683   1.227 -0.1243  0.2606 -0.1657
43613W        W52213   0.848   3.169  31.137  0.3370  0.1364  0.2959
43614W        W52214  18.227   4.371  28.317  0.1962 -0.0975 -0.0625
43615W        W52215   3.127   7.168  31.729 -0.1340  0.2484  0.0920
43616W        W52216   5.844   2.388  15.564  0.0709  0.1012 -0.1866
43617W        W52217   2.650   2.898  24.080 -0.1583 -0.1851  0.1506
43618W        W52218  19.106   4.828  29.357 -0.0243  0.0358 -0.1465
43619W        W52219   2.720   2.232  13.279  0.1585 -0.0203  0.0569
43620W        W52220  13.994   0.752  20.768  0.1931  0.0873 -0.3145
43621W        W52221  19.961   5.193  32.063  0.0440 -0.0074  0.0324
43622W        W52222   0.533   2.189  14.064 -0.0101  0.1449 -0.2498
43623W        W52223  14.915   5.790  26.889 -0.2475  0.0937 -0.0058
43624W        W52224  24.757   5.777  26.455  0.0654  0.0441 -0.2300
43625W        W52225   0.333   4.661   8.402 -0.1200 -0.3078  0.0466
43626W        W52226   1.932   3.561  23.643 -0.4014 -0.0125 -0.3830
43627W        W52227  18.530   0.225   6.265 -0.3984 -0.1683 -0.2834
43628W        W52228  24.571   3.206  23.836  0.1770  0.0493 -0.0129
43629W        W52229   0.948   2.691  29.042  0.0630  0.0558  0.0391
43630W        W52230  11.077   4.458   0.053  0.2359  0.0459 -0.0974
43631W        W52231   8.947   7.381  24.442 -0.4103  0.1501 -0.0360
43632W        W52232  23.360   0.137   4.477 -0.0314 -0.1701  0.0249
43633W        W52233   7.686   1.323  23.204  0.6360  0.1275  0.2329
43634W        W52234   3.986   1.440   3.024 -0.1556 -0.1069  0.1556
43635W        W52235   5.997   0.239   6.139 -0.1117  0.2493 -0.1128
43636W        W52236  18.600   3.245  17.132 -0.2427 -0.0334 -0.0903
43637W        W52237   7.052   4.159  17.943  0.0170  0.1238  0.0633
43638W        W52238  16.294   5.664  22.582  0.0798 -0.1590  0.0325
43639W        W52239   2.623   1.301  32.993  0.0832  0.0742 -0.3035
43640W        W52240  12.192   7.300  17.657  0.1479 -0.0440  0.2063
43641W        W52241  17.349   3.822  14.995  0.1256  0.1699 -0.1284
43642W        W52242  21.581   5.088  19.219 -0.0751 -0.4225 -0.0190
43643W        W52243   6.821   4.402  25.795 -0.0383 -0.0765 -0.0193
43644W        W52244  13.157   7.518  19.009 -0.0243 -0.1246  0.0688
43645W        W52245  16.297   6.348   9.885  0.0647 -0.1963  0.2851
43646W        W52246  21.423   6.410   7.778  0.1949  0.0224 -0.0583
43647W        W52247  18.237   1.733  22.991 -0.0719  0.0884 -0.1318
43648W        W52248   2.056   4.392   3.469  0.1210 -0.1048 -0.1699
43649W        W52249  14.200   0.282  31.773 -0.2816 -0.0731 -0.0972
43650W        W52250  14.180   1.804   6.756 -0.1545 -0.0088  0.1865
43651W        W52251  10.030   3.344  27.338  0.2821 -0.1275  0.0596
43652W        W52252   6.932   6.467  24.935  0.0037 -0.0510 -0.0537
43653W        W52253   8.718   2.089   1.189 -0.0309  0.2083  0.1902
43654W        W52254  24.758   2.691   3.612 -0.1330  0.0618  0.2774
43655W        W52255  13.414   6.924   9.961  0.0333  0.2367 -0.0500
43656W        W52256  16.182   5.962   9.562 -0.4477  0.1934 -0.1056
43657W        W52257   5.402   2.159  11.475  0.1059  0.0250 -0.2979
43658W        W52258   3.705   4.842  13.408 -0.0210  0.1745 -0.1301
43659W        W52259   2.622   5.556   9.022 -0.0410 -0.3793  0.0535
43660W        W52260  23.168   5.067   2.392  0.0430  0.1731 -0.3405
43661W        W52261  22.806   5.495  21.657 -0.2124 -0.1894  0.3245
43662W        W52262   2.770   4.019  24.792 -0.0272  0.0070 -0.0785
43663W        W52263  17.214   7.202   5.554  0.1934  0.2700 -0.1387
43664W        W52264  22.513   0.408  26.716 -0.0237 -0.1441 -0.1463
43665W        W52265   3.524   7.244  29.461  0.0311  0.2625  0.0472
43666W        W52266   2.165   7.659   6.922  0.2876  0.1709 -0.2415
43667W        W52267  14.975   6.156  22.471 -0.0853 -0.1212 -0.4211
43668W        W52268  14.843   5.027   9.269 -0.0838 -0.2331 -0.0098
43669W        W52269  17.232   2.782  31.573 -0.0124 -0.2707  0.1497
43670W        W52270  24.852   5.035   5.209 -0.1846  0.1679  0.0720
43671W        W52271   3.450   7.359  14.229  0.2334 -0.3181 -0.0256
43672W        W52272   1.366   3.948   4.738 -0.0737  0.0001  0.0995
43673W        W52273   7.726   1.289  31.319  0.1631 -0.1457 -0.0593
43674W        W52274   6.297   3.201  23.203  0.1016  0.0845  0.2704
43675W        W52275  16.946   7.655  17.528 -0.1619  0.1502  0.0318
43676W        W52276   7.997   0.651  26.963 -0.2909 -0.3294 -0.0354
43677W        W52277  11.383   3.872   6.831  0.0635  0.1496  0.3284
43678W        W52278  12.443   3.380  18.087 -0.1555  0.2464 -0.2420
43679W        W52279  21.123   2.240  20.674 -0.0115 -0.1480 -0.0096
43680W        W52280   6.192   0.600  16.070 -0.0512 -0.0707  0.0085
43681W        W52281   2.765   1.145   6.472 -0.0731 -0.0610 -0.1321
43682W        W52282   0.956   6.797  27.320  0.0297 -0.2764 -0.1643
43683W        W52283   0.279   1.522  31.693 -0.5640  0.1573  0.1436
43684W        W52284   3.137   0.504   0.117 -0.2287 -0.1631  0.0038
43685W        W52285  10.598   0.358  22.671  0.0640  0.2545  0.2996
43686W        W52286  16.111   5.560  20.186 -0.0414 -0.2609 -0.1241
43687W        W52287   7.228   3.692   5.926  0.2400 -0.0105  0.0683
43688W        W52288   9.341   6.692   7.406 -0.2241  0.0674 -0.0612
43689W        W52289  12.100   0.644  18.726 -0.0834  0.1878  0.0251
43690W        W52290   6.123   6.388  17.023  0.5107  0.1396 -0.0281
43691W        W52291  11.043   6.838  25.870 -0.0370 -0.0662 -0.2097
43692W        W52292   4.452   1.972   9.352 -0.2269 -0.0275 -0.0470
43693W        W52293   4.198   0.176  29.210  0.2656  0.2552  0.1186
43694W        W52294  20.656   3.985  27.356 -0.2093  0.2219  0.0904
43695W        W52295   8.187   0.028   9.045 -0.0544 -0.1218 -0.2087
43696W        W52296  12.973   7.059   1.877 -0.1130  0.2385  0.0617
43697W        W52297  18.168   2.787   6.008  0.3411 -0.3399 -0.1911
43698W        W52298   2.488   4.384   8.453 -0.1769  0.0035 -0.2473
43699W        W52299  20.106   7.177   5.055 -0.1059  0.1234  0.0066
43700W        W52300   2.670   3.048  22.087  0.0196 -0.0140 -0.0513
43701W        W52301   6.952   6.498  22.710  0.2945 -0.3648 -0.1855
43702W        W52302  15.945   3.728  20.641  0.0415 -0.2827  0.1205
43703W        W52303   2.450   4.237  24.373 -0.0551  0.4722 -0.2738
43704W        W52304  18.795   1.958  18.813  0.0459  0.1607  0.1010
43705W        W52305  11.629   2.990   1.418 -0.0464 -0.2022 -0.1534
43706W        W52306  21.178   7.115  10.207  0.2180 -0.1058  0.1196
43707W        W52307  16.434   2.948   3.168  0.0486  0.0004  0.0973
43708W        W52308   9.814   0.427   9.384 -0.0189  0.0728 -0.0548
43709W        W52309   5.588   1.426  23.657 -0.0273 -0.1358  0.2289
43710W        W52310   0.381   3.133  14.353 -0.4137  0.1536 -0.1179
43711W        W52311  16.118   1.613  15.013 -0.0575 -0.2784  0.0276
43712W        W52312  16.895   0.905  27.410 -0.0426  0.4049  0.0097
43713W        W52313   8.362   3.961  14.300  0.4817  0.1034  0.1158
43714W        W52314  23.229   4.229  20.916  0.2239 -0.0974  0.0420
43715W        W52315  13.442   4.760  27.198  0.0887  0.0052  0.0982
43716W        W52316  21.802   1.331   6.415 -0.0744 -0.1413  0.1684
43717W        W52317   1.043   1.957  11.503 -0.0732 -0.1740 -0.1340
43718W        W52318  13.712   7.726  21.620  0.0936  0.0490  0.2004
43719W        W52319  20.904   3.892   2.815 -0.0857 -0.2936 -0.0295
43720W        W52320  22.011   1.575  21.484 -0.0405 -0.0419 -0.2476
43721W        W52321  17.228   0.938   0.277  0.0353 -0.2891  0.2164
43722W        W52322   0.053   4.710  10.641 -0.0749  0.2241  0.0736
43723W        W52323  22.594   5.497   9.315  0.2701 -0.4211 -0.1441
43724W        W52324   3.290   6.603  22.824  0.0454  0.0944  0.2232
43725W        W52325  10.953   1.163  31.945  0.1752 -0.1999  0.1130
43726W        W52326  12.503   4.539  29.169 -0.0637  0.0014 -0.6134
43727W        W52327   7.621   3.077  23.118  0.2001  0.1386 -0.1186
43728W        W52328  21.379   0.278   2.274  0.3246 -0.1027  0.2224
43729W        W52329  17.999   3.100   0.570 -0.3823 -0.0432 -0.3921
43730W        W52330   9.584   5.962  29.567  0.0341 -0.0881  0.1023
43731W        W52331  15.625   2.114  25.734  0.2211 -0.0329  0.2172
43732W        W52332  20.550   0.969  10.216  0.0579 -0.1288 -0.1412
43733W        W52333  24.068   1.438  26.547  0.3947 -0.1011  0.1207
43734W        W52334   7.997   6.976  15.593  0.1455  0.2232  0.0721
43735W        W52335  24.477   5.725  27.144 -0.0651 -0.0877  0.2248
43736W        W52336  20.607   2.211  23.773 -0.1904  0.0278  0.0767
43737W        W52337  14.685   4.426  24.211  0.3210 -0.0685  0.0186
43738W        W52338   3.057   0.158  25.565 -0.0701  0.1545 -0.1100
43739W        W52339   5.740   2.016   7.574  0.1024  0.0838  0.1949
43740W        W52340   0.905   6.973  23.312 -0.0304 -0.1918  0.0525
43741W        W52341  11.133   7.221  28.141 -0.0577 -0.0403  0.2587
43742W        W52342  19.601   6.084  19.290 -0.0819  0.1777  0.1183
43743W        W52343  10.439   3.029  20.536 -0.0363  0.0977  0.0064
43744W        W52344  20.787   5.697   3.055  0.0810  0.0997  0.0609
43745W        W52345  14.246   7.292  24.070  0.1945 -0.0149  0.0248
43746W        W52346  20.107   0.986  31.969 -0.0075  0.1754  0.1632
43747W        W52347  11.066   6.835  18.606  0.0310 -0.1838 -0.1150
43748W        W52348  17.690   5.622  22.658 -0.3217  0.0837 -0.2190
43749W        W52349  18.471   3.948  22.070  0.0446  0.1720  0.1288
43750W        W52350   8.908   4.840   3.265 -0.2039  0.1708  0.2781
43751W        W52351  23.004   7.333  10.575 -0.0577 -0.0604  0.0197
43752W        W52352  10.395   3.946   5.827  0.1900  0.1302  0.0362
43753W        W52353  24.296   2.032  28.334 -0.2129  0.0866  0.4559
43754W        W52354  19.647   1.849  19.896 -0.0450 -0.0980  0.0080
43755W        W52355  14.054   5.340   1.395 -0.1423 -0.1421  0.1101
43756W        W52356  15.290   6.678  18.669  0.1647 -0.0718 -0.0134
43757W        W52357  18.258   2.525   1.261  0.3766 -0.1207  0.1164
43758W        W52358   3.330   1.605   3.868 -0.0005 -0.3744  0.2389
43759W        W52359   0.479   2.847  23.717  0.0410  0.1410  0.0856
43760W        W52360   3.442   5.397  29.886  0.1749  0.5225  0.2046
43761W        W52361  10.295   2.136  28.581 -0.2212 -0.1543 -0.2051
43762W        W52362   2.338   1.747   7.182 -0.2135 -0.1283  0.2165
43763W        W52363  11.586   3.162   2.254 -0.1701 -0.0470 -0.0270
43764W        W52364  11.590   6.526  24.453  0.2274  0.1036 -0.1401
43765W        W52365  17.737   3.526   7.993 -0.0063  0.0064  0.1525
43766W        W52366  23.205   7.084  32.092  0.1040 -0.0950 -0.1987
43767W        W52367  20.708   7.024  10.915 -0.0787 -0.0622  0.0549
43768W        W52368  14.594   3.383  10.338  0.1293  0.0919 -0.1664
43769W        W52369  10.465   5.756  12.920 -0.0590 -0.0099  0.0596
43770W        W52370  16.134   1.730  30.935 -0.1544 -0.3117  0.0580
43771W        W52371   2.854   6.721  31.950  0.1996 -0.0410  0.0745
43772W        W52372  13.662   2.666  20.836 -0.0867 -0.1425 -0.0857
43773W        W52373  15.709   3.044   4.899 -0.0087 -0.0820 -0.2850
43774W        W52374  18.244   3.570  20.400 -0.1257  0.0590  0.0353
43775W        W52375   8.023   4.660  11.948  0.1818  0.1084 -0.0473
43776W        W52376  15.802   6.326   7.440  0.0694 -0.1870 -0.1097
43777W        W52377  16.130   0.055  24.341 -0.0355  0.0002  0.0721
43778W        W52378  24.346   4.158  21.327 -0.1388 -0.0187  0.0504
43779W        W52379   9.332   5.309  26.958  0.0418 -0.1038 -0.2071
43780W        W52380   6.355   1.107  15.928  0.3245  0.3322 -0.1306
43781W        W52381  19.740   4.234   8.017  0.0624  0.0229 -0.1593
43782W        W52382  15.700   7.011   1.123 -0.0062 -0.1789 -0.1456
43783W        W52383  14.305   4.308   2.664  0.2140  0.0248  0.0367
43784W        W52384  23.500   6.014   0.318  0.0597  0.1671 -0.3268
43785W        W52385  18.668   0.943   4.363 -0.1290  0.0819 -0.2261
43786W        W52386   3.919   4.034  14.676  0.0160  0.2759  0.2027
43787W        W52387  21.862   1.164  27.514 -0.0305 -0.2409  0.0518
43788W        W52388  11.852   0.371  22.923  0.0303 -0.0554  0.0575
43789W        W52389  11.360   0.942  27.136  0.1307 -0.0156 -0.0640
43790W        W52390   4.365   5.288  13.599 -0.2228 -0.0422  0.1345
43791W        W52391   4.310   5.357  14.117 -0.0445  0.2680  0.6001
43792W        W52392  10.717   2.216   4.320  0.1307 -0.1554 -0.0825
43793W        W52393   6.078   2.098  10.608  0.3262 -0.1099 -0.0693
43794W        W52394   9.485   7.800   9.420 -0.1672 -0.0798  0.1661
43795W        W52395   4.815   4.547  24.694  0.8285 -0.1799 -0.0269
43796W        W52396  12.642   0.215  23.262 -0.3278  0.0869 -0.1030
43797W        W52397  18.890   6.920  15.789  0.0420 -0.2992 -0.1201
43798W        W52398  10.092   0.305   6.191 -0.0576 -0.1139 -0.0325
43799W        W52399   1.613   4.011  31.331 -0.0915  0.2621  0.2097
43800W        W52400   5.163   1.270  30.797 -0.2604 -0.1332 -0.0072
43801W        W52401  21.134   3.065   6.838  0.0726  0.0466 -0.0140
43802W        W52402  23.578   7.531   9.775  0.1703 -0.2576 -0.1607
43803W        W52403   5.152   5.736  23.502  0.0169 -0.2116  0.2073
43804W        W52404   1.746   3.364  30.857 -0.1853  0.2267  0.0972
43805W        W52405  19.597   4.078   5.875 -0.3364  0.0536  0.2990
43806W        W52406   1.531   2.436  11.694 -0.0688  0.0721 -0.2320
43807W        W52407   0.281   5.731   8.346 -0.0474 -0.2745  0.0251
43808W        W52408   2.277   5.969   1.762 -0.1190  0.1848 -0.2788
43809W        W52409   9.076   1.949  12.499  0.2215  0.3023 -0.2675
43810W        W52410  16.256   3.884  28.850 -0.3727  0.1517  0.1184
43811W        W52411   9.906   6.184  28.717  0.1493 -0.2684  0.0423
43812W        W52412  20.567   2.029  21.683 -0.0923 -0.0294  0.0034
43813W        W52413  17.234   1.066  28.726 -0.2184 -0.0585  0.1294
43814W        W52414  21.108   0.670  29.771  0.4083 -0.0267  0.0826
43815W        W52415  18.462   5.433  11.541 -0.0915  0.1367  0.3298
43816W        W52416   7.305   0.534   1.550 -0.1817 -0.0115 -0.0190
43817W        W52417   9.328   0.808  29.824 -0.1405  0.0223 -0.1118
43818W        W52418   2.623   3.372  26.998 -0.0298 -0.2599 -0.0625
43819W        W52419   8.230   3.095  29.083  0.2594 -0.0924  0.3047
43820W        W52420  15.370   3.005  18.909  0.0690 -0.0583  0.1095
43821W        W52421  12.877   3.216   6.776 -0.4842 -0.2384 -0.0289
43822W        W52422   6.656   0.309   2.441 -0.0070  0.1685 -0.0166
43823W        W52423  22.431   5.709   7.730  0.0191 -0.2172  0.0880
43824W        W52424  22.542   4.783  12.409 -0.1340 -0.0904 -0.0211
43825W        W52425  11.775   2.058  32.323 -0.1813 -0.2595 -0.0763
43826W        W52426   3.627   0.607  29.894 -0.0417  0.1429 -0.2403
43827W        W52427  22.382   1.169   9.321 -0.0360  0.1745 -0.1993
43828W        W52428  21.694   4.682   0.823 -0.1101  0.2502  0.1953
43829W        W52429  12.466   5.711  30.339 -0.2651 -0.1784  0.2897
43830W        W52430  13.218   6.686  10.628  0.0600  0.2391  0.2039
43831W        W52431  14.408   6.517  22.076  0.1496  0.0640 -0.1695
43832W        W52432   7.234   6.315   4.442 -0.3150  0.0485 -0.1615
43833W        W52433   8.121   3.618  13.503 -0.3021 -0.3539 -0.4100
43834W        W52434  19.965   5.292   2.961  0.0690 -0.0837 -0.1440
43835W        W52435  19.800   6.854  30.127  0.0069 -0.0348 -0.0063
43836W        W52436  20.939   6.708  18.424 -0.0605  0.1286 -0.1722
43837W        W52437  12.943   5.294  26.536 -0.0489  0.2735  0.0003
43838W        W52438   4.032   6.393  12.746 -0.1273 -0.1398  0.0186
43839W        W52439   6.938   0.245   0.202 -0.0313 -0.1441 -0.2220
43840W        W52440  16.039   3.543  30.198 -0.0365  0.0318 -0.1971
43841W        W52441  21.242   6.617  11.552 -0.1082  0.0308  0.3001
43842W        W52442   1.483   4.301  32.722 -0.1460  0.0101 -0.0530
43843W        W52443   3.811   1.528   3.870  0.1870 -0.0645 -0.2489
43844W        W52444   6.566   6.325   6.044 -0.1361  0.0958 -0.0780
43845W        W52445   2.531   7.688   1.101  0.3969 -0.2881  0.4173
43846W        W52446  23.922   3.963   7.374  0.0849 -0.0702 -0.2115
43847W        W52447  21.943   4.803  25.076  0.0108  0.0299 -0.1118
43848W        W52448   0.470   3.392   4.732  0.0116  0.3689  0.0612
43849W        W52449  13.440   3.634   7.374  0.1103 -0.0180 -0.1782
43850W        W52450  19.463   3.753   8.011  0.0961 -0.1318  0.0145
43851W        W52451  12.519   5.192   0.378  0.0450  0.0353  0.1352
43852W        W52452  11.550   3.545   3.047 -0.0382 -0.1947 -0.1834
43853W        W52453  24.760   0.979  32.296  0.1498  0.0448 -0.1838
43854W        W52454   9.987   1.533   4.018 -0.2395  0.0044  0.0025
43855W        W52455  13.959   0.982   0.905 -0.0943  0.3681  0.0799
43856W        W52456  11.327   1.608  23.857  0.2771  0.0238  0.0733
43857W        W52457   1.879   5.414  27.582 -0.1918  0.0434  0.1258
43858W        W52458   5.799   3.794  15.293 -0.3775  0.0109 -0.0344
43859W        W52459   1.328   3.087  16.539  0.3646  0.0274  0.0440
43860W        W52460  17.435   0.043   8.941 -0.1477  0.1195  0.1553
43861W        W52461  16.210   2.730  20.930 -0.4021  0.0899 -0.1028
43862W        W52462  17.165   2.902   4.695 -0.1193  0.4489  0.1117
43863W        W52463  10.079   7.356  11.592  0.1383 -0.0555  0.1250
43864W        W52464  11.430   6.228  32.536 -0.3107 -0.0622  0.0205
43865W        W52465   2.708   6.756   9.123 -0.1555 -0.1282 -0.2878
43866W        W52466  13.332   7.035   4.132  0.0609  0.0483  0.2209
43867W        W52467  22.789   4.938  25.010 -0.3342  0.2234  0.0659
43868W        W52468  19.083   2.088   2.326 -0.1719  0.1662 -0.2358
43869W        W52469  20.746   3.898  31.127 -0.2530 -0.1536  0.1588
43870W        W52470  19.303   7.050  17.740  0.0672  0.0843 -0.0016
43871W        W52471  16.041   3.267   7.111 -0.1283 -0.1441  0.1157
43872W        W52472  21.203   2.718  12.225 -0.0702 -0.3514 -0.0841
43873W        W52473  10.769   1.115   0.471 -0.1614 -0.3033  0.1118
43874W        W52474   1.397   7.644  31.261 -0.0290  0.0162 -0.0075
43875W        W52475   6.879   1.186   5.721 -0.2893 -0.1739  0.3819
43876W        W52476   7.077   4.650  16.280  0.0467  0.0145  0.1822
43877W        W52477  16.231   6.393  29.649 -0.2415  0.0855  0.0077
43878W        W52478  16.831   6.164  10.222 -0.1658  0.0827  0.2336
43879W        W52479  20.767   6.048  20.096  0.0377  0.5053  0.2274
43880W        W52480  14.213   0.025  18.664 -0.1317  0.0100 -0.0808
43881W        W52481  12.041   5.585  31.340  0.1331 -0.0871  0.3147
43882W        W52482   8.507   0.487   0.545 -0.4063 -0.0914  0.0476
43883W        W52483  17.311   4.821  25.652  0.1575  0.2238 -0.0713
43884W        W52484  10.829   1.916  32.495  0.1368  0.1359  0.1460
43885W        W52485  20.959   2.208   0.985 -0.0390  0.3124 -0.0420
43886W        W52486   8.288   7.197   8.264  0.1644  0.0742  0.0183
43887W        W52487   1.116   6.903   9.340  0.1276 -0.3038  0.0122
43888W        W52488  11.112   0.005   4.526 -0.0776 -0.1339 -0.2174
43889W        W52489  24.094   6.847  22.430  0.1559 -0.3031  0.3914
43890W        W52490  20.035   1.790  28.832  0.1502 -0.1369 -0.1191
43891W        W52491  18.100   7.168   8.191  0.1342  0.2453 -0.1278
43892W        W52492  12.299   6.856  24.593 -0.0165 -0.1263  0.1144
43893W        W52493   4.253   5.458   8.163  0.2877 -0.0872  0.1606
43894W        W52494  15.872   4.983  15.334  0.0114  0.1919 -0.3083
43895W        W52495   4.088   6.136  11.786  0.1576  0.0099  0.2113
43896W        W52496   8.370   3.271   9.473  0.0724 -0.2054  0.1186
43897W        W52497  14.830   2.766  32.466 -0.0598 -0.1076 -0.3999
43898W        W52498  14.259   6.803   2.354  0.1903  0.0343  0.1542
43899W        W52499   0.415   6.055   4.415 -0.1314 -0.1829  0.1262
43900W        W52500  14.638   1.036  30.704 -0.0326  0.0005 -0.1043
43901W        W52501  21.473   5.467  10.159  0.2562 -0.1169  0.2616
43902W        W52502  19.446   6.597   0.088  0.0434 -0.1078 -0.0334
43903W        W52503  17.248   6.439  15.381  0.0052  0.0072 -0.1262
43904W        W52504   2.781   0.348   2.274 -0.1762 -0.1165  0.0457
43905W        W52505   5.080   6.016  16.289  0.0273 -0.2098 -0.0841
43906W        W52506   9.391   5.166  29.437 -0.1118 -0.1315  0.0369
43907W        W52507  11.414   1.956   8.266  0.1590 -0.1035  0.1021
43908W        W52508  20.216   1.339   9.037 -0.1802  0.0635  0.3399
43909W        W52509  20.961   2.796  31.924 -0.1447 -0.0492 -0.1647
43910W        W52510  21.161   7.604  32.188  0.1294  0.0390 -0.0469
43911W        W52511   1.556   5.510  16.684  0.3231 -0.1835  0.1483
43912W        W52512  22.954   7.504  32.367 -0.0836  0.0314  0.0175
43913W        W52513   9.950   5.862  31.004 -0.0664 -0.2165  0.0821
43914W        W52514   4.082   3.970   5.189 -0.0767 -0.1227  0.2458
43915W        W52515   9.259   4.291  20.670 -0.0425 -0.0240 -0.0562
43916W        W52516  22.080   1.768   1.538 -0.2124  0.1033  0.0558
43917W        W52517   9.625   1.394  22.695  0.0905 -0.0169  0.0316
43918W        W52518  17.029   1.930   1.751  0.0880 -0.1518 -0.2230
43919W        W52519   5.703   4.290   2.566  0.2580 -0.1561 -0.0469
43920W        W52520   7.266   6.218  11.482  0.0063 -0.3046  0.2120
43921W        W52521   4.716   2.521  27.564  0.1962 -0.1778 -0.0821
43922W        W52522  23.488   5.964  27.304  0.0817 -0.2337  0.0625
43923W        W52523  14.241   7.523  22.699  0.3056 -0.2952 -0.2024
43924W        W52524  21.473   2.711   6.039 -0.2209  0.0904  0.1557
43925W        W52525  14.839   0.309  23.765  0.0288  0.1716  0.0691
43926W        W52526  20.338   6.597  28.526  0.1070 -0.3163 -0.0254
43927W        W52527   7.417   4.124  21.638  0.1209  0.0053  0.2176
43928W        W52528   4.329   2.472  31.102  0.3394  0.1003  0.0121
43929W        W52529   0.597   4.225  24.571  0.1266  0.0076 -0.2931
43930W        W52530  22.864   1.552  32.708 -0.1117  0.2153  0.0493
43931W        W52531   1.843   7.217  22.950 -0.0148 -0.0309  0.0292
43932W        W52532  22.091   6.724  20.789  0.2403  0.0030  0.0353
43933W        W52533   8.255   2.335  11.684 -0.0125  0.0532 -0.0719
43934W        W52534   6.350   3.683  25.283 -0.0271 -0.2327 -0.3320
43935W        W52535  16.971   7.256  25.373 -0.1383 -0.1581  0.2476
43936W        W52536   0.325   4.232  23.538  0.3854  0.3326  0.0748
43937W        W52537   3.840   0.788   5.720 -0.2099 -0.4354 -0.0382
43938W        W52538   4.415   0.145   3.629 -0.0264  0.2310 -0.1504
43939W        W52539  12.099   0.880  25.253  0.0337 -0.1949 -0.2280
43940W        W52540   1.089   7.161   8.121  0.2372  0.0032  0.2298
43941W        W52541   6.823   4.273   2.600  0.0404 -0.0839  0.0109
43942W        W52542  12.171   0.630  26.218  0.4748  0.0659  0.1209
43943W        W52543  22.286   2.957   5.377 -0.0903  0.1399  0.1474
43944W        W52544   9.056   3.645  22.954  0.2330 -0.1806  0.2363
43945W        W52545   0.023   4.747  11.668  0.1839  0.2187  0.0263
43946W        W52546  19.783   3.391  23.761  0.0428 -0.4025  0.0394
43947W        W52547  17.798   1.613   5.420 -0.2778 -0.0737  0.2617
43948W        W52548  16.125   7.406   1.017 -0.0100  0.0784 -0.2266
43949W        W52549  10.015   3.070  29.750  0.0708  0.1198  0.2183
43950W        W52550  12.057   1.488   5.962 -0.2094  0.3843 -0.1549
43951W        W52551  20.817   6.669   9.300  0.0085 -0.1443  0.1133
43952W        W52552   8.720   5.869  21.340 -0.4182  0.3322 -0.1805
43953W        W52553  20.418   7.683  30.725  0.2879  0.1868  0.0588
43954W        W52554  16.199   2.371   1.176 -0.0165  0.1351 -0.1504
43955W        W52555  14.829   1.629  26.694 -0.3325  0.0049 -0.3308
43956W        W52556  15.618   6.880   4.622 -0.0376  0.0284  0.2116
43957W        W52557  13.848   1.992   0.000 -0.0216 -0.2005 -0.1890
43958W        W52558  23.667   2.430   1.826 -0.1579  0.2909  0.1472
43959W        W52559   2.608   5.535   6.569  0.1415  0.0959  0.0918
43960W        W52560   4.404   6.614  27.349 -0.3867  0.2382 -0.0885
43961W        W52561  12.108   3.239  18.461  0.2290  0.1262  0.2385
43962W        W52562  15.511   5.746   3.479 -0.1511 -0.0399  0.2006
43963W        W52563  15.770   5.343   3.170  0.1663  0.0369  0.0528
43964W        W52564  13.357   4.696   8.573  0.0776  0.1043  0.2145
43965W        W52565   2.988   5.691   6.802  0.0825  0.0538  0.1263
43966W        W52566   1.140   6.630  30.085  0.0523  0.2522  0.1915
43967W        W52567   4.255   6.255   5.593 -0.1117  0.6846 -0.1155
43968W        W52568   4.613   6.706  22.811  0.3522  0.0315 -0.2769
43969W        W52569  14.504   1.164  16.012  0.0165  0.2074  0.0483
43970W        W52570   3.707   3.791  26.487 -0.0842 -0.3585 -0.2874
43971W        W52571   0.377   0.053   7.013 -0.0199 -0.0203 -0.0214
43972W        W52572   2.589   5.436  22.601 -0.1347 -0.0470 -0.1005
43973W        W52573   4.610   3.743  15.029 -0.1020 -0.2741  0.1231
43974W        W52574   4.596   5.907  12.445  0.0822  0.1423  0.0279
43975W        W52575  13.902   6.449  30.230 -0.2726  0.1871  0.2821
43976W        W52576  17.595   2.918   4.945  0.0543  0.0387  0.0221
43977W        W52577   4.326   5.979  26.761 -0.0338 -0.0868 -0.1758
43978W        W52578  18.764   5.689   1.707  0.2230  0.0481  0.2897
43979W        W52579   7.335   6.051  24.257 -0.1025  0.3805 -0.3014
43980W        W52580   4.896   7.149   2.581  0.1060  0.0432 -0.2971
43981W        W52581   0.391   7.648  26.269 -0.0480  0.0819  0.2198
43982W        W52582  18.484   4.726   1.736 -0.0761 -0.0104 -0.6336
43983W        W52583  22.985   1.708   2.686  0.0773 -0.0700 -0.0435
43984W        W52584  16.325   3.717   6.131  0.0198  0.3133  0.2173
43985W        W52585   0.185   5.554   4.412 -0.3711  0.2489 -0.0749
43986W        W52586   2.673   0.278   6.094 -0.0409  0.0689 -0.0341
43987W        W52587   5.373   2.385  26.525 -0.1240 -0.0411  0.2314
43988W        W52588   6.038   6.158  26.185 -0.1794  0.3922 -0.0343
43989W        W52589  15.647   2.524  27.287  0.0310 -0.1759 -0.0759
43990W        W52590  17.616   3.679  10.401 -0.0895 -0.2514 -0.0617
43991W        W52591  13.489   3.168   9.021 -0.0892 -0.0374 -0.0190
43992W        W52592  19.245   3.325  28.137 -0.0878  0.2522  0.0271
43993W        W52593   0.638   3.863  11.753  0.3354  0.0960  0.1414
43994W        W52594  12.379   4.773   4.897 -0.0013 -0.4166 -0.1081
43995W        W52595   5.985   4.934  17.569 -0.0011 -0.2063 -0.1557
43996W        W52596  15.629   7.169  28.587 -0.0578 -0.2910 -0.0405
43997W        W52597   9.060   7.740  21.246  0.1021  0.2074  0.0112
43998W        W52598   9.529   0.683  31.818 -0.0265  0.0143 -0.2715
43999W        W52599   8.864   4.441  28.973 -0.1911  0.0005  0.0445
44000W        W52600   8.742   5.393  32.753  0.1636 -0.0118 -0.1268
44001W        W52601  23.100   5.476  20.590  0.1473  0.1022 -0.1740
44002W        W52602  10.519   2.086  23.420 -0.1218 -0.4580  0.0780
44003W        W52603  20.230   0.028   7.845 -0.2981  0.0620  0.1481
44004W        W52604   7.623   2.997  27.889 -0.1701 -0.1169 -0.0136
44005W        W52605   5.147   3.025  17.237 -0.3313  0.2469 -0.4066
44006W        W52606  17.691   6.863   7.504  0.0934 -0.0700  0.0431
44007W        W52607  13.692   6.803   3.162  0.1063 -0.0103  0.3343
44008W        W52608  22.260   5.852   4.903 -0.1914  0.1971  0.0046
44009W        W52609   3.871   7.478   0.921  0.1420  0.1071 -0.2800
44010W        W52610  17.587   4.593  20.693 -0.2999  0.1893  0.0792
44011W        W52611   5.384   6.924  17.981  0.0547  0.0312 -0.0691
44012W        W52612  14.472   4.509  27.880  0.1945  0.0580 -0.1012
44013W        W52613   4.577   2.755  24.005  0.0303  0.0355 -0.0684
44014W        W52614  23.895   4.090  31.704  0.0937 -0.0928 -0.0507
44015W        W52615  18.276   1.909   0.377  0.0891 -0.0446  0.1060
44016W        W52616   2.561   0.693  28.884  0.1507  0.0178 -0.0573
44017W        W52617  10.734   3.856   5.438  0.0323  0.0326 -0.2004
44018W        W52618  18.919   0.629  30.831  0.1589 -0.1802 -0.1245
44019W        W52619  22.133   5.030   6.427  0.1822  0.3437 -0.0302
44020W        W52620  20.637   4.355   7.682 -0.1905 -0.0012  0.3447
44021W        W52621  20.107   6.499   7.919 -0.4197 -0.0807  0.3571
44022W        W52622  12.374   5.122  32.161 -0.0741 -0.4764 -0.3670
44023W        W52623  15.835   5.478  31.542  0.0084  0.3184  0.0289
44024W        W52624   5.953   1.878   5.340  0.0894  0.0464 -0.2542
44025W        W52625   5.890   5.818  28.584  0.2415 -0.0381  0.2988
44026W        W52626   7.272   0.518  26.000  0.4387  0.0337 -0.1055
44027W        W52627  10.306   1.422  19.181  0.1260 -0.2174  0.0522
44028W        W52628   1.388   2.581  25.410  0.1303 -0.0626 -0.1573
44029W        W52629   3.386   1.484   1.797  0.0485 -0.0688  0.0457
44030W        W52630  20.265   3.944  32.638 -0.4427  0.0559  0.0970
44031W        W52631   3.297   0.869   9.528  0.0727  0.1379 -0.0553
44032W        W52632  16.608   7.658  16.012  0.1094 -0.0114 -0.1185
44033W        W52633  18.337   1.311   7.045 -0.0605  0.4097  0.2391
44034W        W52634  23.424   6.793  27.190  0.0492 -0.1564  0.2366
44035W        W52635  18.930   5.616  20.853  0.0952  0.3402 -0.1475
44036W        W52636   0.656   2.453  12.750  0.0700  0.1382 -0.1843
44037W        W52637  18.535   2.012  32.658 -0.2360 -0.2939 -0.2107
44038W        W52638  21.739   3.218  31.026 -0.0205 -0.1567 -0.2689
44039W        W52639  17.411   1.217   3.112  0.1381  0.1103 -0.2736
44040W        W52640   9.873   7.488  28.619  0.1791  0.2403  0.1144
44041W        W52641   3.810   6.006  32.323 -0.2780 -0.0341 -0.2969
44042W        W52642  23.815   2.176  10.406  0.1980 -0.2465 -0.0758
44043W        W52643   4.491   0.123   5.644  0.2256  0.0114 -0.0650
44044W        W52644   9.854   1.344  25.704 -0.1746 -0.3309 -0.0570
44045W        W52645  18.785   5.502  27.439 -0.1949  0.0154  0.1504
44046W        W52646  11.717   7.640  28.618 -0.0155 -0.0005  0.0497
44047W        W52647  14.164   3.799  22.982 -0.2395  0.1679  0.2943
44048W        W52648  19.314   7.512  26.047  0.0461 -0.1485 -0.1853
44049W        W52649  16.881   5.223   9.213 -0.2786 -0.0478  0.0762
44050W        W52650  23.004   5.715   1.782 -0.0629  0.0410 -0.1063
44051W        W52651  11.492   3.154  29.547 -0.2560  0.2487  0.0205
44052W        W52652  22.718   5.825   2.191 -0.0607 -0.0561 -0.0228
44053W        W52653   1.061   1.569  27.339 -0.1460 -0.1669 -0.0963
44054W        W52654  12.338   3.651  20.353  0.2544 -0.0407 -0.0634
44055W        W52655  21.761   2.648  28.400  0.2954  0.0674 -0.0697
44056W        W52656  21.662   0.063  28.071 -0.0860 -0.4142  0.0621
44057W        W52657   4.890   1.622   0.307  0.0775 -0.0980  0.2112
44058W        W52658   8.191   2.079   8.832  0.1067  0.0202 -0.0328
44059W        W52659  11.629   3.561  29.840  0.2529  0.0499 -0.0591
44060W        W52660  12.179   7.254  29.864 -0.2301 -0.2980 -0.2520
44061W        W52661  21.630   3.961  22.576 -0.0569  0.3810 -0.1405
44062W        W52662  24.631   1.576  23.357 -0.0360 -0.3559 -0.2902
44063W        W52663  12.923   3.648  27.731  0.4340 -0.4095 -0.1057
44064W        W52664  14.525   0.483  30.292 -0.1383  0.1472  0.0132
44065W        W52665  22.689   0.076  27.604 -0.1755  0.3661 -0.2029
44066W        W52666   5.033   5.202  15.084 -0.0096 -0.0950 -0.0183
44067W        W52667  20.891   1.630   0.406 -0.0426 -0.2035 -0.0482
44068W        W52668  16.907   0.219   2.967 -0.0093 -0.2676  0.0776
44069W        W52669  19.747   1.366  28.727  0.1318  0.0665 -0.4981
44070W        W52670   1.581   0.361  31.645 -0.1675 -0.0028 -0.4293
44071W        W52671   4.783   5.957  10.583  0.0768  0.0478 -0.0839
44072W        W52672  22.646   2.831   0.942  0.0542  0.2619 -0.1362
44073W        W52673   8.153   6.179   5.700  0.0963  0.0191 -0.3256
44074W        W52674   1.284   6.420  23.922 -0.2332 -0.4202 -0.0438
44075W        W52675  11.650   2.904  31.216 -0.0358 -0.0344  0.1403
44076W        W52676   4.717   6.387   5.550 -0.0639  0.3437 -0.0609
44077W        W52677  21.281   1.801   7.332  0.1584  0.0962 -0.2271
44078W        W52678   9.313   0.389   4.563  0.2410  0.0517 -0.0568
44079W        W52679   8.670   1.238  14.415 -0.1001 -0.0874  0.0082
44080W        W52680  16.253   0.881  17.969 -0.1077  0.0242 -0.0886
44081W        W52681  21.221   1.410  21.764  0.2074  0.1192 -0.0332
44082W        W52682   7.132   4.067  12.092  0.2941  0.0267  0.1822
44083W        W52683  23.459   4.524  21.317  0.0998  0.1638 -0.2891
44084W        W52684   9.312   1.188  12.124 -0.1071  0.0883 -0.1650
44085W        W52685   6.966   5.499  13.039 -0.0766  0.3008  0.3749
44086W        W52686   5.622   6.588   2.577  0.2096 -0.0763  0.1963
44087W        W52687  20.505   4.450  29.550 -0.0316 -0.0222 -0.1587
44088W        W52688  15.236   2.266  27.986 -0.1631 -0.1980 -0.2296
44089W        W52689   1.080   4.079  32.125 -0.2965  0.0614 -0.1415
44090W        W52690  11.955   2.034  18.207  0.1629  0.1349  0.1492
44091W        W52691   7.465   6.778   3.065  0.0602  0.1175  0.2505
44092W        W52692   3.455   4.665  16.387 -0.0237  0.1579  0.0753
44093W        W52693   3.952   5.237  13.251 -0.1025  0.1046 -0.0451
44094W        W52694  17.393   5.845  28.229 -0.0076  0.2588 -0.3060
44095W        W52695  18.339   0.257  26.687 -0.0351 -0.2248  0.2101
44096W        W52696   4.546   2.917  15.315 -0.1694 -0.1139  0.2182
44097W        W52697   9.605   1.467  13.825 -0.0414  0.2854  0.0761
44098W        W52698  11.435   5.502   3.494 -0.4352  0.0960  0.2825
44099W        W52699  16.761   5.672  16.220 -0.0772  0.0193  0.1715
44100W        W52700   6.185   0.427  24.447  0.1377 -0.1241  0.1358
44101W        W52701  18.562   7.085  22.404 -0.2566 -0.0768 -0.1059
44102W        W52702  12.891   2.518  21.801  0.2032 -0.0680 -0.1180
44103W        W52703   8.781   3.161  26.625 -0.2270 -0.2864  0.1803
44104W        W52704  21.993   7.372  24.500  0.2860 -0.3782  0.2258
44105W        W52705   9.463   6.525  15.156  0.1548 -0.1497  0.0284
44106W        W52706  15.441   1.105   0.829  0.2060  0.0246  0.0132
44107W        W52707  14.732   7.386  25.046  0.0294 -0.2934  0.1848
44108W        W52708   4.778   0.972   0.080  0.2993 -0.3617 -0.0643
44109W        W52709  11.380   0.960   8.814  0.0205  0.0825  0.1215
44110W        W52710  14.795   1.871  25.295 -0.2486 -0.0245  0.0172
44111W        W52711  13.328   1.969  26.158 -0.2939 -0.0111 -0.2642
44112W        W52712  22.574   0.919  31.972 -0.2037 -0.3340 -0.0078
44113W        W52713  14.659   0.650   9.318  0.0243 -0.0801  0.0375
44114W        W52714  13.919   2.799  28.781  0.1502 -0.0570 -0.3104
44115W        W52715  23.583   2.554  26.212  0.1394  0.1643 -0.1778
44116W        W52716   7.203   7.361  23.673  0.3718  0.2215 -0.3014
44117W        W52717   0.102   3.300  25.541  0.1072  0.1598  0.2392
44118W        W52718  22.244   5.334  32.678 -0.1828  0.1599  0.1826
44119W        W52719  22.181   1.526  10.963 -0.2671 -0.2876  0.1742
44120W        W52720   9.010   7.398   3.599  0.0558 -0.2410  0.0561
44121W        W52721   4.888   3.791  28.666  0.2961  0.0634  0.0629
44122W        W52722  18.318   6.477  17.062  0.2702 -0.0934 -0.0209
44123W        W52723  14.345   0.206  17.359 -0.0736  0.0054 -0.0310
44124W        W52724  19.919   7.062   7.598  0.3965  0.0907  0.1003
44125W        W52725  22.012   4.363  24.746  0.4866 -0.1013  0.1224
44126W        W52726  19.954   5.409  31.562 -0.0698  0.0028  0.2704
44127W        W52727  21.475   1.884   6.444 -0.0504 -0.2887  0.3095
44128W        W52728  22.158   4.475  12.939 -0.1523 -0.1014  0.1076
44129W        W52729  12.534   3.428   7.444  0.1244 -0.0175 -0.2939
44130W        W52730   5.833   0.480   7.754 -0.4306  0.0166 -0.0791
44131W        W52731  16.066   4.897  15.843  0.0353 -0.1472 -0.1267
44132W        W52732  12.768   6.270  23.856  0.3462 -0.0278 -0.3531
44133W        W52733  11.591   3.726  10.453  0.0501 -0.2422  0.1480
44134W        W52734  10.026   6.779   8.011  0.0339  0.0594  0.2266
44135W        W52735  12.168   3.155  30.044 -0.0923  0.0784 -0.1894
44136W        W52736   6.649   6.244  30.820  0.1508  0.2949 -0.0206
44137W        W52737   8.507   0.641  13.715 -0.0645 -0.0958  0.1203
44138W        W52738   4.280   4.046  25.304 -0.2397 -0.4046 -0.1559
44139W        W52739  21.356   3.157  12.101 -0.1431  0.0050  0.0679
44140W        W52740   2.057   2.075  11.573  0.1970 -0.1839  0.0468
44141W        W52741  14.416   4.979  17.846 -0.0368  0.1609  0.1988
44142W        W52742  12.668   6.379  16.678 -0.1600  0.0196  0.1766
44143W        W52743  15.877   4.634  25.081 -0.1531 -0.4667 -0.1010
44144W        W52744  17.504   2.861   3.164 -0.0871 -0.3223  0.1436
44145W        W52745   1.597   6.787  22.620  0.1364  0.1612  0.1655
44146W        W52746  24.695   0.420  24.996 -0.0804  0.0561 -0.1034
44147W        W52747  21.428   2.145   1.149 -0.1954  0.1485  0.2979
44148W        W52748   0.940   2.661  23.629  0.1854  0.1996  0.0357
44149W        W52749   9.403   6.050   9.006 -0.2409 -0.0991  0.2619
44150W        W52750  22.312   0.423  19.475 -0.1231  0.1178  0.0403
44151W        W52751  13.730   0.797   3.302  0.1803 -0.3342  0.0301
44152W        W52752   3.754   3.337   4.119 -0.1487  0.2742  0.0395
44153W        W52753  14.611   1.854  18.966 -0.1848  0.2347  0.0095
44154W        W52754  17.403   5.234  18.787  0.0281  0.0238 -0.0996
44155W        W52755   1.412   6.280   4.605  0.3967  0.0895 -0.0834
44156W        W52756  19.881   3.451  17.954  0.0924  0.1042 -0.4457
44157W        W52757  24.426   0.177  30.471 -0.0333  0.2498 -0.3690
44158W        W52758   8.133   3.473   6.121  0.0901  0.0863 -0.0899
44159W        W52759   0.992   4.416   1.909 -0.2163  0.1354  0.0930
44160W        W52760  10.287   5.805  30.270 -0.3416  0.1971  0.4418
44161W        W52761  15.426   2.236  31.447 -0.0991 -0.3105 -0.0274
44162W        W52762   4.104   1.676  28.208  0.0475  0.1289  0.0384
44163W        W52763  19.795   5.735   9.538  0.1738  0.0800  0.0971
44164W        W52764  11.437   0.777   3.226 -0.2597 -0.2298 -0.0260
44165W        W52765  12.662   0.031   4.113  0.1115 -0.0425  0.4318
44166W        W52766  22.510   1.361   6.729 -0.0278  0.1046 -0.0047
44167W        W52767   1.557   5.024  16.538 -0.1005  0.1350  0.0190
44168W        W52768  12.411   1.197   0.069 -0.0129  0.1375  0.1456
44169W        W52769   8.297   7.559   7.403 -0.3142 -0.0029  0.1155
44170W        W52770  18.822   0.411   5.513  0.0913 -0.1652 -0.0605
44171W        W52771   4.956   0.682   1.336  0.0331 -0.1824  0.2157
44172W        W52772  17.691   7.325   8.392 -0.1088  0.0506  0.1010
44173W        W52773  12.633   7.381   1.957  0.2060  0.1332  0.0865
44174W        W52774  18.807   3.712   1.001 -0.0058 -0.1201  0.0432
44175W        W52775  18.079   4.129  31.174 -0.3223 -0.0121 -0.0134
44176W        W52776   1.046   2.966  22.076  0.3350 -0.3196 -0.1262
44177W        W52777   6.888   3.550   8.547 -0.3449 -0.2023  0.2541
44178W        W52778  19.119   0.505  17.193 -0.3888 -0.0452 -0.0717
44179W        W52779   3.882   0.577  15.159  0.0387 -0.2195 -0.1476
44180W        W52780  13.888   2.955   9.748 -0.0051 -0.0251 -0.1505
44181W        W52781  10.754   6.685   4.339  0.2053  0.1353 -0.5433
44182W        W52782  10.067   1.027  27.995 -0.1532 -0.0880 -0.5626
44183W        W52783   7.826   5.049  10.630 -0.1553  0.0159  0.1233
44184W        W52784   1.445   3.482  27.040 -0.1139 -0.1943  0.0237
44185W        W52785   9.655   7.072  28.754 -0.0678  0.2206 -0.1999
44186W        W52786  18.154   6.024   0.564  0.3801  0.0261 -0.1681
44187W        W52787  24.347   3.256  30.684  0.1868  0.0330 -0.0722
44188W        W52788  24.148   5.751  30.160 -0.2663  0.2276  0.3122
44189W        W52789   8.495   2.644  32.585 -0.1732 -0.0639  0.0813
44190W        W52790  22.706   7.318   3.990  0.1254 -0.0239  0.0175
44191W        W52791  18.271   3.408  29.164 -0.0504  0.1573  0.0056
44192W        W52792  24.801   0.997  12.686  0.0235  0.0680 -0.1235
44193W        W52793  22.919   7.516  29.348  0.0116 -0.0360 -0.0227
44194W        W52794   4.119   6.954   9.110  0.0148 -0.1700  0.1293
44195W        W52795  16.580   4.647  31.779 -0.3509  0.0024  0.1497
44196W        W52796  16.917   5.449   4.864 -0.0484  0.1870  0.0477
44197W        W52797   7.966   4.432  29.586 -0.0262  0.1002 -0.0590
44198W        W52798  14.673   3.366   9.093 -0.0709 -0.0182  0.1855
44199W        W52799  12.065   2.757   7.207  0.0955  0.0400 -0.0121
44200W        W52800   5.666   0.611  22.923  0.2468  0.1058 -0.0232
44201W        W52801  15.824   5.343   3.738  0.1106  0.1355  0.3039
44202W        W52802   6.835   6.407  12.671 -0.1541  0.0383 -0.1543
44203W        W52803   4.669   3.962  26.577 -0.2644  0.1688 -0.0511
44204W        W52804   3.667   2.250  26.373 -0.1311 -0.2579  0.0309
44205W        W52805   0.824   6.616  12.561 -0.3621 -0.0233 -0.0777
44206W        W52806  18.615   1.453  25.856  0.0271 -0.0802  0.1632
44207W        W52807   3.426   1.540  11.490  0.0061  0.2855 -0.1311
44208W        W52808   6.576   1.917  26.958 -0.1794  0.0997 -0.1141
44209W        W52809  23.773   6.906  28.572 -0.0289 -0.1360 -0.2277
44210W        W52810  24.601   6.417  27.331  0.1441  0.0897  0.0070
44211W        W52811   9.170   2.817  29.094 -0.1746 -0.1904  0.1702
44212W        W52812   5.844   0.071  29.171  0.0607  0.0489  0.1613
44213W        W52813  17.731   4.918   1.017  0.5008  0.0705  0.1775
44214W        W52814  20.424   1.221  17.467  0.1959  0.0905 -0.2181
44215W        W52815  16.109   4.853  30.847  0.1298 -0.0186  0.0973
44216W        W52816   2.946   6.841  32.869  0.0195  0.2847 -0.1351
44217W        W52817  17.147   1.438  10.342  0.1178 -0.0419  0.0870
44218W        W52818   0.692   3.692  22.614  0.0863 -0.2122  0.0034
44219W        W52819   7.869   7.497  25.963  0.0601 -0.1233  0.2324
44220W        W52820  16.459   0.197   3.481  0.0664 -0.1460 -0.1903
44221W        W52821  16.661   1.798  30.707 -0.2004  0.4227  0.0988
44222W        W52822  13.267   4.034  16.966 -0.1694  0.0602 -0.1377
44223W        W52823  13.359   0.308  20.186  0.1347  0.2360  0.0243
44224W        W52824  15.546   2.879  30.235 -0.2075  0.1706  0.0342
44225W        W52825   6.089   5.739   5.657  0.2543  0.2555 -0.0397
44226W        W52826   7.295   7.600  27.531  0.0005  0.5131 -0.1807
44227W        W52827  21.672   3.136  10.164  0.2698 -0.2583  0.3429
44228W        W52828  22.566   1.834   6.998 -0.0781 -0.1427 -0.0365
44229W        W52829  11.996   0.268   5.633 -0.1189 -0.3230 -0.1175
44230W        W52830  17.820   3.314  23.548 -0.0237 -0.4424  0.2757
44231W        W52831  17.965   2.457   4.944 -0.0090 -0.2000 -0.0942
44232W        W52832  20.918   6.504  22.995 -0.0899 -0.0173  0.1102
44233W        W52833  13.336   4.524   3.958 -0.1297 -0.2217  0.1196
44234W        W52834   5.629   2.731   0.032  0.0257 -0.1263  0.1666
44235W        W52835  14.331   3.990   6.983  0.0123 -0.0829 -0.0684
44236W        W52836  22.922   6.883   9.271  0.0665  0.1632  0.0880
44237W        W52837  21.333   0.874  29.241  0.3068 -0.1487 -0.0556
44238W        W52838  10.195   1.086  21.523  0.2255  0.0339 -0.3486
44239W        W52839   5.928   0.806  17.499  0.3098  0.1238  0.0464
44240W        W52840  21.357   3.076   1.155  0.0667  0.1162 -0.2439
44241W        W52841  14.266   2.040  17.980 -0.0011  0.2095  0.2145
44242W        W52842  18.346   2.913   2.835  0.2029 -0.2698  0.0496
44243W        W52843   8.990   0.479  21.294  0.2949  0.1249  0.0952
44244W        W52844  12.846   4.158   1.584  0.0157 -0.3784 -0.0417
44245W        W52845  17.125   7.005  25.795 -0.0807 -0.2395 -0.2392
44246W        W52846  18.862   7.115   7.151 -0.0722  0.0039  0.1790
44247W        W52847  23.723   4.185  27.529  0.1081  0.2259  0.0462
44248W        W52848  14.609   6.240  25.365  0.0458  0.1134  0.0610
44249W        W52849   5.588   2.033  11.037 -0.0298 -0.1729  0.1355
44250W        W52850   2.341   5.039  10.170 -0.0817  0.0619 -0.2078
44251W        W52851   1.217   0.459  23.959 -0.2876 -0.0791  0.0321
44252W        W52852   0.596   1.605   8.928  0.1396 -0.3359  0.1129
44253W        W52853  20.761   7.638  24.711  0.1292 -0.2558  0.0140
44254W        W52854  12.013   1.985   4.628  0.1522 -0.2904  0.3062
44255W        W52855  23.404   0.263   6.214  0.0160  0.1816 -0.1820
44256W        W52856  17.558   6.180  27.926  0.0511 -0.2575  0.1404
44257W        W52857  15.314   4.572  16.373 -0.2400  0.1906 -0.1527
44258W        W52858   8.575   7.303   4.456  0.0120 -0.0056  0.2231
44259W        W52859  21.308   0.385  21.104 -0.1591 -0.0445 -0.2419
44260W        W52860  19.783   0.093  19.639 -0.0630 -0.2788 -0.0623
44261W        W52861  13.736   0.299  24.514 -0.3351 -0.2656 -0.0567
44262W        W52862   8.529   6.075  11.052 -0.1585 -0.0855  0.1836
44263W        W52863  13.213   2.268  20.043  0.0720  0.1224  0.3655
44264W        W52864   8.541   5.004  23.521 -0.2168 -0.2080  0.1508
44265W        W52865  15.694   0.181   6.811 -0.2821 -0.0360  0.4469
44266W        W52866  14.315   7.116  21.863 -0.1148 -0.2166 -0.2715
44267W        W52867   5.953   0.397   0.932 -0.0423 -0.2350 -0.2386
44268W        W52868   3.800   0.145  23.627  0.2085 -0.1498 -0.0555
44269W        W52869   2.165   5.667  30.360 -0.2274  0.1511 -0.1185
44270W        W52870   9.950   3.065  31.846 -0.1524  0.0517  0.1066
44271W        W52871  16.645   2.812  29.954 -0.1574  0.1947  0.2792
44272W        W52872  22.430   1.720  20.809 -0.0353  0.1562 -0.1721
44273W        W52873   5.238   3.734  32.058  0.0486  0.1384 -0.3073
44274W        W52874  10.104   2.329  30.058 -0.0666 -0.2231 -0.1039
44275W        W52875   1.134   5.090  24.165 -0.0914  0.2006  0.0258
44276W        W52876  15.282   4.598  31.821 -0.1896  0.0815  0.3130
44277W        W52877   8.508   1.861  10.225  0.2314  0.0252 -0.3439
44278W        W52878  23.425   4.172  23.696 -0.0533 -0.0688 -0.0784
44279W        W52879  19.150   0.788  25.703 -0.1533  0.1856 -0.2062
44280W        W52880  20.781   2.462  18.003 -0.3308 -0.0247 -0.2663
44281W        W52881  12.354   4.194  28.035 -0.2079  0.1357 -0.1344
44282W        W52882  22.205   7.747   7.876 -0.1276 -0.1399  0.1689
44283W        W52883  18.173   7.735  24.386  0.0452  0.1530  0.0674
44284W        W52884  23.671   2.871  32.345 -0.1261  0.1130  0.1105
44285W        W52885  16.637   3.212   0.192  0.0387  0.0875  0.3729
44286W        W52886   8.658   7.212  23.617  0.0141  0.0751 -0.3125
44287W        W52887   9.716   2.301  25.117  0.5287  0.0333 -0.1311
44288W        W52888  15.195   7.715  28.073  0.0529  0.0595 -0.2520
44289W        W52889  14.408   5.160  30.335  0.2724  0.1450 -0.1859
44290W        W52890  20.363   4.771   3.798 -0.1141  0.4230  0.0967
44291W        W52891  12.684   2.664  20.334  0.2776  0.0272 -0.1567
44292W        W52892  13.498   6.437  25.277 -0.0241 -0.0219  0.0101
44293W        W52893  14.050   2.155  24.998  0.3117 -0.0537 -0.0122
44294W        W52894  22.103   0.936  23.098 -0.1527 -0.0397 -0.0885
44295W        W52895  14.932   0.428   7.518 -0.0380 -0.0505 -0.2466
44296W        W52896   4.219   1.257  30.480  0.1311  0.3429  0.0634
44297W        W52897  13.442   4.318  30.852 -0.0645  0.0166  0.0852
44298W        W52898   7.940   4.812   1.757 -0.2021 -0.1213 -0.1156
44299W        W52899   3.640   1.365  25.980 -0.1536 -0.0442  0.0988
44300W        W52900  23.496   1.033   5.266 -0.1537 -0.1422 -0.4506
44301W        W52901  19.696   2.366  18.015 -0.1463  0.0941 -0.0047
44302W        W52902   2.651   7.024  29.485  0.1507 -0.3333  0.0831
44303W        W52903  20.997   4.392  31.042  0.0248  0.0308  0.0380
44304W        W52904  24.201   1.882  26.272 -0.2491  0.0650 -0.1871
44305W        W52905   0.220   7.241  15.037 -0.1766  0.1398 -0.1269
44306W        W52906  12.188   5.896  32.186  0.0555  0.1187  0.3025
44307W        W52907  10.996   2.443  23.394 -0.0204  0.0174 -0.0632
44308W        W52908   0.439   1.181   3.226  0.1566 -0.2687  0.1649
44309W        W52909  23.397   4.161  29.405  0.1617  0.0417 -0.2505
44310W        W52910   8.053   6.292   1.146 -0.1002  0.3057  0.0706
44311W        W52911   8.049   2.206  26.309 -0.2857  0.0541 -0.0847
44312W        W52912  24.187   3.550  28.435 -0.2834 -0.1771 -0.0641
44313W        W52913  24.529   6.245   9.450 -0.0885 -0.2847 -0.2249
44314W        W52914  19.872   1.840  24.973 -0.1543 -0.2086  0.0544
44315W        W52915  11.120   1.767  25.428  0.0036 -0.0706  0.1195
44316W        W52916  21.618   1.819  29.954  0.2648 -0.0158 -0.5051
44317W        W52917  20.877   3.832  23.778  0.0283 -0.1461  0.1115
44318W        W52918   2.140   7.503  27.478  0.4153 -0.0316  0.2342
44319W        W52919   2.429   0.588   0.350 -0.1942  0.1628  0.1252
44320W        W52920   5.852   7.462  15.040 -0.1314  0.1740  0.1637
44321W        W52921  22.824   6.692   1.484 -0.0157 -0.2428 -0.0210
44322W        W52922  22.858   7.163   3.534  0.2660  0.0052  0.0575
44323W        W52923   6.204   3.715   1.461  0.0617  0.0509 -0.1842
44324W        W52924  14.642   1.028   6.459 -0.0146  0.1387 -0.0180
44325W        W52925  24.867   4.535  25.227 -0.1967  0.2122 -0.1390
44326W        W52926   9.145   3.334  26.274 -0.2054 -0.1483 -0.2018
44327W        W52927   5.305   1.695  25.592  0.1219  0.1081 -0.1304
44328W        W52928   6.418   2.499  15.612  0.2112  0.0973  0.0821
44329W        W52929  16.380   2.620  16.955 -0.3720 -0.1236 -0.0214
44330W        W52930   1.090   4.319  28.313 -0.0291 -0.1533  0.0070
44331W        W52931  23.876   3.472  14.112  0.0550  0.0425  0.0956
44332W        W52932  11.735   5.437  25.002 -0.0037 -0.1787 -0.1198
44333W        W52933  16.387   2.879   3.668  0.0460 -0.0077 -0.1897
44334W        W52934   7.182   5.447  23.429  0.0167 -0.1481 -0.1816
44335W        W52935  11.151   5.534   1.636  0.3838 -0.0581 -0.1189
44336W        W52936   2.152   6.632   7.439  0.0410 -0.0612 -0.3388
44337W        W52937  14.974   1.048  32.856  0.1470 -0.1747  0.2104
44338W        W52938  11.625   1.557  25.771  0.4172  0.1597  0.1792
44339W        W52939   9.177   6.068  31.120  0.1189  0.2131  0.0160
44340W        W52940  16.871   5.337  29.606  0.0959  0.1031 -0.1321
44341W        W52941  19.122   0.615  29.806 -0.2399 -0.1835 -0.1106
44342W        W52942   1.225   1.620   3.483 -0.0367 -0.1653  0.0232
44343W        W52943   4.198   3.438   7.077  0.1133 -0.1694  0.1437
44344W        W52944  11.246   0.892  27.660 -0.2283  0.0379  0.0145
44345W        W52945  13.225   2.229   9.760  0.0846 -0.1418 -0.1555
44346W        W52946  13.172   1.664  20.002 -0.1246  0.0574  0.1062
44347W        W52947  14.318   6.778  16.058 -0.2630  0.0095  0.2699
44348W        W52948  12.636   1.039   2.800  0.1176 -0.0782 -0.3029
44349W        W52949   3.673   3.274  24.822  0.0211 -0.1279  0.1516
44350W        W52950   7.309   1.401  32.475  0.0948  0.0687 -0.1154
44351W        W52951  16.095   3.401  28.789  0.0086 -0.0840 -0.2218
44352W        W52952  18.232   4.593   7.042  0.0588  0.0757 -0.1011
44353W        W52953  20.152   4.796  16.834  0.1811 -0.0736 -0.2405
44354W        W52954  14.626   7.015  24.599  0.1115  0.0562 -0.0961
44355W        W52955   9.276   2.984   2.536 -0.0356 -0.2375 -0.4303
44356W        W52956  13.787   6.692  26.303  0.3400 -0.2195 -0.2911
44357W        W52957  22.551   1.430  13.824  0.0689 -0.1879 -0.2595
44358W        W52958   5.871   6.329   0.622 -0.2346  0.0490 -0.0400
44359W        W52959  16.514   7.780  30.398  0.0849 -0.0227  0.2495
44360W        W52960  24.589   2.418  10.124  0.4375 -0.0738  0.3450
44361W        W52961  22.974   7.040  10.181  0.1221  0.0573 -0.1769
44362W        W52962  18.975   5.402  30.697  0.1052 -0.2175 -0.0641
44363W        W52963   6.648   0.411   3.322  0.2191 -0.0622  0.1873
44364W        W52964   5.002   7.375  12.135 -0.2233  0.1207 -0.2578
44365W        W52965   6.561   7.430  27.638 -0.0314  0.0035  0.1992
44366W        W52966  19.724   5.497  32.427 -0.0549  0.2135  0.0110
44367W        W52967   5.830   2.908  26.958  0.3049  0.1241  0.0314
44368W        W52968   9.746   2.229  28.274  0.1111  0.0000 -0.0561
44369W        W52969   8.447   3.769  27.223  0.0563 -0.1698 -0.2279
44370W        W52970  16.471   6.293   7.962 -0.0310 -0.0882 -0.2413
44371W        W52971  24.554   6.821  29.828 -0.1361 -0.0651  0.2871
44372W        W52972  12.806   6.912  25.156  0.0989 -0.1895  0.1861
44373W        W52973  15.223   0.647   3.131 -0.0533  0.0300  0.1649
44374W        W52974  12.137   0.023   0.258  0.2660 -0.1628 -0.0758
44375W        W52975  23.446   1.368  13.328 -0.1016  0.2143  0.2000
44376W        W52976  21.419   6.786  29.519  0.3327  0.0609  0.4553
44377W        W52977  22.823   6.673  22.418 -0.3544  0.3175 -0.0970
44378W        W52978  11.891   1.230   7.360  0.0722 -0.2122 -0.1230
44379W        W52979  10.384   5.233  27.482  0.2111 -0.0445 -0.0814
44380W        W52980  18.784   1.658  16.238 -0.1533 -0.0142 -0.2331
44381W        W52981  23.170   0.069  32.051  0.1379  0.2243  0.0260
44382W        W52982  18.974   3.764  28.435 -0.0638  0.1109 -0.0329
44383W        W52983  15.266   1.582  26.365  0.0434 -0.3632 -0.0047
44384W        W52984  21.621   2.509  31.385 -0.1570 -0.1101  0.1177
44385W        W52985  14.732   7.135   7.868 -0.1257 -0.3224 -0.1461
44386W        W52986   4.035   0.978  31.956 -0.1289 -0.2725 -0.2816
44387W        W52987   2.887   5.355  26.738  0.1833 -0.0148 -0.2156
44388W        W52988  12.396   5.750  18.918 -0.0058  0.3519 -0.1360
44389W        W52989  14.564   7.771  15.230 -0.3354  0.0449 -0.0737
44390W        W52990  22.160   6.400  11.726 -0.0033  0.0777  0.4178
44391W        W52991   2.309   4.616   3.121  0.0245  0.2654 -0.0699
44392W        W52992  22.671   4.438   5.167 -0.1717  0.1253  0.2939
44393W        W52993  21.058   7.400  17.792 -0.0810 -0.0861 -0.0994
44394W        W52994  10.969   6.865  31.475  0.2231  0.2098 -0.2334
44395W        W52995  11.268   0.901   0.830 -0.2589  0.2020  0.0386
44396W        W52996   6.178   4.167   2.767 -0.1215 -0.1271 -0.2780
44397W        W52997  24.698   1.163   3.759  0.3227 -0.1852 -0.2978
44398W        W52998   6.109   7.058  28.767  0.0110 -0.3293 -0.2211
44399W        W52999  12.927   5.676  32.639  0.2181  0.1262  0.0913
44400W        W53000   2.035   3.353   2.921 -0.2972  0.0270 -0.0291
44401W        W53001   4.406   6.455   4.639  0.0835  0.0823 -0.1450
44402W        W53002  18.891   1.957  23.335 -0.1691 -0.3104  0.0671
44403W        W53003  22.016   2.593   8.951  0.0758 -0.4115 -0.0798
44404W        W53004   4.489   7.591  25.205  0.0196  0.2603  0.0955
44405W        W53005   3.919   5.287   4.030 -0.0388 -0.0558 -0.1364
44406W        W53006   1.283   4.072   6.067 -0.2886  0.0115 -0.1585
44407W        W53007  22.116   3.972   7.933 -0.2329  0.1012  0.1179
44408W        W53008   7.243   1.704  11.719 -0.1341  0.0916  0.0118
44409W        W53009   2.222   0.608  11.937  0.1743  0.1107 -0.1306
44410W        W53010  19.208   0.954  20.179 -0.0924  0.1914  0.0186
44411W        W53011  11.189   3.905  11.750  0.1384  0.3759  0.1448
44412W        W53012   3.268   2.080  13.120 -0.0991 -0.1529  0.2091
44413W        W53013   3.876   4.837   4.561  0.0339  0.0229  0.0670
44414W        W53014   5.407   3.534  16.877  0.2276 -0.0731 -0.3469
44415W        W53015   6.732   5.588   3.775  0.2365  0.0534 -0.0428
44416W        W53016   6.609   1.014  26.376 -0.1463 -0.1747 -0.1538
44417W        W53017  21.778   6.468  30.638 -0.0779 -0.0658  0.1379
44418W        W53018   0.143   3.671  32.390 -0.2723  0.1025 -0.1190
44419W        W53019   0.540   5.442  26.350  0.3056 -0.0208  0.1723
44420W        W53020   7.059   4.829  10.509 -0.1926 -0.0826 -0.1231
44421W        W53021  24.848   6.383  24.268 -0.2162 -0.2428  0.0269
44422W        W53022  21.943   0.192  29.873 -0.1530 -0.3822  0.0964
44423W        W53023  23.718   0.947  27.228 -0.2230  0.2757 -0.3593
44424W        W53024   7.610   5.708  32.302 -0.0623  0.0264 -0.2320
44425W        W53025  14.024   2.328  24.009 -0.0550 -0.1979  0.0067
44426W        W53026   0.980   3.521   8.080  0.2224  0.0346  0.0479
44427W        W53027  22.179   3.046  12.510 -0.2024  0.2714 -0.2272
44428W        W53028   8.983   7.352   5.957 -0.1106 -0.0121  0.1743
44429W        W53029   2.350   6.409   9.156  0.2247 -0.0135  0.0264
44430W        W53030   3.574   5.798   5.317  0.0176 -0.1481  0.1991
44431W        W53031   4.867   3.787  15.506  0.0280 -0.1359 -0.3175
44432W        W53032   7.891   5.586  15.705  0.3163 -0.1709 -0.2415
44433W        W53033  22.278   0.858  13.100  0.3666 -0.1256 -0.2352
44434W        W53034   3.792   3.184  28.282 -0.0804  0.1960  0.1115
44435W        W53035  11.334   5.315  25.341  0.0714 -0.1023  0.0726
44436W        W53036  22.038   0.868  30.977 -0.0215  0.1362  0.2088
44437W        W53037  14.440   1.158   1.850 -0.0779 -0.2299 -0.0080
44438W        W53038  15.906   5.484   6.967  0.1535  0.2263  0.0350
44439W        W53039   2.344   7.477  22.516 -0.1279 -0.1436 -0.0291
44440W        W53040  14.362   1.382   5.837  0.1062 -0.2334  0.0249
44441W        W53041  13.840   6.762   5.122 -0.3744  0.2941 -0.0818
44442W        W53042  14.125   2.707   5.393  0.1903  0.0646 -0.3080
44443W        W53043  18.310   5.528  18.568  0.2529  0.1750  0.2288
44444W        W53044  18.044   5.731  21.900 -0.2319  0.2957  0.0593
44445W        W53045  24.197   3.502   9.869 -0.1182 -0.0503  0.1782
44446W        W53046   6.077   2.244  11.120 -0.4041 -0.0296 -0.3739
44447W        W53047   3.351   5.078  27.696  0.0052 -0.0335 -0.0568
44448W        W53048  18.336   6.536   9.135 -0.3396 -0.0077 -0.0699
44449W        W53049  20.230   0.863   3.922  0.1279 -0.0408 -0.3070
44450W        W53050  21.801   1.973  10.851  0.2620 -0.0334 -0.2517
44451W        W53051  11.945   3.717  24.715 -0.0655  0.2649  0.0760
44452W        W53052  13.033   1.159  22.915 -0.3109  0.0406  0.0477
44453W        W53053  11.115   3.919   0.266  0.1558  0.0003  0.2359
44454W        W53054   6.877   4.470   8.382 -0.3878 -0.0102  0.0193
44455W        W53055  17.956   7.203  20.032  0.3628 -0.1063  0.3049
44456W        W53056  19.796   7.748  24.564 -0.1992 -0.0155 -0.0615
44457W        W53057  11.360   5.870  27.095  0.0107  0.1801 -0.0456
44458W        W53058  21.153   4.237  23.950 -0.0911  0.1065 -0.0389
44459W        W53059  18.614   6.820  28.768  0.2903  0.3256  0.0707
44460W        W53060   0.892   5.748   6.101  0.1628  0.1005  0.2407
44461W        W53061  16.721   0.484  30.260 -0.1142  0.1289  0.1017
44462W        W53062  20.542   5.044  26.037  0.2031 -0.0753  0.0133
44463W        W53063   5.192   4.787  31.810  0.2319 -0.0329  0.3604
44464W        W53064  20.151   5.113  10.841  0.2245 -0.1551  0.1869
44465W        W53065   3.815   4.128  25.108 -0.1872  0.3209  0.1853
44466W        W53066  20.800   3.140  27.629 -0.1716  0.1722  0.0303
44467W        W53067  12.422   3.943  22.069  0.1803  0.0802  0.1319
44468W        W53068   6.196   6.681  25.533 -0.0722  0.1850  0.0443
44469W        W53069  16.372   2.730  31.789 -0.1415 -0.3764  0.2367
44470W        W53070  18.799   3.023  16.098 -0.0762 -0.0262 -0.0026
44471W        W53071  12.619   6.517  22.965 -0.1935  0.0535 -0.1659
44472W        W53072   2.255   3.753   7.512  0.3073 -0.2177  0.0514
44473W        W53073  17.509   5.454   8.546 -0.3062 -0.0055  0.1592
44474W        W53074  11.487   6.039   7.587  0.1642  0.0278  0.0552
44475W        W53075  20.161   6.985  25.092  0.0490 -0.0991 -0.0075
44476W        W53076  14.354   5.326   9.256  0.0039 -0.0113  0.0078
44477W        W53077  20.923   7.562  24.185 -0.1172 -0.1146  0.2143
44478W        W53078  22.423   7.120  19.633  0.0668  0.4732  0.2879
44479W        W53079   8.821   2.816   1.888  0.2470 -0.1165  0.1049
44480W        W53080  12.133   6.727  27.731 -0.2924 -0.0706 -0.0993
44481W        W53081  24.661   3.934  32.340 -0.1233 -0.0269  0.1389
44482W        W53082  23.135   3.356   6.040 -0.2597 -0.3657  0.0625
44483W        W53083  16.459   4.627   4.012 -0.1778 -0.0526  0.3225
44484W        W53084   5.597   1.291   6.258  0.1517  0.1373 -0.1340
44485W        W53085  11.620   0.970  25.110  0.2391 -0.2880  0.2641
44486W        W53086  15.562   0.798  26.781  0.3034 -0.0589 -0.3275
44487W        W53087   9.131   6.761   1.693  0.1303  0.1181 -0.0337
44488W        W53088  20.697   5.617  23.075  0.0801  0.1519 -0.0723
44489W        W53089  11.321   1.710  21.175  0.0557  0.1166 -0.0127
44490W        W53090  18.344   6.237  28.676  0.1709 -0.2953 -0.0329
44491W        W53091  17.568   3.209   9.989  0.0506 -0.1122 -0.0216
44492W        W53092   0.042   5.863   4.832 -0.2633 -0.1693 -0.1111
44493W        W53093   1.650   6.672  14.056 -0.0061  0.0454  0.1136
44494W        W53094  19.854   6.187   3.046 -0.0826 -0.2658  0.0694
44495W        W53095   5.455   0.207   4.435 -0.0252  0.1734 -0.1304
44496W        W53096   5.762   2.081   4.918  0.1030  0.1190 -0.0902
44497W        W53097  23.276   2.544   9.956 -0.1129  0.0160  0.2537
44498W        W53098   5.777   3.544  24.242 -0.0680  0.0347 -0.0458
44499W        W53099   8.480   4.488  30.330 -0.0633 -0.2852  0.0941
44500W        W53100   9.408   6.237   7.153 -0.1287 -0.1033  0.2486
44501W        W53101  14.617   0.199   2.814  0.0339 -0.3424 -0.0571
44502W        W53102   9.535   3.285   2.157 -0.2289  0.2737  0.0859
44503W        W53103  13.091   0.475   0.758  0.3192 -0.1321 -0.0843
44504W        W53104   5.621   1.620  27.181 -0.4444 -0.0007  0.0001
44505W        W53105  24.813   5.116  25.757 -0.1726 -0.1948  0.0833
44506W        W53106  19.302   5.777   9.990  0.3287  0.2436 -0.1377
44507W        W53107   1.263   0.266  23.397  0.0133 -0.3749 -0.1049
44508W        W53108  18.932   3.849  20.856 -0.3160 -0.1366  0.0041
44509W        W53109  21.574   5.720  25.036 -0.0474  0.1335  0.2717
44510W        W53110   1.162   5.526   2.194 -0.1092 -0.1089  0.2321
44511W        W53111  11.551   6.261  18.091  0.1404  0.1223 -0.1385
44512W        W53112   4.065   2.928  27.078 -0.2009 -0.3598 -0.0551
44513W        W53113  16.021   4.046   3.554 -0.2918  0.1005  0.1188
44514W        W53114  15.842   1.650  19.667  0.0575 -0.3678  0.0091
44515W        W53115  22.089   2.235   0.156 -0.1264  0.1846  0.0169
44516W        W53116  21.685   5.219   5.092 -0.1201  0.0738  0.0183
44517W        W53117  16.561   0.612  18.290  0.1645 -0.1035  0.1207
44518W        W53118   1.890   1.946  32.558  0.0285 -0.0887 -0.2821
44519W        W53119  16.005   3.817   1.890  0.0682 -0.1987  0.0809
44520W        W53120  19.118   4.165  28.192 -0.3170  0.2288  0.5839
44521W        W53121  18.949   0.819   8.387  0.1327  0.2199 -0.1532
44522W        W53122   1.222   5.416  26.523  0.2345  0.2965 -0.0043
44523W        W53123  19.618   7.740   3.424 -0.1395 -0.0872  0.0212
44524W        W53124   1.610   4.676  25.423  0.0884 -0.0828 -0.2679
44525W        W53125   3.056   5.793   2.064  0.2538  0.1562  0.2590
44526W        W53126  13.286   0.125  28.158  0.1041 -0.1828  0.2968
44527W        W53127   5.941   1.248   3.675  0.3204 -0.2750  0.3926
44528W        W53128  19.598   3.711  31.054  0.0265 -0.0244 -0.0046
44529W        W53129   4.871   2.308  22.754  0.0217  0.1534 -0.1230
44530W        W53130  23.860   3.571  26.474  0.1025  0.0706 -0.0402
44531W        W53131  24.854   7.584  26.435 -0.0843 -0.3669  0.0741
44532W        W53132   4.156   1.358   9.274 -0.2613  0.4906 -0.2805
44533W        W53133   5.949   7.231  15.471  0.1543  0.0674 -0.0864
44534W        W53134  10.937   0.676   1.182  0.2141  0.1201 -0.1274
44535W        W53135  14.204   0.270  27.888  0.0193 -0.6187 -0.2396
44536W        W53136  12.518   4.479   3.351  0.0216 -0.3290 -0.1691
44537W        W53137   5.098   0.600  28.041 -0.2656 -0.0096  0.1504
44538W        W53138  12.369   3.895  26.134  0.0897 -0.1394 -0.0565
44539W        W53139  11.094   4.521  23.164  0.1987  0.1020 -0.1398
44540W        W53140  13.680   6.255  26.662 -0.0031  0.2334  0.1008
44541W        W53141   9.840   5.170  24.386 -0.0704  0.2762 -0.0931
44542W        W53142  23.403   0.086  10.093  0.1927  0.0467 -0.0246
44543W        W53143   7.164   7.377  11.612 -0.1410 -0.1962  0.0884
44544W        W53144   3.624   5.362  28.515 -0.2621 -0.0556 -0.0041
44545W        W53145   0.649   3.489   3.561  0.1870 -0.0144  0.0267
44546W        W53146   1.783   5.444  22.073 -0.0862 -0.3282 -0.1609
44547W        W53147  13.669   4.511  25.041  0.0531  0.2477  0.0505
44548W        W53148  15.367   5.271   4.157 -0.1238  0.5020  0.3139
44549W        W53149  16.775   2.930  18.810 -0.0039  0.1301  0.1731
44550W        W53150   0.878   1.770  24.830 -0.1816 -0.0296 -0.1125
44551W        W53151  18.957   1.810   3.531  0.1406  0.4764  0.2677
44552W        W53152   0.465   7.293  23.331 -0.0299  0.0116  0.2560
44553W        W53153  16.505   6.356  17.348  0.0707 -0.2058 -0.0775
44554W        W53154  16.004   2.482  25.056  0.0566 -0.0814  0.3208
44555W        W53155  20.068   2.084  18.429  0.2817 -0.1680 -0.2974
44556W        W53156   8.011   2.830  28.751  0.2723 -0.1654  0.1069
44557W        W53157  24.821   7.445  21.346  0.0740  0.0379 -0.0279
44558W        W53158   3.289   1.684  12.809  0.0093 -0.0812  0.2347
44559W        W53159   6.501   6.476  32.386  0.1175 -0.2361  0.0698
44560W        W53160   2.238   0.235   4.689  0.0037 -0.0261  0.3072
44561W        W53161   2.202   4.373   0.481 -0.3366  0.0198 -0.0324
44562W        W53162  17.856   2.440  16.438  0.3707 -0.1324  0.2491
44563W        W53163  15.581   2.767  15.918  0.1024  0.1571  0.3722
44564W        W53164  12.891   3.129   2.871 -0.2334 -0.0895 -0.2542
44565W        W53165   0.451   1.326  26.230 -0.0430 -0.2024  0.1128
44566W        W53166   7.323   6.501  30.132 -0.1005  0.0397  0.1551
44567W        W53167  14.473   2.098  21.746 -0.0727 -0.0248  0.1121
44568W        W53168   5.888   0.653   6.985 -0.2449 -0.2540 -0.1567
44569W        W53169   1.658   5.133  27.180 -0.3157  0.1988 -0.2563
44570W        W53170  17.485   5.343  15.920  0.1497  0.2034  0.0087
44571W        W53171  18.462   5.472  21.154  0.0622  0.4189 -0.4837
44572W        W53172   3.790   2.185  31.968  0.1492 -0.1551 -0.0933
44573W        W53173   5.273   3.348  14.097  0.0112 -0.1394 -0.2650
44574W        W53174  20.421   3.916  17.227  0.0808  0.1957  0.0352
44575W        W53175   5.792   2.069  24.994  0.4212 -0.0421 -0.0020
44576W        W53176  16.291   6.482  32.985  0.0403  0.0551  0.2882
44577W        W53177  10.729   7.730   4.258 -0.2546 -0.0496  0.1699
44578W        W53178   7.612   0.622   0.148 -0.2083  0.1089  0.1059
44579W        W53179   5.690   5.474  25.928 -0.0119 -0.1999  0.1539
44580W        W53180   3.864   3.592   6.168  0.0986 -0.0359 -0.3157
44581W        W53181  20.851   3.519  32.050  0.1954 -0.2062  0.0494
44582W        W53182   6.888   5.278  15.611  0.0031 -0.0572  0.2259
44583W        W53183   4.642   4.723   8.126 -0.1555 -0.3207  0.2213
44584W        W53184   2.636   5.127  23.406  0.0337  0.0329  0.1555
44585W        W53185  20.176   5.778  30.891 -0.2060 -0.2505 -0.1492
44586W        W53186  24.183   4.773   7.326 -0.2553 -0.2197 -0.4126
44587W        W53187  10.181   2.302   3.336  0.1988  0.0355 -0.2927
44588W        W53188   0.260   0.334   9.229 -0.0997 -0.0216 -0.1425
44589W        W53189  24.501   0.982  15.230 -0.1082 -0.1597  0.2178
44590W        W53190  12.926   3.248   9.016 -0.1096 -0.3071  0.4001
44591W        W53191  10.628   1.047   9.319  0.3812 -0.1338  0.0661
44592W        W53192   7.268   4.672   4.947  0.1932  0.0620  0.1915
44593W        W53193  20.042   2.326  26.751 -0.1652  0.0538 -0.2806
44594W        W53194   2.825   5.253  25.370  0.1119  0.1676  0.2127
44595W        W53195   3.957   4.758   2.651 -0.0039 -0.4158 -0.1864
44596W        W53196   3.618   0.765  28.549  0.2256  0.2338 -0.1823
44597W        W53197   3.098   2.953  29.782  0.0954  0.1165  0.1470
44598W        W53198   8.722   5.829   4.566 -0.1848  0.0264  0.1475
44599W        W53199   4.502   5.244   9.554 -0.0380  0.0287 -0.0496
44600W        W53200  11.602   0.675   7.826  0.1795  0.2695 -0.0034
44601W        W53201  16.181   5.348  32.471  0.0166  0.2513 -0.1334
44602W        W53202   7.706   6.991  32.086 -0.0229 -0.1964  0.0677
44603W        W53203  18.107   6.464  27.921 -0.1438  0.0250  0.2739
44604W        W53204  17.755   5.826  26.340 -0.0093 -0.0298 -0.2165
44605W        W53205  12.237   4.775   0.369  0.2975  0.0517  0.1393
44606W        W53206  22.271   0.567  13.543  0.0422 -0.2595  0.0964
44607W        W53207  12.439   3.483  23.449 -0.3207  0.0897  0.1066
44608W        W53208  17.027   4.130  28.837 -0.1637  0.0731  0.3684
44609W        W53209  12.518   7.244   0.984 -0.1496 -0.2783  0.0667
44610W        W53210   8.937   7.785  12.495 -0.0989 -0.2471 -0.1421
44611W        W53211  10.911   7.443  27.704  0.0773  0.0803 -0.0474
44612W        W53212   5.031   3.089  17.701 -0.3707  0.2569 -0.0104
44613W        W53213   4.218   6.665   2.742 -0.2089  0.0985  0.3466
44614W        W53214   0.277   5.068  11.382 -0.1495 -0.1105  0.2124
44615W        W53215  18.027   6.944  14.957 -0.2039 -0.2100 -0.3466
44616W        W53216  12.880   4.856  26.346 -0.0096 -0.0951  0.3084
44617W        W53217  24.390   6.684   4.176 -0.2972 -0.0094  0.0700
44618W        W53218  18.188   1.060   0.582 -0.3048  0.2971 -0.0007
44619W        W53219  12.274   4.238  30.250  0.1946  0.1917  0.1821
44620W        W53220   2.484   6.269  10.494 -0.3509  0.1490  0.0457
44621W        W53221   3.079   1.645  15.356  0.2015 -0.1737  0.2356
44622W        W53222  11.121   1.546  20.676 -0.0865  0.2661  0.4239
44623W        W53223  23.634   4.580   6.935  0.0894 -0.0376  0.0486
44624W        W53224  19.057   3.918   5.583 -0.1924 -0.0343 -0.2491
44625W        W53225   4.849   5.505  27.253 -0.0521  0.0506 -0.1078
44626W        W53226  18.830   6.315   7.480  0.0222  0.1613 -0.0665
44627W        W53227  15.864   0.275   4.230  0.1485  0.2619  0.1356
44628W        W53228   2.165   1.032  31.645 -0.1578 -0.0776 -0.1346
44629W        W53229   8.684   5.414  13.271  0.0503  0.1014 -0.0074
44630W        W53230  11.521   6.160  19.784  0.2818 -0.2343 -0.2642
44631W        W53231   8.990   4.793  28.492 -0.2585  0.0612  0.2253
44632W        W53232  20.562   0.296   9.438 -0.0958 -0.1360  0.0310
44633W        W53233   9.327   0.313  20.903  0.5189 -0.1126  0.2867
44634W        W53234   5.714   2.509   1.420 -0.0570 -0.1531  0.1373
44635W        W53235  10.215   6.086   5.850  0.0931 -0.0863 -0.0955
44636W        W53236  14.915   1.508   7.484 -0.1544  0.2257 -0.0203
44637W        W53237  11.403   2.810   2.555 -0.3442  0.3944  0.0110
44638W        W53238   9.485   3.366   5.762 -0.0203 -0.1335 -0.0226
44639W        W53239  17.289   2.055  27.035  0.0645 -0.2811 -0.2214
44640W        W53240  15.226   2.303   7.773 -0.0647  0.0776  0.1511
44641W        W53241  15.171   4.318  22.230  0.2952  0.1634  0.1463
44642W        W53242  16.115   0.907  24.593 -0.1192 -0.0101  0.0699
44643W        W53243   8.252   6.943  32.830 -0.4139  0.0196  0.2299
44644W        W53244   7.057   4.253  25.384 -0.0627  0.3491 -0.1637
44645W        W53245  15.809   5.452   4.297 -0.1151  0.0902  0.0619
44646W        W53246  24.174   1.121  21.935  0.0080  0.0714 -0.0241
44647W        W53247   9.250   4.201   3.922  0.1786  0.0668  0.1541
44648W        W53248  16.380   3.288  24.801  0.0536 -0.1073  0.0957
44649W        W53249   5.238   0.629  27.509  0.1719 -0.3668 -0.1404
44650W        W53250  22.840   5.089  30.891 -0.0064 -0.0236 -0.1887
44651W        W53251   1.465   2.015  11.934  0.0832  0.0368  0.0335
44652W        W53252  11.104   4.895  25.283  0.1045  0.0584  0.1904
44653W        W53253   8.081   2.552  24.569 -0.2418  0.1636  0.1976
44654W        W53254   0.088   5.022  20.672 -0.4283  0.0804  0.1470
44655W        W53255   9.869   0.037  11.682 -0.0631  0.2012  0.0260
44656W        W53256   5.030   4.276  26.363 -0.0847 -0.0426  0.5362
44657W        W53257   4.240   1.204  24.854  0.1673 -0.0770 -0.0032
44658W        W53258   8.095   1.877   1.822  0.1454 -0.2106  0.0745
44659W        W53259  13.799   7.194  31.202  0.1757  0.0244  0.2915
44660W        W53260   0.761   5.960  32.463  0.1296 -0.0759  0.2415
44661W        W53261   4.641   3.099  22.666 -0.3413  0.0342  0.0034
44662W        W53262   8.055   5.090   9.216 -0.2538 -0.3368 -0.1787
44663W        W53263   7.234   6.908  24.728  0.3378 -0.0423  0.1320
44664W        W53264   7.867   0.432   7.112  0.0612 -0.0040  0.0141
44665W        W53265  21.676   0.275  11.708  0.0326 -0.1050 -0.2125
44666W        W53266  18.140   3.612  22.301 -0.0276 -0.0306 -0.2082
44667W        W53267  13.627   4.612   6.950  0.1758 -0.0912 -0.0621
44668W        W53268  16.684   5.139  21.506  0.0817  0.0737  0.0392
44669W        W53269  18.966   7.037   2.720  0.0763 -0.4289  0.0797
44670W        W53270   5.352   1.079  28.126  0.1436 -0.2128 -0.3318
44671W        W53271  15.681   6.337  29.512 -0.0740  0.1942 -0.2059
44672W        W53272  15.735   5.996   1.164  0.4388  0.0555  0.0414
44673W        W53273  23.861   4.587  29.587  0.2864 -0.0794 -0.1498
44674W        W53274   5.690   6.842   7.615 -0.0864 -0.2605  0.0068
44675W        W53275   4.370   4.340  14.580  0.2533  0.2233  0.0853
44676W        W53276  18.271   7.445  27.351  0.1330  0.0688  0.1787
44677W        W53277  21.935   5.805   5.665 -0.2618 -0.1371  0.0027
44678W        W53278  20.558   6.937  31.352 -0.0249  0.0068 -0.2708
44679W        W53279   8.716   7.545   4.005 -0.1088  0.1670  0.0069
44680W        W53280  11.978   1.966  11.523 -0.1609 -0.2803  0.2394
44681W        W53281   0.390   0.011   9.675 -0.2423  0.0293 -0.2392
44682W        W53282  24.042   0.261  26.875  0.1221 -0.0390 -0.1375
44683W        W53283  24.349   2.859  24.121  0.0829  0.4128 -0.1956
44684W        W53284  13.789   1.176   8.903 -0.2060  0.1563 -0.1507
44685W        W53285   0.083   2.143  10.047 -0.0928  0.3172  0.1181
44686W        W53286  23.675   2.701   7.809 -0.1112  0.0876 -0.0251
44687W        W53287  15.007   2.765   7.838 -0.3083 -0.3250 -0.1145
44688W        W53288  20.934   5.582   4.131 -0.1666  0.1371  0.1315
44689W        W53289   5.435   6.727   5.092  0.0271 -0.1129  0.0202
44690W        W53290   7.737   4.766   8.336 -0.1572 -0.2545 -0.0539
44691W        W53291  15.257   4.840   1.339  0.1863 -0.2481  0.0352
44692W        W53292  19.636   1.945   1.494  0.2098 -0.2033 -0.0852
44693W        W53293   7.827   0.399   9.109 -0.0605  0.0060  0.2350
44694W        W53294   9.946   1.445  28.342 -0.0129  0.0369  0.2788
44695W        W53295   2.397   5.391  24.415 -0.4999  0.0641 -0.0790
44696W        W53296  14.953   6.652  26.051 -0.1979 -0.2434 -0.2661
44697W        W53297   9.121   4.567   7.227  0.1710  0.0438 -0.4218
44698W        W53298  12.635   7.693  21.963 -0.0377 -0.1409  0.1906
44699W        W53299   5.208   1.062  29.436  0.0163 -0.1595  0.1204
44700W        W53300  22.991   6.150  27.460 -0.3350  0.0086  0.2564
44701W        W53301  11.618   6.545  31.163 -0.2515 -0.0584  0.2995
44702W        W53302  15.901   0.826  31.267  0.0211  0.1572 -0.0455
44703W        W53303   6.511   7.434  10.773  0.0031 -0.2566  0.1632
44704W        W53304  18.230   1.191   1.614  0.0282 -0.1483  0.0573
44705W        W53305   0.469   5.542  29.763 -0.2150  0.1767 -0.0886
44706W        W53306   3.352   7.707  11.473  0.3368 -0.0970  0.1001
44707W        W53307  15.542   4.600  22.016  0.2337 -0.1609  0.1035
44708W        W53308  22.898   2.140   2.535 -0.0649  0.0495 -0.0491
44709W        W53309   4.030   5.063  11.537 -0.1467 -0.1323 -0.0128
44710W        W53310  17.213   6.617   3.702  0.0291 -0.4845 -0.2034
44711W        W53311  13.443   6.673  18.844  0.1358  0.1998  0.3952
44712W        W53312   4.138   7.727  10.378 -0.1658 -0.0461  0.2011
44713W        W53313  19.780   3.534  30.548 -0.1807 -0.1783  0.1989
44714W        W53314  20.083   3.209   2.192 -0.2377 -0.4499  0.0971
44715W        W53315  11.646   5.903  20.580 -0.0002  0.0494 -0.0727
44716W        W53316  23.533   6.259  31.492  0.1539  0.1179  0.2174
44717W        W53317   4.972   2.997  10.351  0.1137  0.0359  0.0228
44718W        W53318  23.416   4.786   0.281 -0.0211 -0.3043 -0.0909
44719W        W53319   9.594   5.904  11.459 -0.1193  0.1550  0.0011
44720W        W53320   5.368   2.488   0.519  0.1442  0.0632 -0.2314
44721W        W53321  24.691   7.051  13.614  0.3405 -0.1819  0.1626
44722W        W53322   1.026   0.449   2.041 -0.2696 -0.2314  0.1588
44723W        W53323   5.521   5.205  15.968 -0.3749  0.2608 -0.1657
44724W        W53324   4.682   4.174  25.039  0.1296 -0.2218  0.2502
44725W        W53325  17.480   4.811   5.957  0.2015  0.0136 -0.0101
44726W        W53326  17.289   7.765  32.858 -0.1510 -0.2317 -0.0165
44727W        W53327  18.293   7.323   4.476  0.1736  0.2781  0.0345
44728W        W53328  23.867   2.176   6.554 -0.1523 -0.1056 -0.0867
44729W        W53329  11.103   6.618   6.910 -0.0859 -0.2021 -0.0212
44730W        W53330  15.915   2.559  28.659  0.1514 -0.0250 -0.1762
44731W        W53331   9.969   2.449   2.673 -0.0908  0.0456 -0.0729
44732W        W53332  23.907   1.328   4.340 -0.2008  0.1294 -0.2774
44733W        W53333  17.011   0.812  26.703 -0.0404 -0.0329  0.0980
44734W        W53334  12.397   6.902  19.412 -0.0037  0.1268 -0.1515
44735W        W53335  22.271   1.011  25.993  0.1691 -0.0210  0.0592
44736W        W53336  11.332   3.080  24.925 -0.1719  0.0927  0.0434
44737W        W53337   5.924   3.310  29.417  0.2129 -0.1710 -0.0784
44738W        W53338   6.155   2.704   6.578 -0.0916 -0.1466 -0.0519
44739W        W53339  10.756   2.349  28.399 -0.1264 -0.0725  0.2716
44740W        W53340  19.478   1.235  30.387 -0.0870  0.0248  0.1575
44741W        W53341  18.008   5.804   4.083  0.1586  0.0051 -0.2872
44742W        W53342  21.251   0.472  18.326  0.1140 -0.2662  0.2287
44743W        W53343  20.467   4.092  21.582 -0.1176  0.1129  0.0186
44744W        W53344  12.098   7.420   7.859  0.1722  0.1608 -0.2667
44745W        W53345   4.881   6.951   5.773  0.0574 -0.2118 -0.1093
44746W        W53346   7.929   5.426  13.650 -0.0666 -0.1604 -0.2113
44747W        W53347  17.381   3.665  22.742 -0.0279 -0.0919  0.0531
44748W        W53348   7.093   7.247  24.163  0.3247 -0.1626  0.0374
44749W        W53349  17.405   3.858  25.658 -0.4147 -0.0784 -0.0307
44750W        W53350   5.864   7.015  14.743 -0.3877 -0.2948  0.1404
44751W        W53351   2.383   5.452   3.393  0.0002  0.1081  0.0730
44752W        W53352   1.373   0.443  29.818 -0.0672 -0.0573 -0.1914
44753W        W53353  18.883   6.193  25.531  0.0946 -0.2438 -0.2490
44754W        W53354   8.122   6.141  23.633 -0.3687 -0.1821  0.0756
44755W        W53355   6.618   7.735  16.258  0.1486  0.1166 -0.0113
44756W        W53356  23.648   6.830  13.551 -0.1228 -0.1279 -0.2179
44757W        W53357  11.757   2.171  30.129  0.0429  0.1078  0.3043
44758W        W53358   7.113   3.040   0.163 -0.3930  0.2220 -0.0055
44759W        W53359   4.617   3.699   8.685  0.1751 -0.2337  0.2967
44760W        W53360   8.395   3.302   0.863  0.0705  0.1566 -0.3096
44761W        W53361  17.394   4.918  28.664  0.0944  0.1891  0.1329
44762W        W53362   2.842   5.379   2.973 -0.0049 -0.2264 -0.2425
44763W        W53363   7.751   5.972   0.729  0.1710  0.1527  0.2278
44764W        W53364   0.840   6.395   4.913 -0.0323 -0.0458  0.0490
44765W        W53365  16.204   3.272   3.952 -0.1460  0.4422 -0.1494
44766W        W53366  10.186   1.193   9.725  0.1809 -0.1693  0.0546
44767W        W53367  11.501   7.384   7.340 -0.1690 -0.0144 -0.1080
44768W        W53368  11.428   6.002  25.784  0.2116  0.0047  0.0028
44769W        W53369  18.184   1.982  28.163  0.1799  0.2438 -0.1177
44770W        W53370  15.153   2.282  32.425  0.1442  0.2944  0.0078
44771W        W53371   7.702   4.519   2.333  0.1009  0.0130 -0.1398
44772W        W53372  23.261   5.444   4.131  0.1325  0.0501  0.0584
44773W        W53373  16.235   1.170   5.675  0.0748  0.2044 -0.3320
44774W        W53374   3.706   5.753  16.318 -0.0059  0.1015 -0.0842
44775W        W53375  23.349   1.076   0.488 -0.1777 -0.0478 -0.1246
44776W        W53376   1.463   1.466  27.659 -0.2429 -0.0176  0.1611
44777W        W53377   9.595   6.896   3.465 -0.0411  0.1264  0.1480
44778W        W53378  11.474   7.743  23.654  0.1089 -0.0830 -0.0209
44779W        W53379   0.696   7.658  13.421 -0.0670  0.0046 -0.0196
44780W        W53380  12.710   1.143  15.589  0.0790 -0.1321 -0.0495
44781W        W53381  15.705   6.959  21.086  0.0449 -0.1521 -0.2241
44782W        W53382  10.359   4.774   2.249 -0.1836  0.0757 -0.3725
44783W        W53383   2.551   3.037  15.013  0.3016  0.0354  0.0607
44784W        W53384   1.958   1.538  25.749  0.0375 -0.2154 -0.2241
44785W        W53385  16.414   2.453   6.196 -0.2011  0.2238 -0.2538
44786W        W53386  21.036   5.619  29.745  0.1832 -0.1060 -0.1024
44787W        W53387   9.730   5.939  12.289  0.1386 -0.4883  0.0776
44788W        W53388  13.018   0.875  21.185 -0.0177 -0.2877  0.0259
44789W        W53389   5.077   2.681  14.463  0.0582  0.2870 -0.1941
44790W        W53390   4.521   4.008   3.966  0.0208 -0.0135 -0.0935
44791W        W53391   8.145   5.359  14.233  0.0369  0.1672  0.1592
44792W        W53392  17.952   6.623   5.464 -0.3090  0.1661  0.1446
44793W        W53393  20.990   2.284   1.533  0.2653 -0.2078  0.1735
44794W        W53394  11.623   1.965  24.691  0.0448  0.4707 -0.0130
44795W        W53395  10.165   5.977   2.663 -0.1797  0.1571 -0.2538
44796W        W53396   7.335   0.811  13.003  0.0020 -0.1690  0.0469
44797W        W53397   7.306   3.741  32.531 -0.1194  0.3591  0.0960
44798W        W53398   1.738   6.909  31.242 -0.0245 -0.0633  0.2094
44799W        W53399  19.036   4.582  30.081  0.0482 -0.0076  0.0763
44800W        W53400  16.480   6.607  26.524 -0.1240 -0.0476  0.0439
44801W        W53401  16.394   5.981  20.511 -0.1236 -0.1160  0.0680
44802W        W53402  18.131   5.165  17.320  0.1663  0.1590 -0.0086
44803W        W53403   4.979   0.519  25.108 -0.3218  0.0294  0.0096
44804W        W53404   8.402   5.796  32.593 -0.0558  0.1760  0.1933
44805W        W53405   3.772   2.928   3.849 -0.1094  0.0671  0.3694
44806W        W53406  17.102   0.484   4.856  0.1444  0.1360  0.3668
44807W        W53407  22.363   6.876  27.906  0.0192 -0.1555  0.0633
44808W        W53408  24.526   1.238  24.665 -0.4215 -0.0828 -0.0649
44809W        W53409   0.683   5.249  25.222  0.5538  0.0718 -0.3235
44810W        W53410   6.426   3.266   1.794  0.1047  0.0317 -0.0738
44811W        W53411   4.069   5.652   1.784  0.1122 -0.1946 -0.2533
44812W        W53412  20.431   4.096   5.643  0.0837 -0.0504  0.2677
44813W        W53413   0.586   2.230  25.630  0.1302 -0.2198 -0.2651
44814W        W53414   3.691   0.769   8.691 -0.2886 -0.0576 -0.0041
44815W        W53415  12.974   1.172  30.537 -0.0912  0.1659  0.0234
44816W        W53416  23.513   3.078  11.747 -0.0103 -0.2066 -0.4457
44817W        W53417  15.681   2.257   4.624 -0.0555  0.3149 -0.0504
44818W        W53418   9.510   1.393  28.706 -0.0930  0.1295 -0.0137
44819W        W53419  21.983   6.259  20.920 -0.1511  0.3515  0.1593
44820W        W53420   1.011   2.686   7.390 -0.1220 -0.0050  0.0439
44821W        W53421  10.335   2.667  29.719  0.2766 -0.2635 -0.1141
44822W        W53422  24.285   1.710   9.181 -0.1664  0.2330  0.0311
44823W        W53423  24.533   7.464  12.497  0.0213  0.0388  0.0531
44824W        W53424   1.280   2.290  31.643 -0.2109  0.0799 -0.0184
44825W        W53425  14.596   1.536  10.738 -0.0214  0.0342  0.3806
44826W        W53426   0.546   2.393  10.304 -0.0060  0.1217 -0.0392
44827W        W53427  16.938   2.096  14.814 -0.2024  0.0292  0.2758
44828W        W53428   5.063   3.499  27.303  0.2768  0.1271  0.2125
44829W        W53429  15.879   6.768  23.700  0.0771  0.0995 -0.1880
44830W        W53430   9.579   3.897   5.996  0.4096 -0.2299 -0.0274
44831W        W53431   7.636   6.672  14.534  0.0247  0.2162  0.0324
44832W        W53432   0.062   6.071  22.095 -0.0549 -0.0164  0.1379
44833W        W53433  17.143   0.684  23.546 -0.0478  0.0564  0.1204
44834W        W53434   5.445   4.946   0.356  0.0050 -0.1865  0.0155
44835W        W53435   7.257   0.569  16.575 -0.1032 -0.1840 -0.2054
44836W        W53436  21.154   6.766   8.857 -0.0536 -0.0795  0.0079
44837W        W53437  10.673   5.367  20.609  0.0106 -0.1011  0.0381
44838W        W53438  12.824   1.412   4.500  0.0300 -0.2219  0.0769
44839W        W53439  23.181   1.204  20.290 -0.3369 -0.0916  0.0108
44840W        W53440  13.852   2.799  17.177  0.0649  0.0239 -0.1883
44841W        W53441   9.038   5.476   1.733 -0.0345  0.1600  0.3974
44842W        W53442   6.520   1.885  15.147  0.1179  0.2548  0.1032
44843W        W53443   6.445   2.843  26.158  0.2798  0.1745  0.1263
44844W        W53444   4.005   4.803  26.842 -0.0239 -0.0161  0.0196
44845W        W53445   6.569   0.639  14.308 -0.2772 -0.2810  0.1349
44846W        W53446   1.557   7.493   8.148  0.0599 -0.0122  0.3658
44847W        W53447  19.902   5.100  18.174 -0.2730 -0.0305 -0.0144
44848W        W53448  14.178   2.441  29.116  0.1629  0.0148  0.1378
44849W        W53449   7.970   4.660  13.407  0.1091  0.1799 -0.4869
44850W        W53450  17.978   5.864  24.560  0.0393  0.2707  0.1376
44851W        W53451   5.560   4.274   1.402  0.1271  0.2843  0.5139
44852W        W53452  12.007   0.224  22.417 -0.0765 -0.1215  0.0269
44853W        W53453  16.767   4.387  18.118  0.2290 -0.0752  0.1737
44854W        W53454   3.318   2.216   1.549 -0.0142  0.2778  0.0584
44855W        W53455  23.435   0.383  29.708 -0.1543 -0.1719 -0.2448
44856W        W53456  24.895   0.007  25.846 -0.0418  0.0324  0.0729
44857W        W53457  22.332   3.825  26.810 -0.4140 -0.1297  0.3281
44858W        W53458  13.790   4.414   6.104  0.0129  0.1588  0.0628
44859W        W53459   3.118   3.205  13.061  0.1493 -0.3114 -0.0048
44860W        W53460   2.938   7.656   3.903  0.2558 -0.0974  0.1637
44861W        W53461  19.172   1.972   4.629 -0.0063 -0.1775  0.1495
44862W        W53462  11.920   4.088   9.479  0.1580  0.0540  0.0419
44863W        W53463  19.852   7.460   7.916  0.2615  0.0400 -0.1013
44864W        W53464   2.518   5.602  26.100  0.2723  0.0162  0.1626
44865W        W53465   9.117   6.962  32.732  0.0573  0.0172 -0.0959
44866W        W53466  12.640   3.348  18.550  0.0101  0.3252  0.0135
44867W        W53467   8.957   0.696  10.365  0.2094 -0.0102 -0.1181
44868W        W53468  15.061   5.203  21.496 -0.3217  0.1102  0.3022
44869W        W53469  24.961   1.315   6.785 -0.0710 -0.3160 -0.0554
44870W        W53470   6.235   4.687  28.827  0.1772 -0.1417  0.1860
44871W        W53471  15.364   4.961  32.630 -0.0113  0.2991 -0.1010
44872W        W53472   3.662   7.140  18.005 -0.3242 -0.1077  0.1206
44873W        W53473  16.773   5.668  17.208  0.1690 -0.2050  0.0460
44874W        W53474  18.703   4.045   6.578  0.1145 -0.1469  0.1060
44875W        W53475  18.664   7.133  16.227 -0.1382  0.1523 -0.0175
44876W        W53476   2.048   2.008   7.940 -0.2124  0.0928  0.2232
44877W        W53477   6.941   6.494   3.791  0.1811  0.1980 -0.1719
44878W        W53478   1.567   1.911  11.434  0.1863 -0.0936 -0.2999
44879W        W53479   0.056   3.014  13.283  0.1250 -0.1102 -0.3519
44880W        W53480  20.961   4.394   8.459 -0.0624 -0.2813  0.0760
44881W        W53481  15.130   1.213   3.917  0.0117  0.0864  0.1540
44882W        W53482   0.348   3.197  29.640 -0.1477 -0.3600  0.1510
44883W        W53483  10.422   6.983  32.901 -0.1888  0.2901  0.0186
44884W        W53484  23.485   3.739   0.322  0.0951  0.0392  0.1030
44885W        W53485  24.297   6.745   9.375  0.3676 -0.1455  0.2656
44886W        W53486  18.522   4.262  30.944 -0.1759  0.2061 -0.1210
44887W        W53487   5.482   3.247   4.623 -0.3889 -0.0533  0.0974
44888W        W53488   6.223   3.697  16.477 -0.4364  0.2978  0.0641
44889W        W53489  13.892   1.460  28.187  0.1274 -0.0683 -0.1778
44890W        W53490   5.825   7.620  28.117 -0.0402 -0.2142 -0.0692
44891W        W53491  21.287   5.278  20.894 -0.1122 -0.1176 -0.3069
44892W        W53492  21.367   5.117  26.854  0.2100 -0.0795  0.1375
44893W        W53493  21.603   3.751   4.468 -0.1315 -0.2293  0.0889
44894W        W53494   8.620   0.514  24.646  0.0775 -0.4778 -0.1224
44895W        W53495  23.036   5.051   8.998 -0.2115  0.4175  0.0741
44896W        W53496  17.755   0.940   3.550  0.1098  0.0303  0.0771
44897W        W53497  19.851   6.143   1.270 -0.1426 -0.0400  0.6046
44898W        W53498   9.723   0.696  28.576 -0.1374 -0.0132  0.2454
44899W        W53499  11.740   3.144   3.936  0.0770 -0.0960 -0.2389
44900W        W53500  24.851   2.300  24.751  0.1501 -0.0658  0.0642
44901W        W53501  19.687   0.578  10.036  0.1421 -0.0844  0.3674
44902W        W53502  14.230   4.592  24.205  0.2050  0.0135  0.2918
44903W        W53503  12.926   6.004  29.947  0.0547 -0.2038  0.3036
44904W        W53504  15.796   1.278  28.419 -0.0157 -0.1798 -0.0923
44905W        W53505  16.854   4.217   8.979  0.0478  0.2950  0.0958
44906W        W53506   5.207   6.276  30.203 -0.2183  0.1973  0.1121
44907W        W53507  10.196   1.860  31.598 -0.1849 -0.2505  0.1563
44908W        W53508  22.237   4.975  33.024 -0.1511 -0.0755  0.0952
44909W        W53509   1.294   2.320  23.748 -0.1529  0.1032 -0.1797
44910W        W53510   0.922   3.916   6.800 -0.2352 -0.0038  0.0734
44911W        W53511  19.313   3.457  23.709  0.1088 -0.0486  0.0584
44912W        W53512   3.975   4.275  10.515 -0.0053  0.2492 -0.0128
44913W        W53513  20.210   6.191  28.816 -0.2946 -0.2127 -0.0533
44914W        W53514  11.740   1.796  26.664  0.1110  0.0262 -0.0451
44915W        W53515   1.017   3.860  25.532 -0.0588  0.3651 -0.2686
44916W        W53516  22.858   6.758  21.878 -0.1331  0.1516 -0.1662
44917W        W53517  18.142   2.383  31.877 -0.0059  0.4389 -0.0142
44918W        W53518  16.108   7.472   7.955  0.0824  0.1714 -0.2725
44919W        W53519   8.558   2.786  26.932 -0.1461 -0.1785 -0.1464
44920W        W53520   7.057   0.498   7.685 -0.1329  0.1773 -0.0389
44921W        W53521  13.036   4.242  29.979  0.0960  0.0452  0.0935
44922W        W53522   6.011   0.851  18.038 -0.0926 -0.0056  0.2854
44923W        W53523   7.192   7.364  30.443 -0.1236 -0.3866  0.2114
44924W        W53524  19.671   4.413   2.831  0.0218  0.2324  0.1876
44925W        W53525  23.909   6.950   2.470  0.0197 -0.1556 -0.0319
44926W        W53526  10.061   0.275   3.891  0.0533  0.0895  0.1164
44927W        W53527  24.884   0.360   0.028 -0.0851 -0.1034  0.0825
44928W        W53528  15.338   3.650  32.985 -0.0226 -0.0966  0.1008
44929W        W53529  22.852   7.045   5.374 -0.0002 -0.0397  0.1186
44930W        W53530   4.870   1.414  26.267  0.0918 -0.4369  0.0749
44931W        W53531   4.283   4.620  17.488  0.3805 -0.2068 -0.1366
44932W        W53532   5.268   0.489  15.066 -0.2177 -0.0340  0.0290
44933W        W53533   6.736   5.786   0.550 -0.1615  0.2926 -0.1498
44934W        W53534  10.588   4.224   7.156 -0.0733 -0.2011 -0.0507
44935W        W53535   1.491   6.044  24.376  0.1915 -0.2114 -0.0752
44936W        W53536  12.189   5.929  18.130 -0.0476 -0.1366 -0.0454
44937W        W53537  23.217   0.154   1.092 -0.1628  0.2579  0.1125
44938W        W53538  13.692   0.765  17.625  0.1036 -0.2465  0.1010
44939W        W53539  14.530   2.137  29.126  0.0162 -0.0842  0.1587
44940W        W53540  15.934   0.399  23.143  0.1346  0.1971  0.1228
44941W        W53541  12.446   0.565  25.696 -0.0424  0.0611  0.2258
44942W        W53542  17.953   3.891   1.680 -0.0855  0.2522  0.0052
44943W        W53543   0.617   5.765   6.524 -0.3809 -0.0126 -0.2302
44944W        W53544  12.377   1.339  17.103 -0.3486  0.0151 -0.0471
44945W        W53545   6.079   1.400  13.169 -0.3265  0.1342  0.2016
44946W        W53546   2.864   5.011   4.163 -0.2187 -0.1118 -0.2531
44947W        W53547  21.074   3.121   8.331 -0.1963 -0.0562  0.2060
44948W        W53548   7.743   3.506   3.773  0.4389  0.1490  0.2300
44949W        W53549   8.650   0.669  25.177  0.2157 -0.1942  0.3895
44950W        W53550   5.990   2.865  16.548  0.1587 -0.1958 -0.0028
44951W        W53551   4.563   5.285  31.621 -0.0140  0.0624  0.1757
44952W        W53552   7.824   4.458  14.283 -0.0227 -0.0401 -0.0767
44953W        W53553  15.291   4.438   7.221 -0.0015  0.1088  0.1729
44954W        W53554   0.733   5.632  22.360 -0.1073  0.1597  0.1102
44955W        W53555  17.495   7.751  25.150 -0.0145 -0.1179  0.1022
44956W        W53556   6.283   1.323  14.942  0.1441 -0.1276 -0.0276
44957W        W53557   1.079   6.713   1.655  0.2785 -0.1239 -0.4601
44958W        W53558  24.896   3.711   4.251 -0.3025 -0.1488  0.3236
44959W        W53559   5.959   1.979   5.803  0.0391  0.2453 -0.3441
44960W        W53560   5.290   5.261  25.784  0.0391 -0.1064 -0.0997
44961W        W53561  18.268   7.186   7.190 -0.3173 -0.2557 -0.0370
44962W        W53562  24.350   6.744  24.561 -0.1875  0.1108  0.1769
44963W        W53563  19.568   0.895  28.563 -0.0033  0.0736  0.1088
44964W        W53564   4.411   4.678   0.256 -0.1453  0.1944  0.2056
44965W        W53565  16.747   6.428  27.376  0.2237  0.0362  0.1434
44966W        W53566  20.496   1.746   5.406 -0.2568  0.0951 -0.3926
44967W        W53567  22.630   2.077   1.751  0.2799 -0.4286 -0.1462
44968W        W53568  17.025   2.143   7.353 -0.1635  0.1651 -0.0583
44969W        W53569  13.867   6.816  26.886 -0.0875  0.2844 -0.1337
44970W        W53570   7.588   1.087   4.024 -0.1469 -0.0060 -0.2744
44971W        W53571  17.946   1.049  27.508 -0.3873 -0.3273 -0.1140
44972W        W53572  12.911   6.897  10.207  0.0952  0.0908 -0.0256
44973W        W53573   1.469   6.174   0.278 -0.1277  0.1253  0.2328
44974W        W53574  11.702   6.582  32.755  0.0381 -0.1742  0.1818
44975W        W53575  12.487   0.710   9.471  0.2976 -0.2438 -0.1625
44976W        W53576  17.923   2.251   8.470 -0.1851 -0.2017  0.3277
44977W        W53577  14.523   2.611  25.181  0.0735 -0.0696  0.0922
44978W        W53578  17.365   2.029  24.910  0.2638  0.1027  0.1174
44979W        W53579  19.307   1.011   3.009  0.1803  0.0990  0.2165
44980W        W53580  10.222   6.392  29.066 -0.1505  0.2268 -0.0983
44981W        W53581  14.749   1.403  23.916  0.3149 -0.0596  0.0803
44982W        W53582  17.165   1.786  23.186  0.2017 -0.1022  0.1710
44983W        W53583  19.975   4.090  28.726  0.0176  0.0821 -0.0631
44984W        W53584   9.475   1.988   5.949  0.2574  0.0931  0.0303
44985W        W53585   6.737   1.957  26.300 -0.2497 -0.0219 -0.2353
44986W        W53586  22.133   0.419  29.471 -0.2618  0.1543 -0.2149
44987W        W53587  18.119   3.645  10.701 -0.1529  0.0389  0.1614
44988W        W53588   8.760   2.851  29.452 -0.0018  0.1315 -0.0876
44989W        W53589  24.429   4.694   6.923  0.1701 -0.0752 -0.0733
44990W        W53590  18.513   2.200  31.002  0.2472  0.1927 -0.1520
44991W        W53591  21.964   7.030  13.485  0.1466  0.1493 -0.2330
44992W        W53592  12.821   0.190  19.022  0.0894  0.0196 -0.1897
44993W        W53593   5.722   5.924  23.792  0.0333  0.1050 -0.2309
44994W        W53594  15.758   3.752  21.542 -0.0257  0.0082 -0.0483
44995W        W53595  24.581   2.564   0.465 -0.0738 -0.2420  0.1576
44996W        W53596  18.839   4.819   4.751 -0.0421 -0.2713 -0.0932
44997W        W53597  24.812   6.609  23.497  0.0351  0.2250  0.1180
44998W        W53598  16.435   2.427   1.657  0.1091 -0.0193  0.2549
44999W        W53599  23.768   5.469   1.217 -0.1157 -0.1123 -0.3848
45000W        W53600  22.966   6.883  32.489 -0.0833 -0.0021 -0.3005
45001W        W53601  14.616   0.641   0.980  0.2309 -0.0749 -0.0909
45002W        W53602   0.840   0.919  31.626 -0.1063  0.0760 -0.0358
45003W        W53603   8.959   4.242  27.842 -0.4424  0.0652  0.1147
45004W        W53604   7.452   0.383   2.104 -0.0872 -0.1149  0.1254
45005W        W53605   8.843   3.240  24.997  0.0672 -0.0512 -0.0699
45006W        W53606  11.657   5.415  20.551 -0.1245  0.0682 -0.3171
45007W        W53607  20.883   6.853  29.174 -0.1164 -0.1505 -0.0529
45008W        W53608  21.098   3.102   4.881 -0.0363  0.0774  0.0233
45009W        W53609   1.490   3.343   7.203 -0.0311  0.2507  0.2586
45010W        W53610  14.240   6.763  29.963 -0.2078  0.3089  0.0199
45011W        W53611   1.215   0.002  25.193 -0.2713 -0.0337  0.1218
45012W        W53612  18.380   0.699   6.102  0.1106 -0.0976 -0.1495
45013W        W53613  13.615   3.989  16.578 -0.1013  0.1357  0.0105
45014W        W53614  15.112   0.088   4.565  0.2104  0.0460  0.1120
45015W        W53615  19.907   5.280  25.519 -0.3499 -0.1571  0.1359
45016W        W53616  13.059   3.351  26.670 -0.2223  0.2129 -0.4884
45017W        W53617  16.932   4.530   4.997 -0.1457  0.1501  0.0467
45018W        W53618  13.504   5.644  28.765  0.0873  0.2158 -0.0260
45019W        W53619  14.599   6.313  21.506  0.0123  0.3880  0.2546
45020W        W53620  21.826   5.306  32.895  0.0171  0.0023 -0.1740
45021W        W53621  12.922   0.869  24.771 -0.1311  0.1977 -0.0819
45022W        W53622  19.726   0.140  29.756  0.3541  0.1056  0.1761
45023W        W53623  17.213   2.716   4.242 -0.1739 -0.0872  0.1824
45024W        W53624  21.130   5.552   8.130 -0.0722  0.0046 -0.1660
45025W        W53625  21.651   6.623  18.311 -0.2840 -0.0174  0.1901
45026W        W53626   5.837   6.605  28.993 -0.0729 -0.0017 -0.0519
45027W        W53627   5.671   5.173   5.700 -0.1040 -0.0393 -0.2255
45028W        W53628  11.769   1.695  29.761 -0.1584 -0.0802 -0.0833
45029W        W53629  16.856   0.242  32.848  0.1643 -0.1207 -0.1982
45030W        W53630  13.605   4.093  19.541  0.1937 -0.0141  0.0532
45031W        W53631   4.231   6.780  11.212 -0.2115  0.2525  0.1241
45032W        W53632  13.357   3.500   6.927  0.1679 -0.0161 -0.2260
45033W        W53633  13.854   1.178  28.624  0.1011 -0.1961  0.1245
45034W        W53634   3.394   2.179  15.309 -0.0451 -0.2880  0.2304
45035W        W53635  13.917   6.615  28.626 -0.0925 -0.0954 -0.0773
45036W        W53636  18.368   1.883  19.551  0.1975  0.2271  0.1462
45037W        W53637  16.106   1.175   8.721 -0.3967  0.3354 -0.1287
45038W        W53638  10.306   7.300   1.949  0.2654 -0.1009  0.1215
45039W        W53639  11.681   2.117  21.220  0.3376  0.1465 -0.0323
45040W        W53640   0.553   7.365  28.739 -0.0185 -0.1764 -0.1476
45041W        W53641  24.186   6.611  10.825 -0.4775  0.0630  0.0055
45042W        W53642  12.929   1.835   2.382 -0.2744 -0.0135 -0.0245
45043W        W53643  18.877   5.336   8.995  0.1731  0.3056  0.0289
45044W        W53644  23.586   4.930   7.309 -0.0261  0.0490  0.0813
45045W        W53645  18.867   0.080  22.792  0.0355  0.1683 -0.0142
45046W        W53646  13.730   4.487   4.855 -0.0648 -0.1184  0.2975
45047W        W53647   5.139   7.065  23.873 -0.1510 -0.3086  0.1013
45048W        W53648   7.452   1.754  16.923  0.2006  0.1279 -0.2184
45049W        W53649  20.393   0.584  17.805  0.2529 -0.0593  0.0250
45050W        W53650  13.465   1.527  32.031 -0.1878  0.2340  0.0060
45051W        W53651  19.458   2.667  16.947  0.3831  0.1439 -0.1371
45052W        W53652   1.913   7.492  22.175 -0.0283 -0.1207  0.0037
45053W        W53653  18.313   5.257   3.099  0.0630  0.0785  0.2381
45054W        W53654  12.281   3.566  28.640 -0.0777 -0.1044 -0.0869
45055W        W53655   4.790   5.146  28.983  0.0664 -0.3407 -0.0952
45056W        W53656   1.610   3.130  16.887 -0.4198 -0.0866 -0.1565
45057W        W53657   9.974   7.203   3.237  0.1533 -0.1125 -0.1619
45058W        W53658  16.675   6.131  25.906  0.1362 -0.0948 -0.0474
45059W        W53659  14.174   7.555  17.762  0.1382 -0.0744  0.1391
45060W        W53660  18.952   3.741   3.312  0.1649 -0.0251  0.0820
45061W        W53661  19.336   4.092  10.304  0.3425 -0.0220  0.0651
45062W        W53662  17.147   5.422  21.651 -0.1829 -0.3035  0.1997
45063W        W53663   8.898   6.593  27.747 -0.3830  0.3429  0.1219
45064W        W53664  22.537   3.866  30.009 -0.0418  0.1295  0.1540
45065W        W53665  22.466   2.914   7.322  0.0365  0.4322 -0.4943
45066W        W53666  20.767   5.282  27.861 -0.0152  0.1300  0.0517
45067W        W53667  15.183   7.477  22.030 -0.2761  0.0607  0.0719
45068W        W53668  15.494   7.117  25.424 -0.2240 -0.1119 -0.0585
45069W        W53669   1.154   1.668  25.299  0.2464  0.0289 -0.0358
45070W        W53670   7.313   3.252  16.284  0.1256 -0.1526  0.3017
45071W        W53671  13.268   0.786  26.039  0.0156 -0.0648 -0.0143
45072W        W53672  11.471   6.365  25.047  0.2787  0.2859 -0.0490
45073W        W53673  13.146   6.630   3.268  0.1458 -0.4558  0.1482
45074W        W53674   0.619   1.351   2.737 -0.1617  0.1331 -0.2059
45075W        W53675  17.732   0.165   4.855  0.1174 -0.2050  0.0435
45076W        W53676  23.882   5.153   4.678 -0.3829  0.0242  0.1723
45077W        W53677  22.075   7.143  23.149  0.3038  0.0160 -0.1457
45078W        W53678   4.811   1.513   3.373  0.0034  0.1172  0.0567
45079W        W53679  14.925   1.925  28.251  0.0332 -0.0381 -0.0063
45080W        W53680   5.635   5.983   8.843 -0.1409 -0.0317  0.0253
45081W        W53681   8.956   2.326  29.270  0.0104  0.0728  0.2709
45082W        W53682  20.713   2.596  10.118  0.1357  0.1243  0.0673
45083W        W53683  22.683   2.169  23.767  0.1083 -0.1132  0.0536
45084W        W53684  15.689   7.038   7.130  0.1525  0.1329 -0.0773
45085W        W53685  18.090   2.377  21.782 -0.1026  0.2411  0.0711
45086W        W53686  12.792   4.893   7.373  0.1624  0.2705  0.0350
45087W        W53687  23.276   3.950  14.581 -0.0060  0.0335 -0.1099
45088W        W53688  14.174   0.702   1.895 -0.1544  0.2962 -0.0470
45089W        W53689   9.362   1.908  24.672 -0.0508 -0.1302  0.2757
45090W        W53690   9.234   5.681  26.468 -0.5441  0.3084 -0.1206
45091W        W53691  16.257   5.653   8.171 -0.0458  0.2271  0.0549
45092W        W53692  10.868   5.723  30.542  0.1283  0.1343 -0.0075
45093W        W53693  17.480   7.638   9.378  0.0199 -0.0042  0.2008
45094W        W53694  24.036   2.945  29.108 -0.4012  0.1346  0.2063
45095W        W53695   9.044   0.901  25.463  0.1131 -0.1275  0.0511
45096W        W53696  21.946   4.007  12.964  0.0159 -0.0847  0.4437
45097W        W53697   1.781   5.020   6.705 -0.3654 -0.1014  0.1708
45098W        W53698  10.011   0.883  27.292  0.1239 -0.1026 -0.0122
45099W        W53699   9.286   5.209  31.555 -0.0468  0.0224 -0.2448
45100W        W53700   7.065   0.158  12.843  0.1348  0.2376 -0.1331
45101W        W53701   5.563   3.671  25.920 -0.1544  0.3719  0.0848
45102W        W53702   9.319   7.774  27.670 -0.1086  0.1171  0.1556
45103W        W53703  18.750   1.574   1.479  0.0899  0.0577 -0.1837
45104W        W53704  15.377   6.133   3.210  0.1945 -0.0135 -0.2392
45105W        W53705  23.675   5.464  19.791 -0.2419  0.2080 -0.1204
45106W        W53706  11.887   7.599  20.108 -0.1166 -0.1205 -0.2626
45107W        W53707  15.292   6.180   1.560  0.0857  0.0358  0.0002
45108W        W53708  19.645   7.780  23.366 -0.2134 -0.1513  0.2008
45109W        W53709  19.405   1.202  29.879 -0.1572  0.1093 -0.2435
45110W        W53710  14.062   6.596  19.997  0.0530  0.3123 -0.0715
45111W        W53711   2.262   3.666  31.789  0.0099 -0.4875 -0.0596
45112W        W53712  13.821   5.166  27.999  0.0526 -0.1493 -0.1059
45113W        W53713  21.044   2.265  32.019 -0.0236  0.3143 -0.2167
45114W        W53714   3.356   2.063  25.295  0.2146 -0.1221 -0.0630
45115W        W53715  20.974   7.494  27.042 -0.0761  0.1400 -0.0719
45116W        W53716  12.701   0.174   1.471  0.1988 -0.3134 -0.0211
45117W        W53717   1.714   4.061  23.709  0.0985 -0.2707 -0.1161
45118W        W53718  10.383   4.978  25.781 -0.0311  0.0611  0.1011
45119W        W53719   9.962   0.963   8.748 -0.1409 -0.0470  0.1635
45120W        W53720   6.164   6.269  31.567 -0.3683 -0.0583  0.0661
45121W        W53721   1.721   3.117  24.126  0.3605  0.0440  0.0329
45122W        W53722  12.868   5.228  33.030 -0.3530  0.2467 -0.1577
45123W        W53723  23.999   4.346  32.126 -0.1824  0.2084 -0.0286
45124W        W53724   3.683   6.307  16.253  0.0003 -0.2907  0.2671
45125W        W53725   4.242   0.750  10.517  0.0336  0.0170 -0.4213
45126W        W53726   8.754   5.170  29.768 -0.1976 -0.0633 -0.1051
45127W        W53727  20.731   1.370  30.998  0.1494  0.1002 -0.1732
45128W        W53728  14.113   7.723  23.133  0.2036 -0.1746 -0.0922
45129W        W53729  11.254   2.483  25.713  0.0360  0.1471 -0.0855
45130W        W53730  24.264   3.986   8.217 -0.0911 -0.2216  0.0036
45131W        W53731  24.322   0.134  28.037 -0.0379 -0.0011 -0.0844
45132W        W53732  13.489   3.461  24.993  0.0973 -0.0401  0.1316
45133W        W53733   8.944   6.064  26.555  0.1399 -0.0677 -0.1130
45134W        W53734  15.097   3.742  24.862  0.1626  0.1089 -0.3481
45135W        W53735  18.940   5.954  24.918 -0.0357  0.0008 -0.1368
45136W        W53736  13.962   4.743  23.807 -0.2110  0.0257 -0.0092
45137W        W53737  19.609   6.750   0.733 -0.0130 -0.1932 -0.3027
45138W        W53738   2.041   7.180  12.835  0.2835 -0.2509  0.0426
45139W        W53739  18.967   5.164  25.719  0.1735  0.1748 -0.1134
45140W        W53740   2.693   4.471  28.015  0.0828  0.1024  0.0155
45141W        W53741  20.724   6.546  27.041  0.2685 -0.0960  0.0671
45142W        W53742   3.263   0.695  16.753 -0.0295 -0.1184  0.0790
45143W        W53743  14.649   1.170  18.340  0.0934  0.2421 -0.0788
45144W        W53744  16.858   3.223   9.828 -0.0900 -0.0409 -0.0419
45145W        W53745  19.546   4.742   3.466 -0.0830 -0.1580  0.2948
45146W        W53746   8.635   7.162  32.318 -0.0476  0.0084 -0.3054
45147W        W53747  21.120   5.175  11.448  0.0579 -0.0560  0.1014
45148W        W53748  11.899   0.379  32.078  0.1842 -0.0418  0.0251
45149W        W53749  16.582   5.705   7.381  0.1270 -0.1490  0.0481
45150W        W53750  14.149   5.352   8.663 -0.0075 -0.3204  0.2208
45151W        W53751   6.811   2.782   1.017 -0.0246 -0.1112  0.0525
45152W        W53752  20.560   7.257   2.484 -0.1149  0.1165  0.1759
45153W        W53753  15.416   1.553  20.945  0.1404  0.1013  0.1341
45154W        W53754   6.099   2.652   3.989  0.0047 -0.2018  0.1019
45155W        W53755  11.840   5.035  25.364  0.0090 -0.1248  0.0670
45156W        W53756   1.878   4.998  32.755 -0.3646  0.2248 -0.0553
45157W        W53757   9.431   3.462   1.700 -0.0995  0.0662  0.1753
45158W        W53758  23.056   1.002   5.391 -0.1484  0.0178 -0.0684
45159W        W53759  15.399   5.917   0.049 -0.1989  0.2541 -0.2602
45160W        W53760  16.036   6.870   8.460  0.2169  0.1957  0.1133
45161W        W53761  21.173   1.786  19.825  0.1661 -0.0868  0.2303
45162W        W53762   3.205   1.933   8.897 -0.0292 -0.0551  0.1516
45163W        W53763   2.963   0.498   0.602 -0.1880  0.2748  0.1249
45164W        W53764  12.256   6.512   4.071  0.1398  0.1651 -0.2237
45165W        W53765   4.520   0.322  12.527 -0.0478 -0.0522  0.1307
45166W        W53766  22.013   4.211  31.845 -0.0659  0.0333 -0.2717
45167W        W53767   4.059   7.311  18.282 -0.1262  0.1046 -0.0059
45168W        W53768  10.375   6.056  29.453 -0.2298 -0.1331  0.0062
45169W        W53769   2.863   3.353  12.353  0.1933 -0.1881  0.0087
45170W        W53770  15.900   4.491   5.312 -0.0383  0.0723 -0.0742
45171W        W53771  21.276   0.634   8.279  0.3182 -0.0390  0.0447
45172W        W53772  19.387   3.175  21.032  0.1657 -0.3375  0.5074
45173W        W53773  20.193   1.369  20.350 -0.0761  0.0863 -0.0735
45174W        W53774  20.025   1.349  21.823  0.2370  0.0050  0.0246
45175W        W53775  22.599   4.217  19.722 -0.1815  0.2328 -0.2515
45176W        W53776  15.501   0.106   8.767  0.0767 -0.2764 -0.2723
45177W        W53777  10.160   0.759  21.943 -0.3535 -0.1183  0.1202
45178W        W53778   2.447   0.613  31.385 -0.2590  0.1632 -0.0487
45179W        W53779  22.212   7.786   6.701 -0.1824 -0.2666  0.2216
45180W        W53780   3.354   2.421   8.685 -0.0096  0.0895  0.0816
45181W        W53781  24.885   1.607  32.978 -0.2389  0.0312 -0.0808
45182W        W53782   7.170   2.738   3.620 -0.1880  0.0732 -0.1958
45183W        W53783   5.449   6.185   0.408  0.0480  0.0855  0.4533
45184W        W53784   1.447   6.978  23.329  0.0235  0.2375  0.0489
45185W        W53785  13.240   1.155  25.070 -0.0384  0.4089  0.1812
45186W        W53786   8.985   6.779   7.071  0.0084 -0.0944 -0.1116
45187W        W53787  12.208   3.457   4.736  0.0440  0.0653  0.0023
45188W        W53788   6.551   4.041   4.081  0.0370 -0.0036  0.1604
45189W        W53789   8.685   0.847  29.486  0.0869 -0.1457 -0.0800
45190W        W53790  17.690   5.887  33.013  0.3615 -0.2842 -0.2395
45191W        W53791   5.793   5.695  10.852 -0.1862 -0.0804  0.0409
45192W        W53792  21.532   3.906  19.219  0.0776 -0.2417 -0.2116
45193W        W53793   4.301   6.159  16.575  0.1773  0.1085 -0.1894
45194W        W53794  11.994   0.771  22.594 -0.0772  0.2536  0.0426
45195W        W53795  10.247   5.641  22.310 -0.0915 -0.0189 -0.2363
45196W        W53796  13.434   5.338   3.066  0.2720  0.0386  0.1678
45197W        W53797   9.427   5.048  32.776 -0.1934 -0.1386 -0.1852
45198W        W53798  17.092   1.183  25.931  0.0016  0.2331 -0.2120
45199W        W53799  17.432   3.505  30.285  0.1619 -0.0786  0.2052
45200W        W53800  23.275   1.754  28.664 -0.2098  0.1599 -0.0505
45201W        W53801  19.120   0.411  19.465  0.2421 -0.3789  0.1298
45202W        W53802  22.300   1.584   3.451 -0.0867 -0.1270  0.1166
45203W        W53803  21.763   4.200   5.214  0.4693  0.0368  0.1507
45204W        W53804  11.208   7.406   2.302  0.1937  0.0325 -0.1605
45205W        W53805   0.691   6.354  11.150 -0.2342 -0.1256  0.1845
45206W        W53806  20.285   3.851   4.687  0.1886 -0.0075 -0.2084
45207W        W53807   1.888   5.446  12.054  0.2066 -0.0662  0.1423
45208W        W53808   5.816   4.404   8.707  0.0882 -0.0214  0.1904
45209W        W53809  19.928   2.213  20.018 -0.0246 -0.1727 -0.0395
45210W        W53810   2.485   1.526   2.033  0.0908 -0.3238 -0.1002
45211W        W53811   3.050   3.503  17.806  0.0957 -0.1338 -0.1763
45212W        W53812  24.298   7.772   0.626 -0.0477 -0.3703  0.0836
45213W        W53813   4.548   4.269  11.209  0.1031 -0.0556  0.2987
45214W        W53814  13.858   4.279  23.636  0.0191 -0.2693 -0.0882
45215W        W53815  17.514   4.320  18.795  0.3436 -0.1071 -0.0334
45216W        W53816  24.735   1.140  26.138  0.2346 -0.1593  0.0335
45217W        W53817  13.184   4.564  18.403 -0.0291 -0.1659 -0.2646
45218W        W53818  13.950   7.049  10.252  0.0101  0.3463 -0.0232
45219W        W53819  15.215   5.194   5.299  0.1052  0.2050 -0.0247
45220W        W53820  11.209   0.935  31.170 -0.3269 -0.2362 -0.2047
45221W        W53821  20.948   7.008  22.183  0.1025 -0.0349  0.1750
45222W        W53822  17.948   2.129  19.763 -0.1331 -0.1154 -0.0918
45223W        W53823  13.857   0.804   6.567  0.2901  0.0791 -0.1143
45224W        W53824  15.878   6.535  22.822 -0.0178 -0.3274 -0.1776
45225W        W53825  23.649   7.432   9.180 -0.0008  0.3743 -0.0344
45226W        W53826  11.441   6.646  10.683 -0.3391 -0.1800 -0.1371
45227W        W53827   5.069   2.682  27.856  0.0041  0.1111  0.1720
45228W        W53828   3.781   5.546  13.985 -0.0830  0.0130  0.4124
45229W        W53829   9.498   5.009   7.003  0.2189  0.2986  0.0055
45230W        W53830   2.035   4.813  25.674 -0.1743 -0.0834  0.2200
45231W        W53831  13.912   6.282   1.585  0.0740 -0.0761  0.0388
45232W        W53832  18.387   2.181   3.912 -0.4648 -0.1129  0.0286
45233W        W53833  22.750   2.521   7.609  0.1798 -0.0066 -0.2641
45234W        W53834  11.721   1.875  32.953 -0.0458  0.1627  0.0306
45235W        W53835   4.706   0.565  27.746  0.0724  0.1209  0.0211
45236W        W53836   3.179   7.106  28.586 -0.1770 -0.1546 -0.2856
45237W        W53837  10.335   7.588  20.421 -0.0204  0.0962  0.3086
45238W        W53838  24.168   0.932  10.855  0.1974  0.1932  0.2014
45239W        W53839  17.284   4.291  15.877  0.2794  0.1498  0.1987
45240W        W53840  12.288   2.207   3.152  0.0120  0.2597 -0.1575
45241W        W53841   7.497   3.540  25.218  0.1475  0.1677  0.1324
45242W        W53842   5.333   6.848  24.944 -0.1437 -0.1629  0.2476
45243W        W53843   3.952   5.744  27.031  0.0399 -0.0157 -0.1360
45244W        W53844  18.353   0.053   2.231 -0.1122 -0.2106 -0.3174
45245W        W53845  19.971   6.372  31.927  0.3139  0.3133 -0.0881
45246W        W53846   5.514   0.026  10.208  0.1128  0.1692 -0.3325
45247W        W53847  23.807   6.238  24.365 -0.3961 -0.1864 -0.0289
45248W        W53848  23.023   6.912  22.817  0.0913 -0.0736  0.0825
45249W        W53849   5.736   3.652  23.673  0.1884 -0.0607  0.0898
45250W        W53850   5.293   6.746  30.998 -0.1287  0.0113  0.0633
45251W        W53851  19.393   2.420  21.737  0.0604  0.0851  0.2546
45252W        W53852   9.150   3.574  11.439 -0.1034  0.1371  0.0206
45253W        W53853  14.975   6.490  19.235  0.2336 -0.1379 -0.1579
45254W        W53854   2.683   1.419   4.515  0.3729 -0.0946 -0.1332
45255W        W53855  18.218   6.847   4.253  0.2769 -0.2167 -0.0660
45256W        W53856  11.323   0.214  30.178 -0.1033  0.3338 -0.1593
45257W        W53857  17.109   3.920  21.176 -0.1376 -0.0303  0.0567
45258W        W53858  22.734   4.591  10.011 -0.2468  0.1585  0.0647
45259W        W53859  23.082   6.619   6.354 -0.2050  0.0628 -0.1312
45260W        W53860  15.629   5.519  26.226 -0.0432  0.0889  0.0355
45261W        W53861   0.462   3.505   0.078 -0.0475 -0.0030 -0.2787
45262W        W53862  16.583   7.192  23.760  0.2955 -0.0743 -0.3164
45263W        W53863  21.240   2.341   9.319 -0.3555 -0.4530  0.1434
45264W        W53864   8.829   1.542   2.577 -0.0550 -0.2182 -0.3269
45265W        W53865  14.245   3.159  18.072 -0.0843  0.1454  0.4698
45266W        W53866   7.162   7.109  16.818  0.3650  0.0559 -0.1070
45267W        W53867  11.786   5.059  10.843  0.0042 -0.2321  0.0270
45268W        W53868  11.615   2.009   9.026  0.1488  0.1789  0.1168
45269W        W53869  16.742   2.565   1.229  0.0665  0.1360 -0.1823
45270W        W53870  14.898   0.621  30.743  0.1500  0.5970  0.0207
45271W        W53871  19.924   4.835  22.090  0.0467 -0.2479  0.0025
45272W        W53872  12.759   4.256  30.999  0.0357 -0.0584  0.2349
45273W        W53873   6.069   1.454  29.764  0.1256 -0.0861  0.1738
45274W        W53874  20.666   4.730  29.915  0.0808 -0.1040 -0.0022
45275W        W53875  15.971   0.087  20.520  0.2643  0.1220  0.2710
45276W        W53876   8.316   5.234  25.572  0.3819  0.0923 -0.1200
45277W        W53877   5.717   6.811  12.594 -0.0198 -0.0398 -0.0584
45278W        W53878   8.381   3.790  30.499  0.3408 -0.0145 -0.1772
45279W        W53879   4.940   0.220   4.341  0.2327 -0.0217 -0.2874
45280W        W53880  23.175   2.773  30.114 -0.0079  0.0887 -0.0865
45281W        W53881   5.668   1.315  28.521  0.0688  0.0378 -0.0665
45282W        W53882  22.069   0.297  10.246  0.0347 -0.1432 -0.2262
45283W        W53883  24.114   1.835   9.607  0.1622 -0.0826  0.2663
45284W        W53884   7.908   2.177  12.951  0.2520  0.0705 -0.2204
45285W        W53885  15.383   3.008  17.610 -0.0702 -0.1703 -0.1549
45286W        W53886   5.782   6.663  14.365 -0.4925  0.0543  0.1623
45287W        W53887  13.946   4.269   1.285 -0.1117  0.1565 -0.0611
45288W        W53888  22.915   4.128  29.727 -0.1316 -0.1439 -0.1962
45289W        W53889  13.771   1.841  21.207  0.1359 -0.4078 -0.1419
45290W        W53890   4.279   5.089   4.350  0.0455 -0.1194  0.2836
45291W        W53891  11.616   3.766  11.369  0.0953 -0.0570 -0.1140
45292W        W53892  24.905   2.327  29.728 -0.0840 -0.0368  0.1292
45293W        W53893   6.287   6.795   6.147 -0.1605  0.3519 -0.1343
45294W        W53894   6.365   4.656   3.035  0.0548  0.1135  0.1369
45295W        W53895  19.339   0.136  24.603  0.2259 -0.0439  0.0162
45296W        W53896   2.240   0.553  14.093 -0.2281 -0.1293  0.0775
45297W        W53897  11.495   1.976  11.626 -0.0270  0.1200  0.2478
45298W        W53898   0.875   5.535  14.222 -0.2575  0.1247  0.1236
45299W        W53899  11.841   0.161   0.653 -0.1514 -0.2962 -0.3941
45300W        W53900   9.565   7.346   5.199  0.0340  0.0043 -0.0676
45301W        W53901  13.669   0.240  26.907  0.2592  0.2455 -0.1652
45302W        W53902  16.035   0.001  30.760  0.3358 -0.0762 -0.0446
45303W        W53903   4.848   2.425  31.247 -0.0860 -0.0410  0.2753
45304W        W53904  14.432   4.294   5.209  0.0400 -0.2788 -0.1267
45305W        W53905  15.591   5.988  27.901 -0.0313 -0.0182 -0.0658
45306W        W53906  10.241   5.830  32.858  0.1706 -0.1048 -0.2112
45307W        W53907  15.011   4.383   6.391  0.1024  0.5324 -0.0858
45308W        W53908  22.382   4.346  26.962 -0.1671  0.0388 -0.0811
45309W        W53909   4.373   2.191  10.542 -0.1487  0.1691 -0.0357
45310W        W53910   1.756   5.313  10.838 -0.2167 -0.1237 -0.0478
45311W        W53911  21.971   3.960   2.192 -0.1191  0.1386 -0.0313
45312W        W53912  13.318   7.473   4.685 -0.0792  0.1330  0.0311
45313W        W53913  10.357   6.162  32.442  0.2835  0.1533 -0.0646
45314W        W53914  14.715   3.767  20.960 -0.2124 -0.3793 -0.1486
45315W        W53915  13.378   5.356   6.102 -0.2145 -0.0582 -0.0144
45316W        W53916  20.740   3.707  19.483 -0.0098 -0.0165 -0.0178
45317W        W53917  12.590   7.334  21.464  0.1087  0.2654 -0.1853
45318W        W53918   9.859   1.575  10.385  0.0674 -0.2665 -0.0321
45319W        W53919  18.826   0.017  25.249 -0.3552 -0.0519  0.1339
45320W        W53920   1.849   6.700  10.963 -0.1250  0.0425  0.1674
45321W        W53921   5.022   4.456   6.129 -0.1007  0.0867 -0.3028
45322W        W53922   9.797   4.635  10.973  0.2967 -0.1743  0.0933
45323W        W53923   4.287   6.550   9.573 -0.1465  0.0953  0.0407
45324W        W53924   2.369   3.253  12.311  0.0666 -0.0744  0.0619
45325W        W53925  16.287   1.390  26.962  0.0826 -0.1293 -0.5889
45326W        W53926  22.012   0.965  24.182  0.3420  0.2263 -0.1406
45327W        W53927  11.615   4.763  27.495  0.1441  0.3234  0.0126
45328W        W53928  16.382   4.357   6.434 -0.0666 -0.2235  0.0608
45329W        W53929  17.815   0.731   6.002 -0.3103  0.0533 -0.3571
45330W        W53930  13.957   3.894  16.128 -0.1702  0.3352  0.1350
45331W        W53931  20.372   1.014   0.360 -0.1453  0.0901  0.1471
45332W        W53932  13.262   2.697  23.732 -0.0440  0.0630 -0.1156
45333W        W53933  12.081   3.363  20.680 -0.2424 -0.0610 -0.1102
45334W        W53934   2.356   4.138  12.220  0.2180 -0.0645 -0.1504
45335W        W53935   6.901   5.548  12.128 -0.0273  0.0717  0.2160
45336W        W53936  18.797   0.584  17.738  0.1677 -0.1484  0.0112
45337W        W53937  16.906   7.655  25.110 -0.0804 -0.1220  0.1427
45338W        W53938  18.502   4.914  24.424 -0.1118  0.1903  0.0825
45339W        W53939   6.990   0.960  22.278  0.1658  0.0054 -0.1437
45340W        W53940  22.284   5.806  23.465 -0.0005 -0.1090 -0.0169
45341W        W53941   9.908   0.501   8.897  0.2775 -0.0834  0.0285
45342W        W53942   8.516   1.341   8.222  0.0716 -0.0014 -0.2641
45343W        W53943   3.239   0.844  27.526 -0.1646  0.1170  0.1167
45344W        W53944   9.240   0.187  27.211 -0.2607 -0.0373 -0.0336
45345W        W53945  12.219   7.714  18.197 -0.1236  0.0533  0.3316
45346W        W53946   9.447   5.002   8.484 -0.1295 -0.0917 -0.0944
45347W        W53947  10.280   3.541  11.872  0.0423 -0.0208  0.0828
45348W        W53948  12.489   0.551  27.128 -0.2697  0.1566  0.0646
45349W        W53949  22.935   5.656  23.070  0.1398  0.1002 -0.0391
45350W        W53950  13.629   5.287  27.174 -0.3504 -0.1080  0.2391
45351W        W53951  21.158   1.894  31.617 -0.1462 -0.0133  0.0699
45352W        W53952  22.797   4.607  29.827  0.3831  0.0223 -0.1052
45353W        W53953  12.033   5.494  19.301  0.1634 -0.0299 -0.2140
45354W        W53954  10.324   7.796   0.751 -0.1997  0.2865 -0.1297
45355W        W53955   7.397   5.295  24.723  0.1863  0.1407 -0.3621
45356W        W53956  11.184   4.236  23.602  0.0597 -0.2395 -0.0091
45357W        W53957   7.332   0.545  24.866  0.0529  0.1521  0.1559
45358W        W53958   3.642   2.196   8.144 -0.3592 -0.0117 -0.0797
45359W        W53959  23.871   2.002  11.452  0.1284  0.1429  0.4343
45360W        W53960  19.269   4.705  23.258 -0.0113 -0.0247  0.1748
45361W        W53961  13.530   5.821  24.515  0.0868  0.1404  0.0595
45362W        W53962  20.598   6.532  28.958  0.1807 -0.1830  0.0100
45363W        W53963  17.020   4.427   6.948 -0.0296 -0.0789  0.1217
45364W        W53964  11.017   2.304  30.266 -0.0808 -0.1492  0.0789
45365W        W53965   0.707   4.577  26.425  0.1740  0.0742 -0.0544
45366W        W53966  13.182   3.466  28.221  0.2094 -0.1143 -0.0293
45367W        W53967  16.450   7.049  31.845 -0.0274 -0.1077  0.1019
45368W        W53968  17.141   7.685   5.521  0.0950 -0.2912 -0.1486
45369W        W53969  14.336   4.225   3.232 -0.3224  0.4153 -0.1710
45370W        W53970   4.477   6.667  16.667  0.2716  0.1530  0.1235
45371W        W53971  13.435   7.617  30.173  0.2012 -0.0827 -0.0618
45372W        W53972   9.560   0.873  22.668  0.0644  0.0077  0.1481
45373W        W53973  10.290   4.349   1.667 -0.3891  0.1520  0.1404
45374W        W53974  23.440   3.705  20.455 -0.2232 -0.2135  0.0459
45375W        W53975   4.774   5.906  12.974 -0.1213 -0.4598 -0.2046
45376W        W53976  19.673   1.006  31.616  0.1245 -0.0911 -0.1117
45377W        W53977  17.811   2.407   9.354  0.1310 -0.0130  0.0940
45378W        W53978   6.268   4.510  12.585 -0.1127 -0.1823 -0.0935
45379W        W53979  19.576   7.027   3.370 -0.1711  0.0684  0.0931
45380W        W53980   4.097   6.459   9.093  0.1691 -0.0990 -0.2146
45381W        W53981   2.113   1.894  25.114  0.3674 -0.1174 -0.1199
45382W        W53982  24.702   5.676  21.769 -0.3017  0.2099 -0.0518
45383W        W53983  18.940   2.009  10.768  0.0017 -0.1097 -0.1512
45384W        W53984  15.948   3.136   8.708 -0.3523  0.0410 -0.0101
45385W        W53985  22.365   1.385  27.395 -0.0472 -0.2265  0.1648
45386W        W53986  24.611   7.609  11.493  0.1450  0.2843  0.1000
45387W        W53987   0.749   7.674   4.922 -0.1418  0.0189  0.0018
45388W        W53988  14.942   6.459  19.924 -0.0107  0.1585 -0.2082
45389W        W53989   0.992   6.264   3.891  0.1941  0.1791  0.1130
45390W        W53990  11.976   1.805  22.250 -0.4389 -0.1393 -0.0570
45391W        W53991  21.469   7.072  20.709  0.0618 -0.0230 -0.1951
45392W        W53992  11.696   2.321   8.104 -0.3278  0.4113  0.2192
45393W        W53993  21.829   7.286   4.734 -0.0945  0.0690 -0.3938
45394W        W53994   1.473   6.911   8.809 -0.2664 -0.3456  0.0074
45395W        W53995  18.735   0.271  30.088  0.1066  0.1243 -0.1788
45396W        W53996  17.614   2.651  24.427  0.2968 -0.0968  0.3751
45397W        W53997   9.659   0.914  26.460  0.0787  0.1686 -0.2166
45398W        W53998  17.778   7.425  28.052  0.0868 -0.2694 -0.1004
45399W        W53999   7.209   4.309   8.669 -0.0439  0.0754 -0.1296
45400W        W54000  24.736   3.154  26.415 -0.2065  0.0767 -0.3146
45401W        W54001   9.048   2.525   8.465 -0.0163  0.1739  0.1600
45402W        W54002  13.992   3.151  20.928 -0.3998 -0.0203  0.1205
45403W        W54003  23.667   5.588   0.118 -0.1632  0.1967 -0.2363
45404W        W54004   2.904   6.588  28.038 -0.0750  0.0507 -0.0022
45405W        W54005  23.392   0.966  22.253 -0.0421  0.1009 -0.0378
45406W        W54006   8.985   1.722   3.761 -0.2670  0.2003 -0.1073
45407W        W54007  22.464   4.020   5.006  0.0801  0.0119 -0.4094
45408W        W54008  21.649   2.380   8.538 -0.2913  0.2552  0.2643
45409W        W54009  16.419   2.190  17.176 -0.0558  0.0298  0.3173
45410W        W54010  11.019   1.179   5.884  0.0499 -0.2181 -0.0368
45411W        W54011  12.470   6.179   2.747  0.2750 -0.3763 -0.2397
45412W        W54012   6.103   6.005  23.386  0.0120  0.0248 -0.2613
45413W        W54013  11.682   6.357   8.330 -0.4110 -0.2092  0.3293
45414W        W54014   5.811   0.831  14.866  0.0111  0.0455 -0.0933
45415W        W54015  24.466   2.239   7.463  0.0408  0.0510  0.2618
45416W        W54016  18.042   0.359   0.948  0.0809  0.2993 -0.0290
45417W        W54017   3.951   0.097   2.798  0.0226  0.3264 -0.0563
45418W        W54018  13.145   1.470  18.761 -0.4764  0.2142 -0.0587
45419W        W54019  13.983   3.281  15.893 -0.0811 -0.0124 -0.0224
45420W        W54020  14.914   1.574   0.991 -0.0910 -0.0064 -0.0875
45421W        W54021  13.637   4.957  16.143  0.0039 -0.1435 -0.0901
45422W        W54022  14.490   3.009   5.451 -0.1193 -0.0137  0.1322
45423W        W54023   0.975   6.300  26.744  0.1215 -0.1775 -0.0336
45424W        W54024  11.669   3.523   6.537 -0.0642 -0.3445  0.1974
45425W        W54025  24.890   4.819  24.796  0.2657  0.1526 -0.1108
45426W        W54026  23.473   5.735  24.820 -0.0434 -0.0029 -0.3109
45427W        W54027   3.066   7.724  15.701 -0.1291  0.0129 -0.1120
45428W        W54028  14.962   4.503   8.019 -0.0489  0.0944  0.0391
45429W        W54029   5.907   7.488  31.463  0.0108 -0.0003 -0.0563
45430W        W54030  15.405   0.347   7.241  0.0240 -0.0455 -0.2551
45431W        W54031  23.274   7.341  29.649 -0.2839 -0.0880 -0.1512
45432W        W54032   3.585   0.103   5.568  0.0192 -0.1087 -0.3030
45433W        W54033  16.446   6.775  15.663  0.1032  0.0214 -0.0015
45434W        W54034   2.440   5.320   5.385  0.0078 -0.0236  0.1038
45435W        W54035  16.502   3.169  28.986  0.3414  0.1730 -0.2509
45436W        W54036  13.901   5.950  29.093 -0.0723 -0.1515 -0.1125
45437W        W54037   6.665   6.334   5.331 -0.0361  0.0384  0.1814
45438W        W54038  16.564   1.136   9.950  0.0431  0.0012 -0.3024
45439W        W54039  14.537   1.453  26.330  0.2226 -0.1587  0.0466
45440W        W54040  22.747   3.856  21.085  0.0525  0.0785  0.1423
45441W        W54041  18.647   1.439   8.979  0.0990 -0.0743 -0.1945
45442W        W54042   3.058   1.792  24.020 -0.3090  0.1049 -0.0837
45443W        W54043   6.874   4.496   6.345  0.3462 -0.1055  0.3028
45444W        W54044   7.028   6.360   6.327  0.0916 -0.1426  0.0846
45445W        W54045  16.482   3.017   7.108  0.1872  0.0359  0.0068
45446W        W54046  18.988   4.634   5.231 -0.1119  0.0272  0.1936
45447W        W54047   5.951   2.873   7.994  0.3504 -0.3060  0.2783
45448W        W54048   3.481   6.461  27.835  0.1669 -0.1102  0.1144
45449W        W54049  13.562   1.145   2.479  0.0218 -0.0416  0.0730
45450W        W54050  16.551   3.456   7.996 -0.0582 -0.1631  0.0826
45451W        W54051   8.046   7.614   7.864 -0.0389 -0.0858  0.1219
45452W        W54052   2.184   3.081   3.319  0.0314  0.0974  0.1396
45453W        W54053   8.662   5.395   5.841 -0.1634 -0.1458 -0.2062
45454W        W54054  16.563   6.931   8.691 -0.1289  0.1840 -0.0868
45455W        W54055   3.952   5.978   6.696  0.2155  0.3933 -0.2977
45456W        W54056   5.033   3.890  12.334  0.2455  0.0994 -0.0713
45457W        W54057  10.123   2.463  22.630  0.2249 -0.0755 -0.1637
45458W        W54058  13.439   5.567  20.578 -0.1331  0.0854  0.0106
45459W        W54059  14.806   3.065   5.892  0.0305 -0.0255 -0.0006
45460W        W54060  21.682   3.568  21.623 -0.0521 -0.1165 -0.1914
45461W        W54061  16.635   4.868  27.562 -0.0070 -0.0098 -0.1556
45462W        W54062  15.672   1.472  24.986  0.0366  0.0944  0.0515
45463W        W54063   4.574   3.322  12.815 -0.1817  0.2750  0.0403
45464W        W54064  13.864   7.090  32.350  0.1713  0.1009  0.0500
45465W        W54065   8.128   5.049   4.032 -0.2692 -0.0652  0.0741
45466W        W54066  20.628   1.043   7.318  0.2706  0.0896 -0.1988
45467W        W54067  18.722   0.386  31.588 -0.0454  0.0639  0.1348
45468W        W54068  24.887   3.114  14.637 -0.0023 -0.1864  0.1665
45469W        W54069  19.528   5.247  27.475 -0.1792 -0.0193  0.2219
45470W        W54070  15.410   3.197  15.696 -0.3408 -0.0414  0.0814
45471W        W54071  18.344   0.498   7.145  0.3816 -0.1983 -0.0638
45472W        W54072  22.518   4.763   4.754  0.2105 -0.1171  0.2548
45473W        W54073   1.204   3.071   7.997 -0.3094  0.0863  0.0498
45474W        W54074  19.179   5.872  10.478  0.1211  0.2281 -0.0987
45475W        W54075  12.909   0.652  18.150  0.0851 -0.2907 -0.0319
45476W        W54076   0.652   5.819  13.805  0.1744 -0.3264  0.0609
45477W        W54077   5.585   5.924  13.187 -0.2107  0.0615  0.0683
45478W        W54078  10.262   4.364   4.375  0.1041 -0.1476 -0.2840
45479W        W54079  10.062   3.236  26.350 -0.0100 -0.0410 -0.0114
45480W        W54080  14.869   5.843  26.024 -0.1185 -0.2769  0.0055
45481W        W54081  23.460   5.844  22.664  0.0287  0.1534 -0.0023
45482W        W54082   5.006   6.277  28.661 -0.0439 -0.1165 -0.4434
45483W        W54083   6.048   4.103   1.188  0.2046 -0.1024 -0.1255
45484W        W54084   4.956   3.845   4.162  0.0353  0.2379  0.3926
45485W        W54085   8.893   1.086   8.989 -0.1086 -0.1239 -0.0476
45486W        W54086  15.609   0.019   3.075 -0.0479  0.0752  0.1182
45487W        W54087   5.922   5.418  31.487  0.0180 -0.1088  0.0118
45488W        W54088  13.100   3.428  31.519 -0.1431 -0.0705  0.0036
45489W        W54089   6.410   3.852   7.027  0.0600  0.1283 -0.0555
45490W        W54090  13.912   5.962  30.116  0.1081  0.1267  0.0516
45491W        W54091   8.287   5.579  27.813  0.0013  0.2549 -0.3939
45492W        W54092   2.259   2.713   5.188  0.1313 -0.0608 -0.1306
45493W        W54093  10.870   1.384  30.598  0.1656 -0.0149  0.2699
45494W        W54094  13.282   3.842  24.533  0.2725  0.1491  0.0668
45495W        W54095  17.794   1.690  21.571  0.2043  0.1401 -0.1715
45496W        W54096   2.686   4.621   6.875  0.0521 -0.0927  0.1588
45497W        W54097  15.989   3.529  30.905 -0.1833  0.2495  0.1437
45498W        W54098  23.629   3.959   5.847  0.1299  0.1129  0.0010
45499W        W54099   6.389   3.277   1.223 -0.0349 -0.1114  0.2178
45500W        W54100  20.842   5.294  25.257 -0.3992 -0.0345 -0.0315
45501W        W54101   5.848   1.468  22.906 -0.1574  0.0217 -0.2160
45502W        W54102  11.179   4.605  32.146 -0.0534 -0.0140 -0.3580
45503W        W54103  23.068   1.077  27.689 -0.1319  0.0568 -0.1058
45504W        W54104   8.417   3.019   7.354 -0.0536  0.1221  0.0812
45505W        W54105   8.659   1.166  27.337  0.0656  0.1833  0.0536
45506W        W54106   0.393   7.077   0.896 -0.0060  0.1209 -0.0874
45507W        W54107  12.849   6.110   8.112  0.0153  0.0132 -0.2871
45508W        W54108  10.690   3.813   8.295 -0.2561 -0.0006 -0.0456
45509W        W54109   5.324   2.800  10.616  0.0782 -0.1718  0.1524
45510W        W54110  13.157   2.922   5.488  0.1500 -0.0130 -0.0542
45511W        W54111   2.160   6.849   9.248  0.1833 -0.1414 -0.1926
45512W        W54112   9.396   1.144  25.710  0.3067  0.0138  0.0750
45513W        W54113  24.222   5.894  30.646  0.0888  0.4475  0.3522
45514W        W54114  13.836   4.942  31.533 -0.2623 -0.2474 -0.1875
45515W        W54115   0.509   3.649   9.096 -0.3322  0.1212  0.3479
45516W        W54116  11.619   4.426   8.833  0.2927 -0.1229 -0.3446
45517W        W54117  24.695   5.994  14.384 -0.0946  0.0053  0.0390
45518W        W54118  11.732   1.769   5.030  0.4803 -0.1428 -0.0825
45519W        W54119   7.839   3.387   4.431 -0.0793 -0.1760 -0.1876
45520W        W54120   5.674   5.169  25.400 -0.2757  0.2771  0.0379
45521W        W54121   6.153   5.195  30.682 -0.0820 -0.3203  0.2697
45522W        W54122   0.747   1.763   9.371  0.1465 -0.1158 -0.1698
45523W        W54123  12.181   7.111   9.870  0.2336 -0.2306  0.2513
45524W        W54124  18.481   4.325   8.496 -0.0049  0.0785 -0.0006
45525W        W54125  17.159   6.645   7.312  0.0491 -0.2537 -0.0972
45526W        W54126  14.815   6.377   7.119 -0.1134  0.0768 -0.2742
45527W        W54127   5.047   6.995   0.860 -0.1418 -0.0357  0.0840
45528W        W54128  11.983   2.833  27.612  0.0605  0.2216 -0.0398
45529W        W54129   0.127   1.719   3.214 -0.0010  0.2783  0.0435
45530W        W54130  17.237   1.339  18.638 -0.3861 -0.0643 -0.4737
45531W        W54131   6.323   6.684   2.954  0.3092 -0.5152  0.0461
45532W        W54132  21.353   0.155   6.509  0.0624  0.1805  0.0560
45533W        W54133   3.641   5.811  14.748 -0.1090 -0.0016 -0.0863
45534W        W54134   0.632   6.057   1.750  0.0553 -0.1028 -0.1997
45535W        W54135   8.687   2.383  31.138 -0.1696 -0.0771  0.1220
45536W        W54136  17.125   6.257   8.692  0.0801 -0.1587  0.2244
45537W        W54137  23.232   7.008   6.052  0.1355 -0.2048  0.1238
45538W        W54138   9.625   0.419  29.721  0.1453 -0.0655 -0.1048
45539W        W54139   8.575   4.489  26.755 -0.2542  0.1288  0.0703
45540W        W54140  20.253   4.231  21.067 -0.2589  0.0962 -0.3084
45541W        W54141   0.145   7.272   1.720  0.1267  0.1867 -0.3660
45542W        W54142  19.026   4.014   7.948  0.1718  0.0483  0.1170
45543W        W54143  19.904   0.284   2.995  0.4289 -0.0509 -0.2131
45544W        W54144   4.291   1.547  10.936  0.0564  0.5275 -0.3456
45545W        W54145  17.524   6.127  30.340  0.0190  0.0503 -0.2408
45546W        W54146  24.437   6.247  14.683 -0.0132 -0.2615 -0.2378
45547W        W54147  19.543   4.917   7.419  0.2517 -0.0109  0.1120
45548W        W54148  15.653   5.701  20.005  0.0600 -0.0504 -0.1698
45549W        W54149   5.047   5.794  22.476  0.2804 -0.1164  0.3919
45550W        W54150   8.006   4.864  30.583 -0.1351  0.1765 -0.1437
45551W        W54151  18.501   7.241  25.102  0.0938 -0.0496  0.0002
45552W        W54152   2.400   3.781   1.628 -0.1485  0.0950  0.1973
45553W        W54153  21.206   0.652  24.451 -0.1157  0.0206 -0.0637
45554W        W54154   9.779   5.069  12.713 -0.1084  0.0901  0.0704
45555W        W54155   0.413   3.691   6.542 -0.1626 -0.2203  0.0909
45556W        W54156  21.416   1.446  12.429  0.1042 -0.1792  0.2841
45557W        W54157   5.373   7.465  17.489 -0.1629 -0.0118  0.1915
45558W        W54158  18.641   2.755   1.098 -0.1627 -0.2901  0.2038
45559W        W54159  12.682   6.916  27.140  0.1084  0.1859 -0.2195
45560W        W54160  24.363   6.340  14.088 -0.0752 -0.0800 -0.3004
45561W        W54161   5.396   7.746   6.657  0.4124  0.0737 -0.0092
45562W        W54162  20.490   1.658   3.618  0.0150  0.0201  0.2437
45563W        W54163  10.768   5.756   3.625 -0.0090  0.0869  0.1674
45564W        W54164   4.618   6.159  32.584 -0.0788 -0.0768  0.0885
45565W        W54165  10.893   5.513  31.019  0.0191  0.0307  0.0062
45566W        W54166  23.574   4.888   4.891  0.1553 -0.2071  0.2969
45567W        W54167  19.427   6.201  21.045 -0.0364 -0.0538 -0.2463
45568W        W54168   7.125   0.655   9.903 -0.1533 -0.0610 -0.1109
45569W        W54169  13.781   7.652   5.727 -0.0244  0.0325 -0.2724
45570W        W54170  20.617   0.222  18.519 -0.0122 -0.0957  0.1923
45571W        W54171  10.824   6.947  20.471  0.0176  0.1885 -0.1410
45572W        W54172  16.532   4.236  27.259  0.0943 -0.0391 -0.1329
45573W        W54173   5.296   0.883   8.758 -0.1704  0.1101  0.1923
45574W        W54174  14.046   6.350  30.712 -0.1364  0.0200 -0.3270
45575W        W54175  16.244   5.103  28.012  0.0897 -0.0242 -0.1206
45576W        W54176  14.228   7.496   5.241  0.0863 -0.0958 -0.4545
45577W        W54177  14.102   1.125   3.119  0.2639 -0.1597 -0.4750
45578W        W54178  14.529   4.751   7.821  0.2702  0.1947  0.1678
45579W        W54179  18.253   7.091   5.651 -0.4427  0.0156  0.0013
45580W        W54180  18.752   0.912  22.741 -0.2036 -0.0405  0.1066
45581W        W54181  11.765   2.336  26.345  0.0468  0.1720 -0.1109
45582W        W54182  24.206   3.614  29.832  0.2748 -0.0436 -0.0999
45583W        W54183   5.101   4.977   8.088 -0.0524  0.1186  0.0227
45584W        W54184  12.094   0.269  10.946 -0.5132 -0.0371 -0.1732
45585W        W54185   8.142   0.389  16.038 -0.1070 -0.1617 -0.3683
45586W        W54186  17.126   1.268   7.186  0.2897  0.1298 -0.2472
45587W        W54187  10.835   6.433   1.068 -0.2000 -0.0923  0.0316
45588W        W54188  22.427   1.866  27.601 -0.1890 -0.2491  0.0165
45589W        W54189   9.261   5.844  23.129  0.0487 -0.0217 -0.3372
45590W        W54190  10.459   3.288  24.654 -0.0830  0.0070 -0.0021
45591W        W54191  16.466   5.005  23.269 -0.2577  0.1499 -0.0988
45592W        W54192  17.316   2.424  22.371  0.0870 -0.0803  0.1966
45593W        W54193  18.529   6.661  24.950 -0.2645 -0.0654  0.1974
45594W        W54194   6.445   5.883  14.418  0.1426 -0.1541 -0.0446
45595W        W54195   2.663   2.492  32.556 -0.3599  0.4431 -0.4506
45596W        W54196  17.329   2.644   5.506 -0.1914  0.0000 -0.4117
45597W        W54197   8.825   0.829   3.750 -0.2305 -0.0098  0.0832
45598W        W54198   6.813   5.335  29.981  0.2568 -0.3584  0.0198
45599W        W54199  23.498   7.471   7.276  0.2452 -0.2008 -0.0495
45600W        W54200   3.809   2.737  16.280 -0.0682  0.1119  0.0951
45601W        W54201  13.001   3.968  16.082 -0.1378  0.0773 -0.1917
45602W        W54202  22.644   3.168  24.329 -0.0320  0.5086 -0.0335
45603W        W54203  20.434   1.862   8.257  0.1282  0.1476 -0.0450
45604W        W54204   4.813   4.260   2.439 -0.0574 -0.0635  0.1449
45605W        W54205  14.136   7.628   3.298 -0.1512  0.0171 -0.0045
45606W        W54206  22.663   5.610   0.474  0.2305  0.1986  0.1444
45607W        W54207  10.087   1.083  31.965  0.4013 -0.1754 -0.0530
45608W        W54208  22.425   2.548  24.445 -0.1056 -0.2596 -0.0182
45609W        W54209  11.066   4.514  28.903  0.2728  0.1007 -0.0210
45610W        W54210  21.118   4.250  31.684  0.0892 -0.1397 -0.0957
45611W        W54211  23.895   5.402  20.938 -0.0652 -0.0817  0.0483
45612W        W54212  10.764   4.730  19.966  0.0469 -0.1429  0.0907
45613W        W54213  10.249   4.893  24.858  0.0910  0.0751 -0.1475
45614W        W54214  10.043   5.869   4.036  0.1495 -0.1414 -0.2573
45615W        W54215   7.935   6.995   9.879  0.2602  0.0300 -0.0217
45616W        W54216  23.019   0.448  22.420 -0.1071  0.1093 -0.2349
45617W        W54217  17.798   3.619  15.526  0.2043  0.0099 -0.2386
45618W        W54218  15.072   2.266  18.003 -0.3758 -0.3966 -0.2223
45619W        W54219  23.406   0.125  11.007 -0.1438  0.0906 -0.0682
45620W        W54220   6.478   3.099  22.759  0.0625  0.0632  0.1352
45621W        W54221   1.386   6.579  14.629 -0.1524  0.0001  0.1988
45622W        W54222   6.544   5.112   4.969  0.1049 -0.2096  0.2245
45623W        W54223   5.969   4.883  22.643 -0.4712 -0.0180  0.1779
45624W        W54224  19.618   5.934  16.724  0.5876  0.0951  0.0560
45625W        W54225  21.711   1.845  24.995 -0.1654 -0.1955  0.0320
45626W        W54226  11.966   3.770  29.525  0.3675 -0.0938 -0.1406
45627W        W54227   2.754   3.407   8.407  0.1868 -0.2026 -0.1834
45628W        W54228   9.958   7.345  24.595  0.2928 -0.2043  0.2660
45629W        W54229  20.926   5.231  27.410  0.0401  0.1247 -0.0386
45630W        W54230  24.345   4.281   5.721 -0.3572 -0.0264  0.0610
45631W        W54231  14.602   5.782  24.438 -0.4295 -0.1430 -0.0106
45632W        W54232  20.268   1.164  25.710 -0.1385 -0.2534  0.0140
45633W        W54233  10.619   1.013  19.932 -0.1170  0.1360 -0.1677
45634W        W54234  23.021   3.746  12.881 -0.1502  0.0467 -0.1915
45635W        W54235  11.662   4.419  29.317  0.1417  0.0942  0.1636
45636W        W54236  13.500   0.755  20.984  0.2283 -0.2198 -0.2325
45637W        W54237  17.272   2.710  21.623  0.0982  0.2504 -0.2749
45638W        W54238   7.493   4.492   2.820  0.3886 -0.2640  0.0457
45639W        W54239  17.478   5.241   8.044 -0.1417  0.0017  0.1604
45640W        W54240   0.011   3.324  11.849 -0.0799 -0.2352 -0.1228
45641W        W54241  16.886   5.032  18.692  0.0842  0.0531 -0.2565
45642W        W54242   8.504   5.379   1.086  0.2224 -0.1084 -0.3154
45643W        W54243   6.595   0.530  25.357  0.1056  0.1328 -0.0546
45644W        W54244  12.439   7.317  26.456 -0.1932 -0.0761 -0.1573
45645W        W54245  22.128   7.310   1.384 -0.1944  0.0741  0.0047
45646W        W54246   8.732   1.340  12.016 -0.3090 -0.0076 -0.0004
45647W        W54247  17.709   6.634  16.412 -0.2645 -0.1827 -0.1045
45648W        W54248   7.928   6.502   4.483  0.0266  0.2022 -0.0087
45649W        W54249  14.401   7.798  24.754  0.0240  0.0237 -0.2075
45650W        W54250  19.224   1.403   5.694 -0.1051 -0.0601  0.1256
45651W        W54251   2.038   3.824  32.219  0.2126  0.1914 -0.0140
45652W        W54252  16.607   5.625  31.382 -0.2763 -0.0617  0.3983
45653W        W54253  20.305   0.428   3.625  0.1953 -0.0595  0.0500
45654W        W54254  14.599   2.262   2.149  0.1270  0.0430 -0.1685
45655W        W54255  13.674   4.362  20.559  0.0162  0.2945  0.1474
45656W        W54256   6.570   6.459   1.704 -0.1681 -0.1167 -0.2237
45657W        W54257   2.956   4.735  23.886  0.3906  0.2552  0.0361
45658W        W54258   6.407   3.913   2.424 -0.0750 -0.0213 -0.0893
45659W        W54259  11.772   0.099  25.506  0.0313 -0.1459 -0.0576
45660W        W54260  13.399   7.232   2.083 -0.2056  0.3417  0.3172
45661W        W54261  17.966   5.283  18.834  0.2952 -0.1006 -0.2416
45662W        W54262   8.002   5.213  28.642 -0.1194  0.0414 -0.1535
45663W        W54263   7.206   2.081  10.528 -0.0714 -0.1106  0.1907
45664W        W54264   5.896   3.472   4.366 -0.3499  0.0265 -0.2096
45665W        W54265   2.523   0.497   8.077  0.1637  0.1524 -0.2176
45666W        W54266  17.901   0.230   3.901 -0.1258 -0.0303 -0.0636
45667W        W54267   0.281   2.450   9.745 -0.1916  0.1854  0.1434
45668W        W54268   0.825   3.289   3.127 -0.0867 -0.3649 -0.1848
45669W        W54269  21.219   3.589  23.237 -0.1053  0.2947 -0.0822
45670W        W54270  11.785   4.132   1.913 -0.0435 -0.0462 -0.0949
45671W        W54271  20.294   5.227  28.182  0.0226 -0.0136 -0.1975
45672W        W54272  10.141   0.473  11.522  0.3243 -0.1112 -0.0067
45673W        W54273  20.961   1.346   1.586 -0.1253 -0.1324 -0.0433
45674W        W54274   7.297   0.382   6.763 -0.3419  0.2279  0.1444
45675W        W54275  24.074   3.987  19.920  0.1196  0.0591  0.1477
45676W        W54276  21.112   1.118  19.482 -0.2020  0.0434 -0.4944
45677W        W54277  17.601   1.398   4.294 -0.0924 -0.0756  0.2389
45678W        W54278   0.710   7.054  24.563 -0.0760 -0.3094  0.3999
45679W        W54279  10.208   1.774  29.018 -0.5197  0.0904 -0.0463
45680W        W54280  16.394   3.170  31.027  0.1212  0.0370  0.2566
45681W        W54281  23.452   3.454  31.696  0.2878 -0.0941  0.3447
45682W        W54282  11.988   2.610   1.397 -0.2582 -0.0939  0.1334
45683W        W54283  17.490   0.106  29.780 -0.5867  0.3118  0.3302
45684W        W54284   5.088   6.784  30.184  0.0040  0.0398  0.2074
45685W        W54285   2.490   3.809  13.630 -0.0753 -0.0854 -0.0258
45686W        W54286  23.821   2.122  29.833  0.1118 -0.0837  0.0630
45687W        W54287   4.426   1.830  28.621 -0.1439  0.1070 -0.2768
45688W        W54288  12.291   1.613  29.688 -0.0095  0.1453  0.2771
45689W        W54289  14.452   5.419  27.683 -0.1738  0.0100 -0.1283
45690W        W54290   4.732   3.186   8.476 -0.0125 -0.0356  0.1161
45691W        W54291  14.960   0.850  31.193 -0.1880  0.0002  0.1718
45692W        W54292  13.578   3.015  23.475  0.0344  0.1071 -0.1030
45693W        W54293  22.946   3.946  25.651  0.0556 -0.1373 -0.0944
45694W        W54294  20.168   2.160  24.072  0.0881 -0.0543 -0.0717
45695W        W54295   3.690   7.401  23.556  0.3720  0.1706 -0.0077
45696W        W54296   6.709   5.593  23.519 -0.0029 -0.3184 -0.1676
45697W        W54297   1.509   2.917   1.031 -0.1297 -0.2194  0.2582
45698W        W54298  24.888   7.785   1.916  0.2427 -0.1709 -0.0690
45699W        W54299  18.008   5.773  30.501  0.1545  0.0914 -0.0061
45700W        W54300  10.248   1.528  11.965 -0.2600 -0.1482  0.2687
45701W        W54301   5.359   5.690  15.928  0.2026 -0.0410  0.0147
45702W        W54302  14.040   7.643  29.426  0.0020 -0.2793 -0.2133
45703W        W54303  10.442   7.098   2.998 -0.0655 -0.1197 -0.0914
45704W        W54304   9.637   4.285   2.707  0.1148 -0.1100  0.0707
45705W        W54305  23.827   0.818  31.751 -0.1680 -0.2393 -0.1195
45706W        W54306   3.405   0.342  12.490  0.1066 -0.1821  0.0577
45707W        W54307  14.515   0.374  10.501  0.1175 -0.1233 -0.0353
45708W        W54308  24.894   5.895  27.370 -0.0530 -0.0782  0.1099
45709W        W54309   3.085   6.228  17.035  0.0094 -0.0201  0.1485
45710W        W54310  13.607   7.239  26.968  0.2728  0.1416 -0.2277
45711W        W54311   7.001   5.188  28.715 -0.1749  0.2654 -0.2579
45712W        W54312  23.221   7.510  24.725 -0.1857 -0.3853 -0.2086
45713W        W54313  19.664   5.762  22.038  0.3062 -0.3959  0.2201
45714W        W54314  16.279   4.804  30.200  0.2113  0.0389 -0.2549
45715W        W54315   1.755   0.366   3.869  0.2212 -0.6738 -0.1142
45716W        W54316   0.131   7.331   9.426 -0.1556 -0.0432 -0.1189
45717W        W54317  14.864   3.718  32.085 -0.1615 -0.1764  0.3909
45718W        W54318  24.594   0.673   6.746  0.1466  0.0357  0.1129
45719W        W54319  21.918   3.526  18.851 -0.0490 -0.2127 -0.1338
45720W        W54320  24.059   5.566   3.615 -0.4337 -0.0491 -0.0780
45721W        W54321   7.281   7.766  12.391  0.2810 -0.0855  0.0172
45722W        W54322   8.240   1.626  12.153 -0.3306 -0.0268  0.1093
45723W        W54323   0.516   4.741   7.285  0.0694 -0.0010  0.0871
45724W        W54324  12.738   3.017  31.501 -0.4121 -0.1980 -0.0678
45725W        W54325  20.629   5.755  11.000  0.1555  0.0711  0.1753
45726W        W54326  18.946   0.712  18.651 -0.0480 -0.0580  0.1813
45727W        W54327   5.722   5.801  17.358  0.0682 -0.2472 -0.0015
45728W        W54328  18.837   0.215   5.034  0.0196 -0.5429 -0.1990
45729W        W54329  19.136   2.993  15.731  0.3964 -0.1270 -0.2450
45730W        W54330   6.539   5.496   8.697 -0.0535 -0.1777 -0.0329
45731W        W54331  23.009   2.688  28.641 -0.3734 -0.2403  0.0220
45732W        W54332  19.952   5.776  28.088  0.0897 -0.1337 -0.0620
45733W        W54333   4.376   5.241   1.876  0.0379 -0.0686 -0.3225
45734W        W54334  17.935   5.882   5.829  0.2503 -0.1697  0.2829
45735W        W54335  16.912   4.708   8.919  0.0336  0.1679 -0.1111
45736W        W54336  16.437   6.214  21.892  0.0689 -0.0372  0.0123
45737W        W54337  23.148   6.877  13.479 -0.3183 -0.2022  0.2561
45738W        W54338   0.076   7.306  30.641  0.2664  0.3300 -0.2686
45739W        W54339   4.310   6.478  16.190  0.2089 -0.0433  0.1298
45740W        W54340  19.026   5.637  21.437  0.0042  0.1567  0.0804
45741W        W54341   4.939   0.818  13.066 -0.0644 -0.1695 -0.0233
45742W        W54342   6.864   4.089   7.338  0.0573  0.0792  0.2088
45743W        W54343   4.699   4.143  17.321 -0.1274  0.1931  0.0416
45744W        W54344   1.289   5.629   5.333 -0.0129  0.0171  0.0415
45745W        W54345  17.539   0.094  27.417 -0.1108  0.0678 -0.1965
45746W        W54346   8.108   0.930  13.529 -0.0357  0.1743 -0.3420
45747W        W54347  23.557   4.814   0.859 -0.0359  0.1401 -0.0335
45748W        W54348  23.028   1.806   8.507 -0.0201 -0.3099 -0.0553
45749W        W54349  22.458   1.087  31.499 -0.0439  0.2245 -0.0409
45750W        W54350   8.390   1.739   9.212 -0.0053  0.0010 -0.2891
45751W        W54351   4.809   7.419   9.269 -0.2958  0.1675 -0.1023
45752W        W54352  12.182   5.267   2.424 -0.1767  0.2307  0.2294
45753W        W54353  21.123   4.313  22.881 -0.0551  0.0120  0.1802
45754W        W54354  24.401   3.316  10.564  0.5024 -0.1787  0.0324
45755W        W54355  17.404   5.237   6.242  0.0733  0.1361 -0.0315
45756W        W54356  21.809   1.126   5.967 -0.1645 -0.0742  0.1941
45757W        W54357  24.017   2.489  21.363 -0.0939  0.1753  0.0228
45758W        W54358   5.686   4.390   1.989 -0.0093 -0.4530  0.0513
45759W        W54359  12.602   0.344  10.629  0.0788 -0.0662 -0.0080
45760W        W54360  15.909   0.284  29.254  0.1368  0.0998  0.1165
45761W        W54361  16.593   3.298  26.378 -0.3062 -0.3250 -0.0667
45762W        W54362   8.786   7.113  12.563  0.0852  0.2244  0.2088
45763W        W54363  16.044   2.242   8.764  0.2026  0.0827  0.1367
45764W        W54364  23.036   2.793  27.489  0.1455  0.1455 -0.1063
45765W        W54365   2.276   4.834   7.428 -0.0751 -0.1503  0.3522
45766W        W54366   8.038   2.353  14.326  0.1936 -0.1501 -0.3571
45767W        W54367   3.841   1.233   2.148 -0.1096  0.0526  0.1313
45768W        W54368   1.779   2.772  23.044 -0.0033 -0.2085 -0.0233
45769W        W54369   0.676   0.163  10.011 -0.0096  0.3634 -0.2943
45770W        W54370  14.846   6.188  24.707 -0.0908 -0.2019  0.1288
45771W        W54371  15.198   6.399  15.201 -0.1041  0.2258 -0.0217
45772W        W54372  24.421   6.538   5.438 -0.2778 -0.2665 -0.1407
45773W        W54373  14.283   1.152  20.542 -0.2871  0.0371  0.0528
45774W        W54374   6.438   1.437  14.469  0.2769 -0.1162  0.2605
45775W        W54375   1.519   5.112  32.359 -0.1428 -0.0713 -0.0686
45776W        W54376   5.212   4.196  31.712  0.0561  0.3586  0.3322
45777W        W54377  21.353   0.440   3.327  0.2228 -0.0510  0.2499
45778W        W54378  14.454   7.488   8.579 -0.3276  0.1979 -0.0326
45779W        W54379  20.186   4.632  25.306  0.3479 -0.0186 -0.1765
45780W        W54380   5.342   6.389   8.494 -0.1932 -0.2463  0.0243
45781W        W54381   2.038   1.808  15.536 -0.1801  0.0285  0.1246
45782W        W54382  15.855   5.071  17.670  0.1605  0.4523  0.3034
45783W        W54383  19.107   3.174  16.991 -0.2122  0.0665 -0.1974
45784W        W54384  13.416   7.245   3.099  0.0713 -0.2501 -0.1842
45785W        W54385  20.640   3.361  23.408 -0.2414 -0.1297 -0.1778
45786W        W54386   0.684   7.258   2.312 -0.0815  0.3289 -0.0158
45787W        W54387  13.040   0.516  31.133 -0.0676  0.1587  0.3821
45788W        W54388  12.291   5.973  26.103  0.1220 -0.0681  0.0228
45789W        W54389  23.171   2.798  23.096  0.0142 -0.2056  0.1749
45790W        W54390  10.741   1.224   8.282  0.0901  0.0613 -0.0457
45791W        W54391  17.589   6.819  18.406 -0.4140 -0.1104 -0.0275
45792W        W54392   1.369   3.603   1.508 -0.0669 -0.0688  0.0050
45793W        W54393  11.597   4.414  31.962  0.0485  0.1651  0.0185
45794W        W54394   6.230   5.165  29.160  0.0086 -0.1113 -0.1109
45795W        W54395  23.775   5.439  11.963 -0.2277 -0.3779 -0.1506
45796W        W54396  14.973   6.724  24.223  0.3231 -0.0184  0.2169
45797W        W54397  20.915   2.920  17.990  0.2785  0.1514  0.3237
45798W        W54398  16.032   4.602   1.369 -0.2477 -0.1637 -0.1624
45799W        W54399  14.771   2.975   7.282  0.3044 -0.0490 -0.0497
45800W        W54400  18.922   5.667  22.363  0.0842  0.2419 -0.1044
45801W        W54401  22.627   6.586  19.004  0.3669 -0.1917  0.1186
45802W        W54402  13.882   4.043  30.824  0.3038 -0.0933 -0.2270
45803W        W54403  13.489   2.293  17.492 -0.1140  0.0131  0.3574
45804W        W54404  24.525   5.704  23.085  0.1438 -0.2552  0.0469
45805W        W54405  15.306   7.748  31.414 -0.0100  0.1169  0.1416
45806W        W54406   8.842   3.557  29.408 -0.0601 -0.1094 -0.1256
45807W        W54407   9.202   5.330  21.851 -0.0774  0.0105 -0.0927
45808W        W54408  24.247   4.389  31.329  0.2354  0.1087  0.0481
45809W        W54409   3.924   2.938  17.453 -0.0549 -0.2191  0.0576
45810W        W54410  13.827   2.461  31.365  0.2091 -0.0189  0.0916
45811W        W54411   7.232   5.437   3.635  0.0665  0.1432 -0.1568
45812W        W54412   8.428   0.119  26.853 -0.0368 -0.0147  0.0248
45813W        W54413  19.462   3.701  22.303 -0.1202  0.0060 -0.0188
45814W        W54414  11.627   6.515  28.776  0.1327  0.1539 -0.0114
45815W        W54415   5.115   3.484  25.560 -0.2234  0.0926  0.0869
45816W        W54416  13.649   3.237   5.102  0.2196 -0.0094  0.0409
45817W        W54417  16.803   2.551  18.021  0.1666 -0.1990 -0.0088
45818W        W54418  20.378   6.955  21.451 -0.0731  0.1619  0.0302
45819W        W54419  22.020   2.002  30.333  0.0546 -0.1168  0.0347
45820W        W54420   4.552   7.520  30.211 -0.1555  0.3657  0.0737
45821W        W54421  12.349   5.454  27.405 -0.3949 -0.2665 -0.0626
45822W        W54422  23.371   4.367  27.900 -0.1705 -0.0023  0.2156
45823W        W54423   7.883   0.362   6.615  0.1307  0.0317 -0.0265
45824W        W54424  24.829   4.688   2.684 -0.0453 -0.4667 -0.1482
45825W        W54425   0.650   6.260  21.370 -0.3059  0.0409 -0.2172
45826W        W54426  21.419   0.254   2.796  0.1870 -0.0843  0.0286
45827W        W54427  12.666   3.809  31.840  0.3693 -0.2062  0.2425
45828W        W54428  18.620   3.196   7.037 -0.0763  0.3117 -0.2201
45829W        W54429   1.322   2.007  14.127 -0.0531 -0.2204  0.1996
45830W        W54430   6.043   7.595  10.688  0.0192 -0.2398 -0.1223
45831W        W54431  17.146   2.615  24.253  0.2359 -0.1583  0.0949
45832W        W54432   1.331   2.682  28.774 -0.1480  0.2008 -0.2604
45833W        W54433   1.100   2.233   8.311  0.1252  0.3501  0.0168
45834W        W54434   4.484   1.062  10.845 -0.0316 -0.1104 -0.2986
45835W        W54435  22.613   2.232  26.276 -0.0323 -0.1928  0.0045
45836W        W54436  21.804   4.636  24.390  0.1068  0.0052 -0.1523
45837W        W54437  13.832   7.246  21.412 -0.1306  0.1926  0.0883
45838W        W54438  13.784   3.450  27.913 -0.1745  0.1052  0.0207
45839W        W54439   0.606   4.916  16.803 -0.0558 -0.4994  0.0192
45840W        W54440  18.164   0.418  32.971  0.2049 -0.0612 -0.1898
45841W        W54441  14.071   7.268  18.891  0.0581  0.0016 -0.0158
45842W        W54442  20.957   7.202  20.813 -0.2059  0.4062  0.1106
45843W        W54443  22.074   7.508   2.479  0.3202 -0.1200 -0.2733
45844W        W54444   0.522   7.630   3.010  0.0552 -0.0324 -0.1183
45845W        W54445   8.840   6.020   0.466  0.0489 -0.1318 -0.2852
45846W        W54446  13.202   5.231   5.011 -0.2725 -0.2006  0.1015
45847W        W54447  10.498   7.058  22.824  0.2737  0.0474 -0.0699
45848W        W54448   7.146   2.597   8.623  0.1466  0.3086 -0.1057
45849W        W54449   4.998   1.884   3.031 -0.0632 -0.1426 -0.2162
45850W        W54450   1.666   1.442  15.461  0.0825  0.0171 -0.0880
45851W        W54451  12.318   6.513  21.762 -0.2235  0.0546  0.1423
45852W        W54452  17.796   1.499   6.064  0.2109  0.1924 -0.1057
45853W        W54453   0.413   0.921  24.385 -0.3028  0.1491  0.0073
45854W        W54454  13.663   4.307  27.895 -0.1426 -0.2298 -0.3592
45855W        W54455  20.332   1.076  24.753 -0.0435 -0.0629  0.0997
45856W        W54456   0.811   2.302  14.766  0.0807  0.2217  0.1979
45857W        W54457  14.124   3.060  18.624  0.2806 -0.4316 -0.3145
45858W        W54458  15.447   6.391  10.160 -0.2422  0.0392  0.2899
45859W        W54459  23.836   5.289   7.695  0.1229 -0.2151 -0.0120
45860W        W54460   2.324   1.019  27.715 -0.1043 -0.3215  0.2090
45861W        W54461  21.228   6.144  27.858 -0.2199 -0.2291  0.0322
45862W        W54462  20.107   4.721  30.129  0.1817  0.2982 -0.2370
45863W        W54463   2.784   1.916  12.881  0.1709 -0.0954  0.0250
45864W        W54464  11.627   2.736   8.897 -0.0518  0.0933 -0.0029
45865W        W54465   3.807   2.074   0.182  0.0819 -0.0201 -0.1069
45866W        W54466  17.217   2.084  25.405 -0.1909 -0.0775  0.2144
45867W        W54467  10.588   3.590  22.282  0.0871 -0.1177 -0.0735
45868W        W54468   3.221   4.267  25.560  0.1636 -0.2985 -0.1237
45869W        W54469  16.087   6.317   4.004  0.1470  0.0062  0.3308
45870W        W54470   6.852   6.854   9.250  0.0238 -0.2756 -0.0734
45871W        W54471   6.141   0.720  28.152  0.0739  0.0039 -0.0958
45872W        W54472   2.093   6.565   4.422  0.1162 -0.2284 -0.0160
45873W        W54473  22.628   2.003   8.665 -0.1322 -0.1237 -0.0067
45874W        W54474  17.816   1.453  25.468 -0.2519  0.0416  0.1507
45875W        W54475   1.010   1.308  12.156  0.0797  0.0368 -0.0996
45876W        W54476  20.037   2.235  20.576 -0.0724  0.1216 -0.0268
45877W        W54477   5.734   1.484  13.570 -0.0720  0.2361  0.0247
45878W        W54478   4.044   2.494   0.309 -0.0851 -0.1386  0.3249
45879W        W54479  18.749   3.623  20.426  0.2022  0.1737 -0.0935
45880W        W54480  23.443   2.511  27.251 -0.1465 -0.2065 -0.0197
45881W        W54481   2.263   5.511  13.003 -0.1132 -0.2025 -0.1497
45882W        W54482  13.425   6.791  32.311  0.0082 -0.0837  0.1184
45883W        W54483   7.878   7.435  14.560  0.1177  0.0844 -0.1126
45884W        W54484  23.920   2.913   7.338  0.0808 -0.0657 -0.4210
45885W        W54485  24.048   3.809  21.804 -0.4885 -0.1874  0.0331
45886W        W54486   0.224   3.769  12.700  0.1353 -0.0035  0.3951
45887W        W54487  20.233   2.157  17.561 -0.1647  0.1607  0.0674
45888W        W54488  15.404   3.792  29.278  0.2762  0.1076  0.1535
45889W        W54489   3.485   5.842  14.230 -0.1261 -0.0439 -0.1306
45890W        W54490   0.409   6.854   8.764  0.2193 -0.1175  0.0670
45891W        W54491  22.414   6.378  23.612  0.1646  0.2256 -0.1304
45892W        W54492  11.219   4.428   6.120 -0.2088  0.2284  0.0042
45893W        W54493  18.834   2.521  17.973 -0.2197  0.2528  0.1644
45894W        W54494  21.190   7.068   0.892 -0.3146 -0.0876 -0.2382
45895W        W54495   1.314   6.463  28.545 -0.0138  0.0325 -0.0346
45896W        W54496  19.477   1.680   3.266 -0.0657 -0.2371  0.4465
45897W        W54497   1.644   4.548  15.680  0.0832 -0.4343 -0.0701
45898W        W54498  15.228   5.079   8.569  0.0171  0.2037 -0.0213
45899W        W54499   3.504   1.039  13.422 -0.0953  0.0993  0.0241
45900W        W54500  21.416   4.460  30.000 -0.0352  0.0219  0.0089
45901W        W54501   9.766   4.482   4.444 -0.1734  0.0750  0.1243
45902W        W54502   6.498   4.726   8.163 -0.2569  0.0628  0.0110
45903W        W54503  21.346   3.294   9.746  0.1516  0.1390  0.0732
45904W        W54504  24.187   5.460   3.156 -0.0313 -0.0568 -0.4583
45905W        W54505  17.676   2.214  18.183  0.0024 -0.1291 -0.2165
45906W        W54506  15.266   6.305  23.999 -0.2902  0.2263  0.3916
45907W        W54507  11.938   3.128   0.854  0.1823 -0.0001 -0.0068
45908W        W54508   4.827   6.090  30.497 -0.0814 -0.2573 -0.0711
45909W        W54509  13.918   1.427  10.197  0.0643  0.1624  0.0516
45910W        W54510   0.339   4.583   2.474 -0.0489  0.4430  0.0453
45911W        W54511   4.001   3.938   7.300  0.1917  0.4504 -0.3042
45912W        W54512   9.252   3.644   4.977 -0.0894 -0.1797 -0.0827
45913W        W54513  11.898   6.678  20.629 -0.3256  0.1806  0.0730
45914W        W54514   2.299   3.396  32.474 -0.4238 -0.2125 -0.4447
45915W        W54515  22.735   7.432   5.608  0.1913  0.1603  0.1463
45916W        W54516  22.727   7.221  32.033 -0.1855 -0.1732 -0.2041
45917W        W54517   6.519   0.651  15.659 -0.1293  0.0425 -0.3942
45918W        W54518   3.334   5.210  23.238  0.3557  0.1008  0.0404
45919W        W54519  21.545   6.643  31.367  0.2340 -0.0595  0.3123
45920W        W54520  12.091   1.888   4.117 -0.2560 -0.0498 -0.2042
45921W        W54521  14.707   1.628   6.964 -0.0397  0.3800  0.0965
45922W        W54522  23.235   4.907  23.217 -0.1796  0.1892 -0.0808
45923W        W54523   2.276   2.027  24.386 -0.0483 -0.1686  0.0217
45924W        W54524  23.041   7.151   1.780  0.0541  0.2702 -0.0397
45925W        W54525  16.575   2.594  30.392 -0.0987  0.0968  0.0952
45926W        W54526   2.508   1.478  26.729  0.1461  0.0258  0.1374
45927W        W54527   5.981   4.198  31.678  0.2474 -0.1081 -0.3327
45928W        W54528  16.983   0.966  10.144 -0.1588 -0.3020  0.3909
45929W        W54529  11.813   7.419   9.070  0.1121 -0.3189 -0.0374
45930W        W54530   2.209   5.997   0.831 -0.2413  0.2188 -0.0409
45931W        W54531  13.137   1.236  16.846  0.2470 -0.2023 -0.0688
45932W        W54532   4.638   3.578  22.925 -0.2082  0.1449  0.1154
45933W        W54533   9.311   7.132  25.371  0.1671 -0.3990 -0.0398
45934W        W54534   7.946   1.514   6.054 -0.0901 -0.1794  0.2749
45935W        W54535  20.429   0.540   5.066  0.0057  0.0087  0.1624
45936W        W54536   9.928   5.784   8.648 -0.2724 -0.1420  0.2343
45937W        W54537  19.607   2.417  32.466 -0.0949  0.0849 -0.1169
45938W        W54538  10.313   4.719   5.218 -0.1460 -0.2854  0.0614
45939W        W54539   8.207   7.701   1.722 -0.3461 -0.2537  0.1701
45940W        W54540   2.154   0.954  29.693 -0.0395  0.2120  0.2856
45941W        W54541  20.614   1.624  27.214 -0.0781 -0.1268  0.3677
45942W        W54542  24.653   2.454  11.771 -0.1647 -0.0288 -0.1119
45943W        W54543  21.577   7.178  19.784  0.2014  0.0780  0.0404
45944W        W54544   7.356   3.406  11.141 -0.3074 -0.0158 -0.0276
45945W        W54545   5.918   5.471   5.996  0.0698 -0.0209  0.0515
45946W        W54546   7.920   2.137  29.601 -0.0222 -0.0566 -0.0306
45947W        W54547   6.768   2.337   7.516  0.0161 -0.3354  0.1142
45948W        W54548   5.032   0.384   6.438  0.0220  0.0864 -0.0848
45949W        W54549   5.290   4.088  16.613  0.2758 -0.0013  0.1022
45950W        W54550  14.180   5.422  21.280 -0.1229 -0.0512  0.0449
45951W        W54551  12.575   0.789  23.462 -0.1143 -0.0887  0.3002
45952W        W54552  15.987   0.049  17.368  0.0517  0.0291 -0.3416
45953W        W54553  18.585   4.183  19.620 -0.1087  0.0712 -0.1190
45954W        W54554  15.566   4.260  24.146  0.0998 -0.1633  0.0532
45955W        W54555   5.476   5.481   0.183  0.2272  0.1461  0.4794
45956W        W54556  10.020   6.984  26.732  0.1361  0.0212 -0.0278
45957W        W54557  19.626   2.881  24.329  0.1187 -0.0903  0.3398
45958W        W54558   6.912   6.587   4.979 -0.4285  0.0021  0.1647
45959W        W54559  24.038   4.691   0.921 -0.0419  0.1443 -0.0936
45960W        W54560  15.315   0.486  22.473  0.1905  0.0244 -0.2572
45961W        W54561  14.229   2.954  29.586 -0.1833 -0.2033  0.0014
45962W        W54562   2.638   6.165  11.167 -0.0161 -0.3810  0.1623
45963W        W54563  12.707   2.658  27.323 -0.2265  0.1471  0.3277
45964W        W54564  23.983   0.795   2.754  0.2182  0.0663 -0.0757
45965W        W54565   7.184   3.060  27.446  0.2304  0.0110 -0.0367
45966W        W54566  13.455   1.350  18.280  0.0795 -0.2232  0.3136
45967W        W54567  15.067   7.284  24.575 -0.0609  0.0606  0.1913
45968W        W54568   1.542   1.288  33.024 -0.1026 -0.0542  0.0253
45969W        W54569  19.374   2.482  28.615  0.1294 -0.2337  0.0747
45970W        W54570   9.563   4.734   1.571  0.3740 -0.2318 -0.1241
45971W        W54571  20.326   4.722  10.283 -0.3518 -0.3722  0.3032
45972W        W54572  14.502   4.429  19.697  0.0335 -0.1241  0.0825
45973W        W54573  20.606   4.430  25.211 -0.3628 -0.1285  0.0345
45974W        W54574  21.728   3.244  28.978 -0.1385 -0.1659  0.1856
45975W        W54575  23.165   7.451  25.976  0.0405  0.1233  0.1848
45976W        W54576   6.336   1.774   2.132 -0.0458 -0.5035  0.2157
45977W        W54577  22.411   0.130  30.659 -0.1001  0.1443 -0.0270
45978W        W54578  22.268   5.498  31.580 -0.2651 -0.1857  0.4137
45979W        W54579  23.938   1.360  30.212 -0.0608 -0.0957 -0.0243
45980W        W54580  22.986   6.830  31.035 -0.0125 -0.0155  0.0232
45981W        W54581  24.542   5.421  26.699 -0.1916 -0.0378 -0.3771
45982W        W54582   0.939   3.986  13.775  0.3296  0.1760 -0.0741
45983W        W54583  13.781   6.247   5.245 -0.5518 -0.1104  0.0266
45984W        W54584  18.726   4.982  11.162  0.1853  0.2506  0.2565
45985W        W54585  16.749   5.706  10.344 -0.2494 -0.1012 -0.0092
45986W        W54586  18.964   1.349  27.587 -0.2214  0.2906 -0.0883
45987W        W54587  11.119   0.590  30.458 -0.1597 -0.2845 -0.0924
45988W        W54588  14.578   2.434   9.590  0.2095 -0.1372  0.0115
45989W        W54589  10.118   2.787   9.246  0.1809 -0.0883  0.1319
45990W        W54590   4.950   2.559  24.320 -0.4245  0.1063 -0.2752
45991W        W54591  16.446   6.791   7.124  0.1490  0.0331  0.3000
45992W        W54592  24.826   1.457  28.189 -0.1304 -0.1342  0.0232
45993W        W54593  18.446   0.580   3.095 -0.0476  0.1177 -0.1276
45994W        W54594  19.081   1.726   4.126 -0.0188 -0.0014  0.1172
45995W        W54595  14.831   1.496   2.723  0.0551  0.1888  0.1808
45996W        W54596  16.068   6.115  16.022 -0.0337  0.0331  0.0320
45997W        W54597  19.117   7.260   3.273  0.1063  0.1180 -0.0152
45998W        W54598  19.547   4.250  32.037  0.0043 -0.2409  0.1400
45999W        W54599   3.440   6.783  11.721 -0.2119  0.2371 -0.1414
46000W        W54600  15.216   6.827  19.667  0.0359 -0.0079 -0.0776
46001W        W54601   0.984   0.658   6.188 -0.1680  0.3821  0.1075
46002W        W54602   6.005   5.088   4.860  0.6031  0.3260  0.0073
46003W        W54603   4.521   4.181   9.987 -0.0684  0.0261 -0.0349
46004W        W54604   3.466   1.779   1.375  0.0304  0.2191  0.4220
46005W        W54605  15.972   1.397   4.394 -0.1534  0.3251  0.3250
46006W        W54606  22.255   1.077   7.493 -0.0649 -0.2175  0.1179
46007W        W54607  14.028   6.109  20.892  0.1417  0.0065  0.0729
46008W        W54608  15.884   2.541  26.840 -0.0682 -0.0211 -0.0105
46009W        W54609  10.761   0.461   7.984 -0.1065  0.1527 -0.1357
46010W        W54610  20.029   2.422  19.473  0.0887  0.0836  0.0180
46011W        W54611  12.296   5.257   6.246  0.4687  0.0062  0.0128
46012W        W54612   7.770   1.229  30.189  0.0152 -0.0744  0.2086
46013W        W54613   7.479   5.266   2.224  0.0407  0.0450  0.0654
46014W        W54614  14.054   1.258   6.678  0.0445 -0.1260 -0.1237
46015W        W54615  23.332   4.585   2.256  0.0513 -0.2383  0.0025
46016W        W54616   8.994   2.758   8.005  0.0087 -0.2532 -0.0376
46017W        W54617  10.301   1.682   5.908 -0.1201 -0.2330  0.2566
46018W        W54618   3.626   2.452   1.976 -0.1109 -0.0671  0.2904
46019W        W54619  10.140   0.308   1.266 -0.1399 -0.4021 -0.0551
46020W        W54620   4.677   1.245  13.992 -0.1285  0.0434  0.0869
46021W        W54621   1.345   3.822   0.649 -0.0255  0.2091 -0.1243
46022W        W54622  16.412   2.036  27.996  0.1021  0.0569  0.0731
46023W        W54623  21.250   5.745  19.201 -0.1048 -0.2143 -0.0134
46024W        W54624  12.840   2.574  23.451 -0.1171  0.1984 -0.1149
46025W        W54625  16.065   3.972   3.017  0.0909 -0.1035  0.0706
46026W        W54626   2.800   3.645  16.546  0.0519  0.0011 -0.0477
46027W        W54627   6.396   0.379  29.925 -0.2800 -0.2204  0.0597
46028W        W54628  11.466   3.518  27.184  0.0390  0.1219  0.1469
46029W        W54629  20.586   1.686   5.942  0.1199  0.2318  0.2343
46030W        W54630  15.217   1.431   0.034 -0.2784  0.1178  0.0929
46031W        W54631   5.550   6.078  25.342  0.0435 -0.2625 -0.1388
46032W        W54632  23.935   7.785  20.280  0.1137 -0.1969  0.0077
46033W        W54633   9.999   0.427  13.699  0.0860  0.0017 -0.0982
46034W        W54634  18.465   4.556   9.581  0.1047  0.0438 -0.1909
46035W        W54635  10.698   3.440  11.073  0.1420 -0.1081 -0.1642
46036W        W54636  10.779   6.581   6.406 -0.0356 -0.1548 -0.2303
46037W        W54637  17.542   0.417  20.253  0.4615 -0.1989  0.0773
46038W        W54638  24.161   6.045   4.970  0.3687 -0.0487  0.1944
46039W        W54639   8.280   5.127   5.822  0.0629  0.1626 -0.2196
46040W        W54640   3.348   1.883   4.789 -0.0151 -0.0202  0.3471
46041W        W54641  22.586   0.013   5.265 -0.0669 -0.0836 -0.2516
46042W        W54642  11.516   5.774  25.342  0.1784  0.0810 -0.2598
46043W        W54643   6.255   5.892   2.786  0.0823 -0.3644 -0.0709
46044W        W54644   5.489   7.423  15.343 -0.2132 -0.1563  0.1747
46045W        W54645  21.617   6.616  20.589  0.1168 -0.0434 -0.1255
46046W        W54646   9.756   6.340  22.440  0.0840 -0.0841  0.1288
46047W        W54647  21.647   5.565  29.456  0.1186 -0.3198  0.1549
46048W        W54648  13.202   7.540   3.997 -0.0475 -0.3165 -0.0533
46049W        W54649  16.785   2.293  16.812 -0.1743  0.1272  0.1636
46050W        W54650   0.105   0.489  30.240 -0.1224  0.1988  0.3474
46051W        W54651  10.467   3.119   2.302 -0.3447 -0.0739 -0.3841
46052W        W54652   7.288   6.700  14.942 -0.2043  0.1954 -0.0052
46053W        W54653  23.367   6.575  21.945 -0.0580 -0.0114 -0.1550
46054W        W54654  18.929   4.966  30.451  0.3033  0.0421 -0.1699
46055W        W54655   1.717   2.972   3.015  0.2461 -0.1207  0.1166
46056W        W54656   6.282   5.014  15.337 -0.3019  0.2639  0.1841
46057W        W54657  17.908   7.674  10.987 -0.1107  0.0517  0.1547
46058W        W54658  15.950   2.602  16.736 -0.1404 -0.0515 -0.1071
46059W        W54659   0.933   4.085  26.560  0.2631  0.1397 -0.0184
46060W        W54660  14.515   7.064  28.075 -0.0374  0.0595 -0.0248
46061W        W54661  18.560   0.050  27.163  0.0132 -0.0093  0.0902
46062W        W54662  17.740   1.488   3.494 -0.0841 -0.1875 -0.1779
46063W        W54663  23.855   3.043   6.878  0.2961  0.0290 -0.2331
46064W        W54664  11.543   1.323  22.054  0.0463  0.0107  0.1948
46065W        W54665  20.243   2.249  27.645 -0.1400  0.2654 -0.1556
46066W        W54666  24.114   5.573  25.552  0.0090 -0.1418 -0.3529
46067W        W54667   1.840   3.881  27.163 -0.2808  0.0098  0.1629
46068W        W54668   6.380   6.677   5.648  0.0319  0.0349  0.1898
46069W        W54669  24.056   1.804   3.357 -0.0255 -0.2348  0.1785
46070W        W54670  12.785   3.929  25.094 -0.3022 -0.0146  0.1567
46071W        W54671  23.819   2.919  28.091 -0.1281 -0.4570 -0.0147
46072W        W54672  18.424   3.130  27.683  0.0652  0.3829  0.0068
46073W        W54673   8.836   5.823   8.403 -0.0666  0.0967  0.0906
46074W        W54674  23.347   7.165  32.645  0.1091 -0.1589  0.1257
46075W        W54675   9.209   5.231  14.081 -0.0400 -0.2156 -0.2581
46076W        W54676   7.760   4.064  29.911 -0.0323  0.0485  0.0779
46077W        W54677   3.036   5.349   1.939 -0.1958  0.0774 -0.0383
46078W        W54678  23.221   2.933  21.574 -0.0694 -0.0254 -0.0085
46079W        W54679  13.364   6.407  28.025 -0.0096  0.1749  0.1047
46080W        W54680  12.888   7.763   9.767  0.1468  0.1751  0.1632
46081W        W54681  22.948   7.746  21.317  0.0149  0.1207 -0.1449
46082W        W54682  16.984   5.414   1.070  0.1564 -0.1162 -0.2126
46083W        W54683   1.302   3.311   6.017 -0.0330 -0.1839  0.0047
46084W        W54684   8.548   5.335  22.641  0.0426  0.2122  0.0344
46085W        W54685  11.327   7.259  27.187 -0.0114 -0.0793 -0.0567
46086W        W54686  20.453   5.717  21.196 -0.3088 -0.0883  0.1461
46087W        W54687  22.512   3.943  22.123  0.0102  0.1334  0.1565
46088W        W54688  18.355   0.610  31.953 -0.0560 -0.0264  0.0851
46089W        W54689  18.798   6.197  17.171  0.0196 -0.0230 -0.4670
46090W        W54690  23.767   6.695  26.306 -0.2196 -0.0682 -0.0749
46091W        W54691  13.584   5.371   7.217 -0.1608 -0.4280 -0.0083
46092W        W54692  23.213   7.034   1.314 -0.0967 -0.0946 -0.1255
46093W        W54693  22.535   2.486  10.858 -0.2403  0.0301 -0.0440
46094W        W54694  17.980   0.552  10.138  0.0547  0.0359  0.0938
46095W        W54695  22.236   4.509  10.171 -0.2698  0.2073  0.0982
46096W        W54696  13.105   6.054  24.200  0.2741 -0.1384  0.1865
46097W        W54697  24.555   7.565   9.278 -0.3391  0.1353  0.1903
46098W        W54698  14.221   7.661  16.877  0.3098  0.0086 -0.0578
46099W        W54699  11.873   4.775  33.038  0.1251  0.1342 -0.0490
46100W        W54700  24.310   5.254  13.607 -0.1267  0.2086 -0.0426
46101W        W54701  21.682   4.876   6.387  0.0427  0.0556 -0.0368
46102W        W54702  12.280   6.858   5.453 -0.0202 -0.0763 -0.1240
46103W        W54703  18.577   3.735  21.234  0.0394 -0.2566  0.2736
46104W        W54704   5.298   1.336  24.892 -0.1482 -0.0553  0.0422
46105W        W54705  21.409   1.319  23.739  0.0440  0.1595 -0.0717
46106W        W54706  21.430   5.176   8.279 -0.1994 -0.1996  0.1654
46107W        W54707   0.060   0.923  30.542  0.0933 -0.1154  0.2764
46108W        W54708   2.058   5.642  12.500  0.0415  0.0225  0.1920
46109W        W54709   3.239   1.365  10.213 -0.3707  0.0062 -0.0516
46110W        W54710   3.440   3.915   0.090 -0.3209  0.1268  0.0346
46111W        W54711  15.372   5.379  23.550  0.1277 -0.1228  0.3390
46112W        W54712   1.612   7.311  24.251 -0.0170 -0.0893  0.2260
46113W        W54713   7.341   6.615  28.886 -0.1011  0.0464  0.2524
46114W        W54714  14.303   3.786   7.758 -0.1171 -0.0242 -0.1724
46115W        W54715   5.355   3.879   7.415 -0.1877  0.1117 -0.0457
46116W        W54716   5.130   5.168   5.051  0.1991  0.2041 -0.0351
46117W        W54717   6.127   3.677   2.016 -0.0966  0.2477 -0.2433
46118W        W54718  12.619   3.578   2.084  0.1578  0.1947 -0.0566
46119W        W54719  16.205   4.977  17.140  0.3034 -0.2666  0.0271
46120W        W54720  12.100   6.070  19.174  0.0730 -0.1058  0.1616
46121W        W54721   4.545   1.771  32.961 -0.0552 -0.2584 -0.1194
46122W        W54722  20.276   3.834   4.124 -0.1391  0.0962 -0.1534
46123W        W54723   8.106   0.149  32.489  0.2140 -0.1656 -0.0962
46124W        W54724   3.138   0.179   1.799  0.0417  0.0256  0.1694
46125W        W54725  11.165   1.848  29.565  0.0483 -0.2656 -0.1094
46126W        W54726  17.495   6.960  20.217 -0.2210  0.0159 -0.3024
46127W        W54727   8.419   4.742   8.667 -0.0148  0.0137 -0.2572
46128W        W54728  15.377   6.440   4.661 -0.0756  0.1826  0.0243
46129W        W54729  24.562   7.698  24.257 -0.0763 -0.1943  0.1313
46130W        W54730   8.668   1.151   7.632 -0.1316  0.0622  0.0734
46131W        W54731  24.326   1.379   9.645  0.0891 -0.1330 -0.0734
46132W        W54732   2.545   7.751  15.424 -0.2374 -0.0916 -0.2402
46133W        W54733  13.525   3.616  20.442  0.2026 -0.0081  0.0873
46134W        W54734  20.848   7.248  18.946 -0.1662 -0.1192  0.1159
46135W        W54735  16.518   2.050  32.478 -0.2043 -0.0426 -0.2947
46136W        W54736   2.800   0.507   5.210 -0.1363 -0.2799  0.2351
46137W        W54737  12.311   1.436  31.360  0.2232 -0.0635  0.1403
46138W        W54738  23.862   1.818  25.103  0.1879 -0.0313 -0.0096
46139W        W54739  16.597   2.681   0.213  0.0413 -0.1103  0.0744
46140W        W54740  15.625   1.059  30.631  0.0142 -0.0540 -0.3225
46141W        W54741   4.200   1.466   3.536  0.2217 -0.1454  0.1012
46142W        W54742   2.729   0.502  25.542  0.3064  0.1686  0.2186
46143W        W54743  11.337   2.808  19.732 -0.1962  0.1321  0.3379
46144W        W54744   0.151   3.945  32.847 -0.0641  0.1079  0.1747
46145W        W54745  17.282   3.172  18.630  0.0089 -0.0363 -0.1781
46146W        W54746  18.558   2.530  29.472 -0.0857  0.1076  0.1267
46147W        W54747   8.040   5.753  10.055 -0.1807 -0.2383 -0.2817
46148W        W54748   1.879   0.425   4.323  0.1141  0.1154  0.2465
46149W        W54749  19.371   7.625   9.974  0.2577  0.0722 -0.0669
46150W        W54750  15.937   1.957  15.403 -0.2089 -0.2225  0.0809
46151W        W54751  16.842   4.733  24.171 -0.0199 -0.3642  0.1109
46152W        W54752   3.653   4.880  24.462 -0.1144 -0.0294 -0.2061
46153W        W54753   5.213   5.827  10.191  0.0425  0.0514 -0.1148
46154W        W54754  21.636   2.021   9.502 -0.2856  0.0197  0.4741
46155W        W54755   7.855   5.755  27.699 -0.2537  0.2898 -0.0384
46156W        W54756  10.261   3.271  25.866  0.1086 -0.1919  0.0625
46157W        W54757  24.695   0.447  28.127 -0.1196 -0.0924  0.0231
46158W        W54758   9.896   6.736  27.336  0.1746  0.0251 -0.3319
46159W        W54759  10.117   7.719  32.344  0.0357  0.0023 -0.2821
46160W        W54760  17.033   7.214  27.747  0.0833  0.0733 -0.1198
46161W        W54761  13.147   0.376   6.154 -0.1310  0.0393 -0.2838
46162W        W54762  23.990   4.472  24.774 -0.2683  0.2066  0.0910
46163W        W54763   0.722   0.469   7.913  0.2380  0.3247 -0.3125
46164W        W54764   5.524   4.154  17.078  0.0880  0.1295  0.1573
46165W        W54765  18.585   2.693  28.498 -0.2127 -0.0466 -0.0104
46166W        W54766   5.897   6.386  23.646 -0.2263  0.2620 -0.0739
46167W        W54767  20.951   6.602  10.632  0.2447  0.0768 -0.2710
46168W        W54768   8.497   1.472  28.889 -0.2970 -0.0485  0.0627
46169W        W54769   8.931   6.237   4.271  0.2028 -0.2570 -0.0254
46170W        W54770  13.906   3.015  26.083  0.1323  0.0343 -0.0816
46171W        W54771  19.006   2.045  30.695 -0.2098  0.1893 -0.2789
46172W        W54772  18.096   1.687  30.483  0.1512  0.0062 -0.2843
46173W        W54773  23.819   3.417  15.299 -0.2152 -0.0661 -0.3099
46174W        W54774  24.587   4.004  15.107 -0.0229 -0.1003 -0.0876
46175W        W54775   9.387   6.965   0.476 -0.0484 -0.2231 -0.2477
46176W        W54776  20.308   0.270  30.410  0.3269 -0.6785 -0.0179
46177W        W54777   4.342   2.414  11.465 -0.0407 -0.0016  0.3053
46178W        W54778  18.445   4.543  18.514  0.2285 -0.2338 -0.0781
46179W        W54779  19.878   6.107  18.502 -0.2700  0.0101 -0.0652
46180W        W54780  12.876   6.062  27.364  0.0692 -0.0416 -0.4819
46181W        W54781  15.518   6.650  17.481 -0.0535 -0.0172 -0.0110
46182W        W54782   0.041   5.748  12.621 -0.1085  0.1536 -0.3377
46183W        W54783  16.139   4.618  15.056 -0.1370  0.0593  0.1861
46184W        W54784   5.670   2.264  25.786 -0.0615  0.1835 -0.1164
46185W        W54785  13.086   1.739   8.202  0.3784  0.2290 -0.1752
46186W        W54786   7.905   0.383   5.361 -0.0354  0.0395 -0.0294
46187W        W54787  17.425   4.672   7.257  0.0524 -0.3766 -0.0960
46188W        W54788  12.086   3.914   2.290 -0.0203 -0.1238  0.1498
46189W        W54789  14.681   0.509  25.321  0.1169 -0.1847 -0.1864
46190W        W54790  11.457   1.339   4.553 -0.2409 -0.2318  0.0623
46191W        W54791   5.382   3.004  18.629  0.0413 -0.1531  0.1108
46192W        W54792  19.583   4.461  21.875 -0.1303  0.0071 -0.1495
46193W        W54793   3.837   3.234   3.264 -0.0232  0.4583 -0.0519
46194W        W54794   7.095   0.540  28.245  0.1301  0.1135 -0.0793
46195W        W54795   2.398   7.367  14.161 -0.1493  0.1177 -0.1898
46196W        W54796  11.758   2.893  10.153 -0.0176 -0.2316  0.0850
46197W        W54797   9.358   1.719  14.468  0.2519  0.2174  0.3317
46198W        W54798   4.409   4.110  15.327 -0.2101 -0.0420  0.1261
46199W        W54799   1.270   5.624  32.658 -0.0106 -0.0484  0.2356
46200W        W54800  13.239   1.519   4.888 -0.1533 -0.1026 -0.0030
46201W        W54801  11.891   1.388  32.846  0.2106 -0.1882  0.1880
46202W        W54802  13.924   5.053  26.372 -0.1400  0.0443 -0.1911
46203W        W54803  13.664   4.494  22.907  0.0786 -0.1166 -0.2087
46204W        W54804   4.957   1.237  12.641  0.0460 -0.1393  0.0007
46205W        W54805   6.036   3.009   1.503 -0.0574  0.3643  0.0973
46206W        W54806   7.665   1.205  29.314  0.3435 -0.2223 -0.1392
46207W        W54807   5.926   0.969   2.617  0.2648 -0.0427  0.0264
46208W        W54808  14.619   3.650  22.770 -0.1195  0.0028 -0.1173
46209W        W54809  20.365   1.740  22.097 -0.2926  0.0266  0.1245
46210W        W54810  15.097   2.382  26.854  0.2762  0.1477 -0.3661
46211W        W54811  10.618   7.173  25.276  0.2214  0.0931  0.1586
46212W        W54812  23.036   3.066   4.821 -0.0424  0.0016  0.0259
46213W        W54813   9.955   5.240   3.153  0.0043 -0.1750  0.0423
46214W        W54814   7.298   0.320   9.086  0.2365 -0.3835 -0.0831
46215W        W54815  11.614   2.529   6.276 -0.3144 -0.1322  0.0125
46216W        W54816  18.771   2.339  22.524  0.0386  0.1516  0.0447
46217W        W54817  20.415   5.629   5.954 -0.2120 -0.1467  0.0738
46218W        W54818   3.375   6.874   4.017  0.3357  0.0269  0.0100
46219W        W54819  14.374   0.350   9.698  0.1315 -0.0811  0.3735
46220W        W54820  21.921   0.826   1.346 -0.3847 -0.0490 -0.0849
46221W        W54821  13.081   7.169  16.896 -0.1047 -0.0769 -0.1223
46222W        W54822  24.439   2.016  26.698  0.0283  0.2764  0.0488
46223W        W54823  11.747   1.889  26.133  0.2662 -0.1720  0.2587
46224W        W54824  11.327   5.241  11.745 -0.2529 -0.1131  0.1227
46225W        W54825  11.534   0.787  22.121 -0.1961  0.2798  0.2746
46226W        W54826  22.972   2.677   0.514 -0.0201  0.0205  0.0706
46227W        W54827   6.281   2.029   6.700  0.1996 -0.2303 -0.0938
46228W        W54828   2.212   5.367  23.250 -0.3124  0.0642  0.2556
46229W        W54829   0.819   7.726  27.550  0.1082 -0.0049  0.0289
46230W        W54830  18.731   1.741  17.553 -0.0756 -0.0914  0.2285
46231W        W54831  14.972   1.533   5.460 -0.0548 -0.0459  0.1340
46232W        W54832  12.481   4.524   6.983  0.2663  0.1858  0.0655
46233W        W54833  18.297   3.201  32.814 -0.0938  0.0419  0.0701
46234W        W54834  17.038   1.838  18.488 -0.0213 -0.1644 -0.3630
46235W        W54835  12.437   5.803   3.456  0.2184 -0.2691 -0.2235
46236W        W54836   7.373   3.590  21.838  0.0446  0.1483 -0.0239
46237W        W54837   2.457   2.345  30.272 -0.1019  0.1804 -0.1463
46238W        W54838  21.551   6.134  31.548 -0.1685 -0.3861  0.0978
46239W        W54839   2.751   4.003   1.195  0.5550  0.0157  0.1238
46240W        W54840  11.332   7.776   0.645  0.0897 -0.0888 -0.0347
46241W        W54841  21.008   2.245  21.684 -0.4389  0.0709  0.3506
46242W        W54842  13.335   2.754  19.235 -0.1792  0.2523  0.0779
46243W        W54843  10.073   3.391   6.479 -0.0879  0.2031  0.0603
46244W        W54844  20.452   6.237   7.191  0.0514 -0.2508 -0.2727
46245W        W54845   0.156   4.778  14.570 -0.2113 -0.0785 -0.0577
46246W        W54846  10.112   4.545   2.786  0.4218  0.1247 -0.3194
46247W        W54847  19.796   1.729   9.838  0.0197  0.0490  0.2043
46248W        W54848  24.811   5.261  12.445  0.0901  0.3260 -0.0251
46249W        W54849   4.495   4.052  16.256 -0.2180 -0.0966 -0.0830
46250W        W54850  19.666   1.132  10.238  0.1554 -0.0317  0.0088
46251W        W54851   9.227   6.784  21.200 -0.0284 -0.1465  0.0608
46252W        W54852  11.709   0.090  10.290 -0.0022 -0.0609 -0.1035
46253W        W54853  18.039   0.227   3.059 -0.1352  0.1146 -0.0492
46254W        W54854   9.850   5.967   1.338 -0.0450  0.1737 -0.1923
46255W        W54855  13.157   4.219  18.081  0.5233 -0.0800  0.0771
46256W        W54856  11.337   3.835  12.261  0.1276 -0.2296 -0.2955
46257W        W54857  19.531   3.952   5.366  0.2532  0.2291  0.1573
46258W        W54858   5.174   4.704  29.182 -0.2594  0.1899  0.1040
46259W        W54859   4.373   3.408   9.222  0.1042  0.2387  0.0450
46260W        W54860   1.664   2.186   8.310  0.0100  0.1309 -0.1025
46261W        W54861  15.115   5.463   8.839 -0.1664 -0.0232  0.1967
46262W        W54862   7.780   4.503  33.024 -0.0765  0.0908 -0.0367
46263W        W54863   6.922   0.761   3.466 -0.1010 -0.1844 -0.3330
46264W        W54864  14.382   1.100   8.210 -0.1206  0.1290  0.0417
46265W        W54865  15.468   1.091  30.095  0.0224  0.2084  0.0699
46266W        W54866  15.854   7.159  22.826  0.2308  0.1949  0.3284
46267W        W54867  18.710   4.794   7.181 -0.0064 -0.1748 -0.1536
46268W        W54868   0.141   7.119  27.434 -0.3190  0.1850  0.1006
46269W        W54869   5.220   7.210   9.527  0.1580  0.1343  0.1983
46270W        W54870  16.683   3.727   9.037  0.3729  0.2414 -0.0887
46271W        W54871   5.712   7.400  32.968  0.1781  0.0502 -0.0902
46272W        W54872  14.246   1.440   7.104  0.0845  0.0739 -0.0855
46273W        W54873  16.825   4.684  10.301  0.1481 -0.1410 -0.0674
46274W        W54874  24.136   5.498  28.814  0.2863 -0.0437 -0.1716
46275W        W54875   8.583   7.588   5.793 -0.0431 -0.0541 -0.0784
46276W        W54876   6.938   0.188  31.705  0.2754  0.0636  0.0372
46277W        W54877  15.964   2.883  18.250 -0.2951 -0.0682 -0.3501
46278W        W54878  12.920   2.780  28.760  0.1504  0.3813 -0.0608
46279W        W54879  21.990   5.335   5.993 -0.0532 -0.1195 -0.1209
46280W        W54880   0.027   0.022   7.952 -0.3158 -0.0393 -0.2638
46281W        W54881   1.476   0.160  22.535 -0.0017  0.1613 -0.0250
46282W        W54882  23.576   0.718   0.873 -0.0464 -0.0431  0.2568
46283W        W54883  18.205   1.371   2.463 -0.2880  0.3147  0.0965
46284W        W54884  14.482   7.099  22.655  0.1125 -0.0379 -0.2304
46285W        W54885  14.812   7.218   4.598 -0.0884  0.0588 -0.0500
46286W        W54886   9.268   1.826   2.547 -0.0282  0.1557  0.2426
46287W        W54887  10.811   3.017  10.317 -0.0385 -0.0701 -0.2205
46288W        W54888  24.736   2.480   9.579 -0.1073 -0.3688 -0.0610
46289W        W54889   3.295   4.714  15.671  0.0913  0.1824 -0.0162
46290W        W54890  10.664   7.739   4.749  0.1583 -0.1681  0.1606
46291W        W54891   3.824   0.770   0.806 -0.0742 -0.3779  0.1329
46292W        W54892  19.292   3.627   1.707 -0.1775 -0.3943 -0.1636
46293W        W54893  15.036   0.109   5.944  0.0769 -0.1501  0.0752
46294W        W54894   2.861   5.533  29.070 -0.0681 -0.0294  0.0184
46295W        W54895   7.113   4.010   3.989  0.1188 -0.1215 -0.2622
46296W        W54896   1.063   2.697  31.230  0.0840 -0.0780 -0.0862
46297W        W54897   2.120   0.287  10.695 -0.1343 -0.1197 -0.1166
46298W        W54898   3.094   0.847  13.630  0.1349 -0.1308 -0.1682
46299W        W54899  18.282   6.234  30.311 -0.0952 -0.0617  0.1218
46300W        W54900   9.232   1.903   8.952  0.0197 -0.1157 -0.3468
46301W        W54901   2.952   6.192   3.651 -0.1692  0.0670 -0.0750
46302W        W54902  23.824   7.035  23.693 -0.1042  0.0205  0.1094
46303W        W54903  23.336   2.914  31.233  0.2847 -0.1380  0.0886
46304W        W54904   9.761   0.380  27.480  0.3127  0.1397  0.2629
46305W        W54905   2.223   3.616  22.658 -0.2742  0.4973 -0.0449
46306W        W54906  16.187   5.717  15.649 -0.2235  0.2286 -0.0012
46307W        W54907  21.316   4.315   4.122 -0.1097 -0.1002  0.1012
46308W        W54908  14.114   4.932  28.352 -0.0847  0.0149  0.1641
46309W        W54909   6.467   0.096   0.477 -0.1987 -0.1678 -0.1819
46310W        W54910  10.545   1.875   1.845  0.1875 -0.0855  0.0625
46311W        W54911   3.020   2.507   7.386 -0.0078  0.1782  0.1271
46312W        W54912  18.091   5.742  15.543  0.2540 -0.2977  0.1093
46313W        W54913  24.421   5.779  31.683  0.4549 -0.3532  0.1979
46314W        W54914  15.583   7.082  30.294  0.2667 -0.1182  0.2707
46315W        W54915  21.470   6.945   4.941  0.1161  0.0006 -0.1946
46316W        W54916  20.292   6.859  25.622 -0.0789 -0.0174 -0.1563
46317W        W54917   6.334   2.681  18.035  0.1631  0.0756  0.2246
46318W        W54918   0.680   5.945  27.548  0.1427 -0.0145 -0.1358
46319W        W54919  18.079   5.492  17.974  0.3428 -0.1160  0.2694
46320W        W54920   4.697   4.000  12.717 -0.0425 -0.2188  0.1102
46321W        W54921  14.013   3.471   3.097 -0.1584 -0.1158  0.1120
46322W        W54922   0.558   7.672   9.181  0.0759 -0.1409  0.2816
46323W        W54923  14.614   1.649  19.856 -0.3604  0.1361 -0.3102
46324W        W54924  15.818   4.151  23.307 -0.0556 -0.4086  0.2997
46325W        W54925   7.191   3.906  26.620  0.3139 -0.1687 -0.0562
46326W        W54926  17.467   4.289   6.058 -0.1538  0.0188  0.2308
46327W        W54927   4.538   2.909  10.629 -0.1009  0.0522  0.2132
46328W        W54928  23.714   4.184   4.215 -0.1732  0.2578 -0.2249
46329W        W54929  24.031   4.376   9.936  0.2589  0.2931 -0.1147
46330W        W54930   7.587   7.068  30.118  0.1542  0.1921  0.0050
46331W        W54931  21.115   1.768   5.672  0.0546  0.0170 -0.1594
46332W        W54932  14.589   6.457  10.548 -0.0850 -0.2464  0.3646
46333W        W54933   1.687   7.472  31.661 -0.1337 -0.1066  0.0629
46334W        W54934  23.716   6.164   5.736  0.1272  0.0732 -0.0182
46335W        W54935  15.466   3.243  19.760 -0.0049  0.0090 -0.0339
46336W        W54936   8.274   5.431   0.011  0.2358 -0.0772 -0.0535
46337W        W54937  24.908   2.481  16.393 -0.1628  0.2619 -0.2327
46338W        W54938  18.570   5.655   2.939 -0.1743  0.1048 -0.0948
46339W        W54939  17.845   5.229  10.207 -0.0355  0.0868  0.0666
46340W        W54940  12.594   5.624  29.297 -0.2516  0.3048  0.0986
46341W        W54941  11.382   2.704   7.965  0.0082 -0.3068  0.1051
46342W        W54942   0.394   2.142   7.513  0.1611  0.3036 -0.0088
46343W        W54943   4.647   4.144  17.843  0.0844 -0.0499 -0.0286
46344W        W54944  10.670   2.274  31.894  0.0656  0.0569 -0.2289
46345W        W54945  10.089   1.897   3.689  0.0339 -0.0519 -0.0742
46346W        W54946   2.896   0.071   0.819  0.0431 -0.1205  0.4392
46347W        W54947  19.110   2.112  23.753 -0.1520  0.2057 -0.0541
46348W        W54948  23.387   4.679  22.781 -0.2682 -0.0862  0.0480
46349W        W54949   5.435   4.746  12.884  0.1349 -0.1166 -0.1728
46350W        W54950   5.743   4.145  28.845  0.2000  0.1578 -0.0608
46351W        W54951   9.809   5.089  21.121 -0.0094  0.2714 -0.1029
46352W        W54952  19.449   1.688  18.122  0.0067 -0.0212  0.2476
46353W        W54953   4.045   2.132  15.519  0.1262  0.0671  0.0454
46354W        W54954  13.892   7.497  25.678 -0.1387 -0.0169  0.1786
46355W        W54955  24.123   6.657  32.226 -0.2419  0.3763 -0.1229
46356W        W54956   6.810   1.087   9.623  0.0593 -0.2642 -0.0629
46357W        W54957  16.144   6.325   0.997  0.3291 -0.0948  0.2432
46358W        W54958  14.704   1.925  17.876 -0.1799 -0.1254 -0.0251
46359W        W54959  14.326   7.130   9.010  0.1831  0.3225  0.2277
46360W        W54960  15.347   2.616   4.765  0.0508  0.1248  0.3260
46361W        W54961   0.868   7.765  26.999  0.3160 -0.1817 -0.1940
46362W        W54962  11.169   0.099   5.499  0.0697 -0.1554  0.1889
46363W        W54963  21.821   7.175  14.062 -0.0459  0.0911  0.0024
46364W        W54964   7.196   7.059  15.994  0.1052 -0.2135 -0.1099
46365W        W54965   4.344   6.045  17.071  0.1869 -0.1513  0.0591
46366W        W54966   0.841   7.235  21.575  0.2974 -0.3059 -0.0686
46367W        W54967   0.224   0.943  29.996 -0.0984  0.0828 -0.1269
46368W        W54968   3.508   3.654   9.649  0.1358  0.0521  0.1031
46369W        W54969   1.936   1.290   9.680 -0.2884  0.1543  0.0647
46370W        W54970  10.987   4.777  30.681 -0.1632  0.1324  0.1175
46371W        W54971  22.615   5.345   2.662 -0.3447  0.2551  0.0806
46372W        W54972   5.058   6.648   3.574  0.2708 -0.1475  0.0110
46373W        W54973  16.990   6.902   5.872  0.0367  0.0291  0.1050
46374W        W54974  23.458   7.190  10.705 -0.1799 -0.1924  0.0549
46375W        W54975  16.027   7.658  22.696 -0.0186  0.0402 -0.1536
46376W        W54976  16.109   5.860  22.118  0.1527 -0.3669  0.1725
46377W        W54977   6.202   4.584  23.962  0.2943  0.2938 -0.0545
46378W        W54978  15.841   1.008  29.728  0.0474 -0.1084 -0.1407
46379W        W54979  16.549   4.626  32.696  0.2215  0.2771 -0.0939
46380W        W54980   7.864   6.919  10.593 -0.3851  0.0147  0.0290
46381W        W54981  23.197   1.543  29.116 -0.0498 -0.0549  0.4300
46382W        W54982  24.289   2.672  22.998  0.0834  0.0594 -0.1399
46383W        W54983  14.727   5.358  10.122  0.0341  0.0929  0.1608
46384W        W54984   8.415   0.394   5.243  0.2071  0.2080 -0.3293
46385W        W54985  21.852   6.589  10.796 -0.0740 -0.1791  0.3355
46386W        W54986   4.717   7.480   0.250 -0.0994  0.0956 -0.0979
46387W        W54987   5.979   7.105  25.597  0.2994  0.0797 -0.3759
46388W        W54988   1.546   6.342  12.061  0.2033  0.0284  0.1332
46389W        W54989   9.593   5.267  23.942 -0.0934  0.1190 -0.0190
46390W        W54990  13.429   2.829   7.347 -0.0206 -0.0804  0.0375
46391W        W54991   1.933   2.557  24.593  0.0606 -0.1324  0.1447
46392W        W54992  24.449   0.541  20.685  0.1225 -0.1532  0.0561
46393W        W54993  20.880   2.802   9.207 -0.0130  0.0399  0.2029
46394W        W54994   1.047   7.328  27.879 -0.0198  0.2159 -0.2495
46395W        W54995   6.203   7.761  12.678 -0.0279 -0.1249 -0.0964
46396W        W54996  16.548   6.602  10.234 -0.0567  0.0917  0.0383
46397W        W54997  14.930   1.232   1.966  0.0368  0.0010  0.2794
46398W        W54998  22.128   5.734   8.784 -0.2752  0.0306  0.2828
46399W        W54999  10.574   3.226   0.210  0.0509  0.1141  0.4192
46400W        W55000  11.308   3.020  21.269  0.2479  0.2827 -0.1903
46401W        W55001  20.194   7.723   3.731 -0.0064  0.1569 -0.1104
46402W        W55002   9.375   5.287  23.208 -0.1562  0.0357  0.0225
46403W        W55003  11.060   2.274  29.278  0.0516  0.3884 -0.2410
46404W        W55004   4.031   7.630  31.584 -0.3052 -0.0183 -0.0565
46405W        W55005  21.289   3.447   0.777  0.1508  0.3322 -0.2463
46406W        W55006   8.097   4.583   3.821  0.1093 -0.0138 -0.1187
46407W        W55007   5.307   1.065  16.940  0.0488 -0.0787 -0.2678
46408W        W55008   5.338   6.459  29.010 -0.0398  0.1748 -0.0662
46409W        W55009   7.687   6.114   4.711 -0.0441  0.2959 -0.0298
46410W        W55010  18.497   3.214  17.653  0.3117  0.0160 -0.1337
46411W        W55011   7.466   5.654  25.664  0.1304  0.1085  0.0303
46412W        W55012  23.742   4.735  29.036  0.2273  0.2127 -0.1655
46413W        W55013   0.443   4.843   4.939 -0.1326 -0.0321 -0.2131
46414W        W55014  16.941   2.098  28.040 -0.1043 -0.0932 -0.0360
46415W        W55015  22.503   4.370  30.857 -0.0390  0.0237  0.1048
46416W        W55016  23.888   3.079  24.258  0.1976 -0.1983 -0.2427
46417W        W55017  22.286   2.117  12.852 -0.0881  0.0469 -0.0579
46418W        W55018  14.209   0.115   4.900 -0.1904  0.0010  0.0213
46419W        W55019  11.201   3.853  29.869 -0.1939  0.0372 -0.1596
46420W        W55020   0.340   6.366   8.972  0.0716  0.2332  0.0345
46421W        W55021  20.922   4.298   7.310  0.1000 -0.1996 -0.1210
46422W        W55022  24.111   3.651  12.350  0.2047 -0.1588 -0.0756
46423W        W55023  12.948   6.753   4.399 -0.3395  0.0688  0.0806
46424W        W55024   5.539   1.471   1.519 -0.1478  0.0315  0.3298
46425W        W55025  14.412   3.602  28.476  0.0420 -0.2257 -0.2095
46426W        W55026   4.585   3.099  31.587  0.0520 -0.0646 -0.3040
46427W        W55027   7.151   0.165  11.880 -0.0988  0.0267  0.5251
46428W        W55028  17.010   6.011  24.545  0.1959  0.0003 -0.0462
46429W        W55029  24.089   1.401   1.117 -0.1439  0.0136  0.0919
46430W        W55030   8.142   1.577  10.615 -0.3607 -0.2197  0.1199
46431W        W55031  22.306   7.701   1.584 -0.1181  0.1108 -0.1382
46432W        W55032   8.709   7.162  10.150  0.1676  0.2973  0.0489
46433W        W55033  15.406   4.424   9.622 -0.1671 -0.1597  0.0426
46434W        W55034  17.764   0.395   8.013  0.0111  0.0590 -0.2479
46435W        W55035   8.877   2.832  31.155  0.0847  0.0445 -0.1395
46436W        W55036  23.369   0.150  12.006  0.2132  0.1443 -0.0041
46437W        W55037  12.819   2.765  17.294 -0.0055 -0.0985 -0.1420
46438W        W55038   9.534   0.620   0.518  0.1838  0.0604 -0.1384
46439W        W55039  18.099   0.478   6.411 -0.1475  0.0464 -0.4599
46440W        W55040  14.342   4.528  20.335  0.0522 -0.1235  0.1922
46441W        W55041  10.726   7.184  25.758 -0.1759  0.1632 -0.0996
46442W        W55042   6.058   3.284   3.277  0.0365 -0.1916 -0.0838
46443W        W55043  15.225   2.280  14.790  0.2674  0.2333  0.1697
46444W        W55044  22.252   7.329  28.739 -0.1474 -0.0285  0.0854
46445W        W55045  20.010   1.406  31.726 -0.3556 -0.2310 -0.0788
46446W        W55046  19.325   0.095   9.377  0.2537 -0.2004 -0.1060
46447W        W55047  16.833   0.522   3.401  0.1504  0.0375  0.1081
46448W        W55048  15.346   6.662  27.078 -0.2217 -0.0143 -0.2239
46449W        W55049  18.399   4.897  26.334  0.0400 -0.2533  0.3302
46450W        W55050  18.155   5.603  17.040  0.1846 -0.0142  0.0986
46451W        W55051  20.754   6.318  28.547 -0.2705 -0.1139 -0.1327
46452W        W55052  16.070   1.294  21.686 -0.2236 -0.1520 -0.1258
46453W        W55053   3.324   3.782  15.399  0.0569 -0.0184 -0.1053
46454W        W55054  23.041   2.095   4.772  0.0241  0.1429 -0.0049
46455W        W55055  12.922   4.110  21.841  0.0753 -0.1433  0.0700
46456W        W55056  10.632   3.722  11.508  0.0918  0.0084  0.0818
46457W        W55057   3.080   4.666  23.397  0.0000 -0.0563  0.0821
46458W        W55058  10.123   1.751  20.435  0.1854  0.2607 -0.0264
46459W        W55059  20.149   2.005   0.649  0.0112 -0.3479  0.1121
46460W        W55060  10.671   2.268  27.876 -0.0666  0.2231 -0.1647
46461W        W55061  15.703   2.420   5.630  0.0281  0.0342 -0.0023
46462W        W55062   2.363   1.074   0.319 -0.2106 -0.0236  0.1677
46463W        W55063   7.667   1.331  14.667  0.1500 -0.2747  0.1311
46464W        W55064   1.665   4.175  29.591  0.3646 -0.1531  0.3973
46465W        W55065   4.775   6.467  13.362  0.2150 -0.0499  0.1487
46466W        W55066  21.028   2.193  23.486 -0.2875  0.0758  0.2124
46467W        W55067  14.004   2.761  24.346  0.2972 -0.0946  0.2440
46468W        W55068  19.544   4.587  31.015 -0.1270  0.1876  0.0464
46469W        W55069   3.648   1.916  14.255  0.0059 -0.3371 -0.0810
46470W        W55070   4.434   0.822  30.691  0.0190  0.0932 -0.0048
46471W        W55071   9.266   6.254   5.774  0.3399 -0.1729  0.0811
46472W        W55072   3.946   2.266  22.827 -0.1739  0.1818  0.3013
46473W        W55073  24.520   4.420   9.637 -0.1361  0.3080 -0.3630
46474W        W55074   1.991   1.375  14.407 -0.0238  0.0126  0.1186
46475W        W55075  12.674   6.014  23.430  0.0984 -0.1952 -0.0626
46476W        W55076  12.965   7.096   4.736 -0.2141 -0.1752 -0.0209
46477W        W55077  11.931   6.087   2.859  0.1096 -0.0930 -0.3984
46478W        W55078  19.071   3.639   9.082  0.0100 -0.0117  0.0516
46479W        W55079   8.012   7.017  27.879 -0.2620 -0.1202 -0.0831
46480W        W55080   8.622   6.974  30.134 -0.0773  0.0007 -0.1141
46481W        W55081  18.109   1.840  29.450 -0.0854 -0.2353 -0.4223
46482W        W55082  11.083   4.652   3.483  0.0961 -0.0069  0.0518
46483W        W55083  16.703   6.199  24.125 -0.0439 -0.0987 -0.2794
46484W        W55084  22.227   5.584   0.694  0.2596 -0.0861 -0.1013
46485W        W55085  13.082   2.712  25.015 -0.0510 -0.0096 -0.1175
46486W        W55086  10.652   2.529  31.425  0.1622  0.0744  0.1945
46487W        W55087   0.452   2.619  28.756  0.0751  0.0580 -0.1430
46488W        W55088  18.999   6.195  21.457  0.2014 -0.1836 -0.1109
46489W        W55089  15.948   4.723  26.858  0.0918 -0.2687  0.1715
46490W        W55090  12.105   3.583   6.308 -0.0362  0.2334 -0.1405
46491W        W55091   7.706   1.103  28.198 -0.1244 -0.0442 -0.3185
46492W        W55092  18.092   4.732  20.672  0.1955 -0.2782 -0.1549
46493W        W55093  18.068   5.491  26.160  0.2545  0.0394 -0.1322
46494W        W55094  16.240   6.751  31.405 -0.0471 -0.2100 -0.0856
46495W        W55095   9.853   4.327  11.366  0.2168 -0.3527 -0.0038
46496W        W55096   1.408   5.748   1.421  0.2743  0.2675 -0.3291
46497W        W55097  23.135   6.106  10.696  0.4145  0.1980 -0.1354
46498W        W55098   0.737   7.454   6.889 -0.0242 -0.1507 -0.3053
46499W        W55099   0.049   0.905   5.983 -0.2208 -0.1434 -0.0511
46500W        W55100   0.885   0.629   5.300  0.0309  0.2588  0.0623
46501W        W55101  23.350   1.170   3.590 -0.0257  0.2341  0.2004
46502W        W55102  10.603   2.126   5.129 -0.2961 -0.1028 -0.1138
46503W        W55103  10.901   2.855  21.501  0.1904 -0.1408 -0.0044
46504W        W55104  24.394   1.478  32.827 -0.1474 -0.2135 -0.1428
46505W        W55105  17.909   0.126  22.229  0.2065 -0.0310 -0.3214
46506W        W55106  19.629   3.982  17.770  0.1693 -0.1026 -0.0039
46507W        W55107   3.199   2.962  23.128 -0.0803  0.3113 -0.0596
46508W        W55108  17.640   7.390  23.497 -0.2306 -0.3396  0.1759
46509W        W55109  24.031   1.176  10.089 -0.2921  0.1853  0.1351
46510W        W55110   3.318   2.934  16.215  0.3275 -0.0519  0.1920
46511W        W55111  20.771   5.067  28.301 -0.0301 -0.0056  0.2532
46512W        W55112  23.479   6.382   1.423 -0.4477 -0.0193 -0.0550
46513W        W55113   1.389   5.460  29.847  0.1361 -0.1596 -0.1199
46514W        W55114  19.985   6.564  22.250 -0.1416  0.1976  0.0822
46515W        W55115  21.399   4.846  20.626 -0.0333  0.0154  0.2641
46516W        W55116   2.954   7.360  16.055  0.0047  0.0271  0.1377
46517W        W55117  17.917   4.063  27.211 -0.1215 -0.0703  0.0819
46518W        W55118  21.633   6.389  26.585 -0.1495  0.0663 -0.0973
46519W        W55119   4.374   7.468  17.163  0.1017  0.0530  0.0221
46520W        W55120   8.019   0.188  13.123 -0.0891 -0.0644  0.0991
46521W        W55121   2.378   0.899  25.467  0.2298 -0.1996 -0.1005
46522W        W55122   0.725   6.308  32.791  0.1663 -0.3528  0.1296
46523W        W55123  13.589   7.110  20.132 -0.0233 -0.0412 -0.1578
46524W        W55124   7.252   0.081   8.614  0.0387  0.2632  0.4451
46525W        W55125   1.796   2.209  23.533  0.1292 -0.2404  0.1423
46526W        W55126  14.325   3.610  17.106  0.1031 -0.1403 -0.3339
46527W        W55127   4.868   6.059  23.096  0.0440  0.4455 -0.2158
46528W        W55128   9.044   5.053  22.754 -0.2176  0.2225 -0.1367
46529W        W55129  15.597   7.508  20.453  0.0489 -0.1694  0.1688
46530W        W55130  14.408   6.965   8.305 -0.0819  0.1787  0.0697
46531W        W55131   4.113   2.100   6.658 -0.1191  0.0180  0.0693
46532W        W55132  22.194   4.286  13.888 -0.1586  0.0276  0.0327
46533W        W55133  12.806   2.529  31.610 -0.0866 -0.1538 -0.2065
46534W        W55134  10.604   0.707  21.767 -0.1656 -0.1034  0.2472
46535W        W55135   4.744   7.694  12.866 -0.1830 -0.3571  0.2150
46536W        W55136  19.009   3.182   9.101 -0.2458 -0.0068 -0.0391
46537W        W55137  10.838   6.373  27.701  0.1690  0.1767 -0.0354
46538W        W55138   0.898   6.113   4.460  0.0765 -0.1003  0.0791
46539W        W55139  13.508   7.135  16.604  0.2074 -0.0686 -0.0293
46540W        W55140   5.022   3.463  12.625 -0.1302  0.0060  0.0566
46541W        W55141   6.611   3.909  16.800  0.2384 -0.0123 -0.0795
46542W        W55142  19.221   1.441  28.618 -0.1768  0.1554  0.2390
46543W        W55143  18.255   2.219   7.763  0.1501  0.0038 -0.0487
46544W        W55144  21.885   1.765  20.441 -0.2159  0.1010  0.4808
46545W        W55145  22.829   7.404  19.484  0.3985 -0.0834 -0.0466
46546W        W55146  19.857   3.596   9.741 -0.1829  0.0320  0.1026
46547W        W55147   4.045   3.236  32.738  0.0398 -0.0165  0.2524
46548W        W55148   4.997   1.902  26.340  0.2185 -0.0993  0.2056
46549W        W55149   4.916   0.925  17.306 -0.2811 -0.0496 -0.2150
46550W        W55150  21.618   5.494   1.531  0.1658  0.2944  0.3064
46551W        W55151   5.775   5.930  15.742 -0.0277 -0.0964  0.5345
46552W        W55152  13.599   3.816  28.216 -0.1378  0.1151  0.0087
46553W        W55153   1.957   0.827  12.918  0.0542  0.2123 -0.1527
46554W        W55154   0.677   7.319  26.139 -0.0035 -0.0680 -0.0358
46555W        W55155   3.630   6.710  29.522  0.0070 -0.3174 -0.0745
46556W        W55156   0.020   1.907  14.229  0.0698  0.1008  0.0805
46557W        W55157   3.141   0.937  28.067  0.4499  0.1063 -0.1956
46558W        W55158  20.566   1.775  19.548  0.0115 -0.2062  0.0860
46559W        W55159  24.661   1.876  22.206 -0.0304 -0.0684 -0.1233
46560W        W55160  17.948   5.646   8.736  0.0932  0.3892 -0.0243
46561W        W55161  21.475   3.128   7.808 -0.3517  0.0142 -0.0513
46562W        W55162  17.879   1.130   5.715 -0.1578 -0.1724 -0.0937
46563W        W55163  15.148   2.663  30.723 -0.0858 -0.2006  0.0942
46564W        W55164  23.003   1.631   6.706 -0.1130  0.2049 -0.2933
46565W        W55165  12.228   2.126  30.474 -0.1252  0.1678 -0.0141
46566W        W55166   7.976   6.562  22.267 -0.0272 -0.1995  0.4283
46567W        W55167  15.669   4.424   0.537 -0.2523 -0.4310  0.0313
46568W        W55168   8.772   3.884  28.148 -0.1493  0.1601 -0.1460
46569W        W55169   9.090   4.548  26.541 -0.3452  0.1803 -0.1179
46570W        W55170  16.573   2.604  29.463  0.0517  0.1525 -0.4555
46571W        W55171  13.438   2.698  31.131  0.0557 -0.1236 -0.3659
46572W        W55172  12.632   5.272   4.262 -0.0235 -0.0031 -0.0142
46573W        W55173   5.121   2.033  31.360 -0.2573  0.0886 -0.1145
46574W        W55174   3.931   3.185   1.505  0.1128  0.1991 -0.0958
46575W        W55175   1.234   1.570  14.444  0.1169  0.0606  0.0500
46576W        W55176  17.454   4.396   7.651  0.2742  0.2995  0.1062
46577W        W55177  11.439   7.497   9.369 -0.4350 -0.0221  0.1016
46578W        W55178   4.864   3.983  30.433 -0.1156 -0.4220  0.0565
46579W        W55179  24.122   2.872   0.459  0.0075 -0.0549  0.1566
46580W        W55180   9.666   1.998   0.213 -0.0320  0.2009 -0.1029
46581W        W55181  20.696   4.660   2.969  0.0223 -0.1524  0.0596
46582W        W55182  20.633   1.764   9.476 -0.1613 -0.0362 -0.0072
46583W        W55183  23.442   5.010  21.484 -0.0934  0.1572 -0.1013
46584W        W55184   5.313   4.231   8.649  0.1099 -0.0591 -0.0534
46585W        W55185   0.301   2.196  30.209 -0.2538 -0.1389 -0.1875
46586W        W55186  22.728   0.265  12.795 -0.1329 -0.0483 -0.1171
46587W        W55187  20.965   6.205   1.690  0.1723 -0.3082  0.3046
46588W        W55188   6.141   1.793  13.709  0.2488 -0.1007 -0.0913
46589W        W55189  11.597   3.474   3.551 -0.1050  0.0677 -0.0995
46590W        W55190   0.362   3.612  28.663  0.0578 -0.3865  0.1792
46591W        W55191   3.792   0.186   6.873 -0.1327 -0.0892 -0.1812
46592W        W55192  23.696   2.453  27.964 -0.0713  0.3844  0.2548
46593W        W55193   2.258   3.303  15.803  0.2343 -0.0081  0.3454
46594W        W55194  21.161   5.778   8.700 -0.1029 -0.0098 -0.1298
46595W        W55195   5.634   1.720  28.856  0.0900  0.0338  0.0579
46596W        W55196   6.568   6.766  22.931  0.3596  0.1341  0.3357
46597W        W55197  24.227   7.545   7.579 -0.1934 -0.0507 -0.3273
46598W        W55198  14.605   5.421  14.574 -0.2874  0.1795  0.0489
46599W        W55199  12.357   1.548   1.556 -0.0470  0.0680  0.1300
46600W        W55200   2.437   5.066   4.523 -0.0933  0.0933  0.1456
46601W        W55201   1.841   3.515  26.131 -0.3704 -0.0901 -0.2552
46602W        W55202  17.438   4.696  18.403  0.0703 -0.2789  0.0897
46603W        W55203  16.333   3.671  18.584 -0.1516  0.0188 -0.0114
46604W        W55204   8.437   2.876   9.137 -0.0866  0.1483 -0.0990
46605W        W55205  13.065   3.807   1.189 -0.1594  0.0053  0.2029
46606W        W55206  13.909   2.500  27.444  0.3544 -0.2692  0.0347
46607W        W55207   7.256   1.443   0.402 -0.3405 -0.2498 -0.1543
46608W        W55208   2.679   7.410  31.719 -0.0408  0.3640  0.0450
46609W        W55209   6.708   2.311  15.293  0.0710  0.0714  0.0670
46610W        W55210   5.005   2.889  11.867 -0.2782 -0.0969  0.0189
46611W        W55211  23.219   0.382   2.034 -0.1371  0.2199  0.2416
46612W        W55212   1.413   2.518  22.779 -0.1996 -0.3469  0.2139
46613W        W55213   2.211   7.315   8.433  0.0433 -0.0989 -0.0348
46614W        W55214  14.434   0.791  31.228 -0.1279 -0.1266 -0.0922
46615W        W55215  17.245   4.106   4.257 -0.1998 -0.0711  0.1788
46616W        W55216  14.158   7.045   7.817 -0.0382  0.0084 -0.3046
46617W        W55217  11.969   2.381  10.169 -0.3187  0.1146 -0.0266
46618W        W55218  17.005   4.799  19.831 -0.3225 -0.0279  0.0514
46619W        W55219   9.982   7.178  10.288 -0.1781 -0.1510 -0.2553
46620W        W55220  19.050   5.581  32.478 -0.0585  0.0950  0.0007
46621W        W55221  24.747   4.401  12.051 -0.2011 -0.0275  0.0016
46622W        W55222  18.321   2.733  17.895  0.0191  0.0909 -0.3059
46623W        W55223   3.902   3.349   2.650 -0.2129 -0.2835 -0.1076
46624W        W55224  17.005   7.548  23.572  0.1795 -0.2894 -0.3463
46625W        W55225  13.039   2.612  29.335 -0.0529  0.0772  0.1972
46626W        W55226  11.030   2.544   5.228  0.0905  0.2385 -0.0164
46627W        W55227  16.696   1.676  23.349 -0.1589  0.0218  0.0534
46628W        W55228   6.417   4.691  23.399  0.1791 -0.2792 -0.0594
46629W        W55229   5.391   7.125   2.696 -0.1025 -0.0357 -0.1071
46630W        W55230  17.449   1.031   7.989 -0.1188 -0.0518  0.3346
46631W        W55231   5.173   7.105  13.225  0.0986 -0.2720  0.0232
46632W        W55232  24.621   5.889  30.313 -0.1387  0.0345 -0.1907
46633W        W55233  18.296   2.693  27.041  0.1778  0.0820  0.0111
46634W        W55234   9.188   1.910  31.884 -0.1643 -0.3174 -0.0767
46635W        W55235   2.501   1.385  14.827 -0.0528  0.0078  0.0563
46636W        W55236  21.457   1.641   3.860 -0.0038 -0.0324  0.2998
46637W        W55237  11.955   4.044  10.594  0.1059  0.0950 -0.1615
46638W        W55238  21.309   6.872  27.122 -0.3882 -0.3145 -0.2579
46639W        W55239  12.362   0.328  29.844  0.1462  0.0662  0.0336
46640W        W55240   3.599   1.307   8.655  0.0141  0.0074 -0.1044
46641W        W55241  10.455   7.256  19.651  0.1046  0.0270  0.0535
46642W        W55242  14.001   4.653  27.791  0.0413 -0.3659 -0.1547
46643W        W55243   0.067   0.677  24.115  0.2000  0.1373  0.0084
46644W        W55244   0.483   1.320   7.005  0.1081  0.1147  0.2652
46645W        W55245  19.079   4.243  30.851  0.3341  0.1334 -0.0863
46646W        W55246   6.393   4.633  11.823 -0.2350 -0.2874  0.0109
46647W        W55247   4.444   6.332  13.033 -0.0775 -0.1881  0.0280
46648W        W55248  21.371   2.959   9.406 -0.2568  0.1024 -0.1228
46649W        W55249   8.205   4.460   0.323 -0.2542  0.1689 -0.1927
46650W        W55250  16.597   5.312  27.720 -0.0465  0.0099 -0.3605
46651W        W55251   8.536   7.643  21.821 -0.2383 -0.3026 -0.0656
46652W        W55252  18.535   3.800   5.411  0.2035  0.4234  0.3362
46653W        W55253  13.391   5.933   5.327 -0.1043 -0.2548 -0.5114
46654W        W55254  19.449   2.176  25.806  0.1822 -0.0508 -0.0635
46655W        W55255   9.083   7.343  31.642  0.0687  0.4135  0.1472
46656W        W55256   8.142   7.613  24.369  0.0595  0.3447  0.0181
46657W        W55257  11.363   3.446   1.832  0.3875  0.0582 -0.1402
46658W        W55258  15.909   0.983   3.493 -0.1421 -0.0683 -0.1964
46659W        W55259   4.440   5.733  10.151  0.1931 -0.0552 -0.0875
46660W        W55260   8.903   1.023   8.452  0.4088  0.0403  0.1193
46661W        W55261  14.562   2.200   0.578  0.1363  0.0270 -0.0969
46662W        W55262  19.283   4.986   0.690  0.1181  0.3497  0.2478
46663W        W55263  19.157   4.325   6.680  0.3201 -0.0636  0.1881
46664W        W55264  13.723   1.481  27.714 -0.1123  0.0260 -0.0514
46665W        W55265  20.987   0.194  22.413  0.2449 -0.0222 -0.0455
46666W        W55266   7.618   4.980  28.971 -0.3043 -0.2036  0.0703
46667W        W55267  21.289   5.047  31.729 -0.1557 -0.3247 -0.1291
46668W        W55268   0.810   2.752  15.060 -0.3369 -0.1094 -0.0679
46669W        W55269  13.935   2.477  26.771  0.1315  0.0371 -0.1123
46670W        W55270  11.643   6.753   2.761 -0.1637 -0.0415  0.0159
46671W        W55271   7.873   1.827  24.614  0.1251 -0.1681 -0.0718
46672W        W55272  11.297   5.980  21.698  0.1839 -0.0961  0.2799
46673W        W55273   4.995   2.421  32.517 -0.1123 -0.1391 -0.1344
46674W        W55274   0.432   3.827  15.322 -0.0241  0.0221 -0.0174
46675W        W55275  12.658   2.463   7.943  0.3001 -0.1167  0.0903
46676W        W55276  17.406   6.647   1.461 -0.1356 -0.0654  0.0960
46677W        W55277  20.199   6.716  19.582 -0.1372 -0.1013 -0.0542
46678W        W55278  13.480   1.239  24.674 -0.0911 -0.0865  0.1751
46679W        W55279  10.744   2.798  31.810  0.1382 -0.1827  0.0365
46680W        W55280  19.508   4.771  20.714  0.0130  0.0536 -0.2037
46681W        W55281  22.906   0.622   6.336 -0.0718 -0.0393 -0.1599
46682W        W55282  22.243   1.965   7.374  0.1001 -0.1165  0.3711
46683W        W55283   1.506   1.787  14.901 -0.1918 -0.0905 -0.3389
46684W        W55284   5.932   2.371  22.878 -0.3738 -0.0628  0.1403
46685W        W55285  15.028   7.695  15.629 -0.1087 -0.0638  0.0677
46686W        W55286  12.142   3.624  26.563  0.2592  0.0631 -0.2460
46687W        W55287  14.205   1.079   6.226 -0.4034  0.1940 -0.1927
46688W        W55288   5.016   7.691  24.496  0.0770 -0.1742 -0.1922
46689W        W55289  22.694   2.082  22.635 -0.0658 -0.2480 -0.1595
46690W        W55290  10.253   2.469  10.291  0.0705  0.0918  0.0762
46691W        W55291   4.201   0.631  12.244  0.0750 -0.1151  0.2038
46692W        W55292  13.399   4.365  32.956 -0.1626  0.1084 -0.3108
46693W        W55293   4.319   3.343  15.961  0.1697  0.3830 -0.1721
46694W        W55294  23.050   6.587  29.586  0.2917  0.2302 -0.2288
46695W        W55295   5.647   0.367  26.933  0.1945 -0.3512 -0.0529
46696W        W55296  11.869   6.749  22.494  0.1472 -0.0771  0.0412
46697W        W55297   7.980   3.712  27.011 -0.2822  0.1333 -0.1217
46698W        W55298  19.450   7.496  19.521  0.1154 -0.0185  0.0813
46699W        W55299  16.599   5.847  23.768 -0.0544 -0.3072  0.1651
46700W        W55300   7.070   1.680  27.659  0.0612 -0.0236  0.0244
46701W        W55301   9.744   0.156  12.443 -0.1162 -0.0441 -0.2540
46702W        W55302   4.540   3.097  32.553  0.3514 -0.0644  0.2952
46703W        W55303   8.285   4.267   4.167 -0.1186 -0.1355 -0.1577
46704W        W55304  19.356   3.858  30.184 -0.3208 -0.0926 -0.0351
46705W        W55305  17.189   6.587  17.703 -0.0583  0.0759 -0.1557
46706W        W55306  15.925   4.351   1.872  0.0385  0.3425  0.1428
46707W        W55307  16.990   0.251  20.616 -0.3960 -0.3995 -0.3698
46708W        W55308  16.579   4.978  23.826 -0.0876  0.1230  0.2025
46709W        W55309  17.984   0.542   0.497  0.0217  0.0505  0.5147
46710W        W55310  20.629   3.956  17.988  0.0982  0.0456 -0.2505
46711W        W55311  17.663   3.035  31.658  0.1204 -0.1221 -0.5433
46712W        W55312  17.470   5.311   5.621 -0.2082 -0.0795 -0.0298
46713W        W55313  12.043   2.906  28.139  0.1244  0.1687  0.0877
46714W        W55314  10.473   5.449  11.405 -0.1967 -0.0252 -0.1635
46715W        W55315   8.896   4.926  31.526  0.2011  0.0383  0.0875
46716W        W55316  18.321   4.553  21.388  0.3989  0.0270 -0.1487
46717W        W55317  18.338   3.220  19.571  0.0268  0.1153  0.0977
46718W        W55318  17.402   5.853  21.698 -0.0358  0.1849  0.1829
46719W        W55319   9.696   6.975  13.379  0.0546  0.0894 -0.1446
46720W        W55320   6.391   4.635  24.443 -0.1412  0.0915 -0.1374
46721W        W55321   3.218   4.851   2.059  0.1226  0.2429  0.0876
46722W        W55322   4.740   5.692   7.434 -0.1394 -0.0834  0.2967
46723W        W55323   7.312   0.415   0.541 -0.0908 -0.0054 -0.0442
46724W        W55324   5.001   2.609   7.758  0.1391 -0.2415  0.1001
46725W        W55325  24.368   2.188   1.635  0.0406 -0.1665 -0.0270
46726W        W55326  13.087   1.655  25.868 -0.1911  0.1530  0.3852
46727W        W55327  15.178   2.329  24.589  0.3636 -0.1184  0.1410
46728W        W55328   2.016   5.646  10.125 -0.1176 -0.2334  0.0096
46729W        W55329  13.667   6.274  24.306 -0.1587 -0.1921  0.3249
46730W        W55330   8.167   6.774   2.482 -0.2480  0.1372  0.2214
46731W        W55331  24.532   3.453  14.698  0.0201  0.2471 -0.2010
46732W        W55332  24.199   6.882   6.372  0.1027  0.2509  0.2072
46733W        W55333   4.197   3.027  14.055 -0.2623  0.0988 -0.1002
46734W        W55334   0.993   3.411   6.941  0.0667  0.1275 -0.0771
46735W        W55335  24.337   7.648  11.032  0.2552  0.0873 -0.2011
46736W        W55336  16.691   5.561  27.239  0.2963  0.2089 -0.2893
46737W        W55337  20.643   5.781   2.257  0.0449 -0.0220 -0.1574
46738W        W55338   1.767   4.445  13.061  0.2012  0.1981  0.1074
46739W        W55339   4.505   1.532  31.563 -0.3823  0.2902  0.1169
46740W        W55340   4.353   7.036  26.965  0.2197  0.0710 -0.1155
46741W        W55341  14.814   2.089  21.282  0.1419 -0.0845  0.0166
46742W        W55342   5.326   3.598  23.935  0.2353  0.0590 -0.2309
46743W        W55343  14.836   4.621  20.262 -0.4067 -0.2643  0.0284
46744W        W55344   4.549   3.719  17.112  0.0506 -0.2321 -0.1789
46745W        W55345   2.450   4.144  32.221  0.3606 -0.3667 -0.1694
46746W        W55346  13.973   4.143   5.479  0.1648  0.0308 -0.0320
46747W        W55347  22.134   0.482  24.850 -0.0395  0.2050  0.0628
46748W        W55348   9.198   3.108  29.521  0.2494 -0.1995 -0.0250
46749W        W55349  21.301   6.682   6.470  0.1483 -0.0166 -0.0596
46750W        W55350   1.395   2.008  17.719 -0.0625 -0.2351 -0.4238
46751W        W55351  13.936   1.954  23.689 -0.2039  0.0029 -0.1092
46752W        W55352  24.830   6.679  11.422  0.3155 -0.1173  0.2292
46753W        W55353   0.413   4.188  21.927  0.2087 -0.1199  0.2016
46754W        W55354   7.782   0.445  31.266  0.1848 -0.0032 -0.0969
46755W        W55355   0.377   4.790  29.020 -0.2203 -0.1822  0.0323
46756W        W55356  22.271   0.368  12.974 -0.0669 -0.0990 -0.0944
46757W        W55357   7.383   1.418  12.890  0.1133  0.3848 -0.0077
46758W        W55358   9.198   6.538  30.187  0.2965 -0.0095 -0.0862
46759W        W55359  20.279   6.995  24.560 -0.0678  0.0453 -0.0269
46760W        W55360   5.122   5.026   8.941 -0.0565  0.0577 -0.0383
46761W        W55361  17.211   4.232   6.523 -0.6149  0.1842 -0.0151
46762W        W55362  20.873   0.534  10.152  0.1101  0.0195  0.0623
46763W        W55363   0.434   3.071   3.364  0.2699 -0.0668 -0.4107
46764W        W55364   4.736   3.878   1.046 -0.4365  0.0307 -0.1778
46765W        W55365  21.989   1.300  31.618  0.0217 -0.0116 -0.1983
46766W        W55366  24.492   0.847  22.267  0.3666  0.0421 -0.1032
46767W        W55367   2.396   1.295  16.176  0.0834  0.0872  0.0293
46768W        W55368   2.817   5.570  30.992  0.4452 -0.1409 -0.0769
46769W        W55369  20.330   0.540  25.051 -0.0156 -0.0522  0.0188
46770W        W55370   5.126   4.202   5.617  0.3311 -0.3441 -0.1502
46771W        W55371  13.617   4.599   4.362 -0.0629  0.2143  0.1276
46772W        W55372   4.559   5.187  27.540  0.0938 -0.0110  0.0124
46773W        W55373   3.663   1.036   1.735  0.0333  0.0818 -0.1663
46774W        W55374   2.229   7.586  16.601  0.3375  0.1024  0.2714
46775W        W55375  18.961   1.719  10.356 -0.2658 -0.0738 -0.0194
46776W        W55376   3.731   0.778  12.466 -0.0891  0.0064 -0.5127
46777W        W55377   8.909   5.171  30.604 -0.2446  0.0205  0.3552
46778W        W55378   6.866   6.840  15.133  0.0568 -0.4304  0.1718
46779W        W55379  21.169   6.499  26.718  0.2382  0.0482 -0.1695
46780W        W55380  22.468   0.770  27.086  0.0316 -0.0549 -0.0675
46781W        W55381   7.946   5.387   3.182 -0.4368 -0.0206 -0.0917
46782W        W55382  21.167   2.427   8.406 -0.0625 -0.0685  0.0387
46783W        W55383  24.352   0.253  24.021 -0.2745  0.0940  0.0668
46784W        W55384  17.388   7.394  23.924  0.1612  0.1426 -0.1562
46785W        W55385  10.420   1.932   6.707 -0.0744 -0.1707 -0.0272
46786W        W55386  20.376   1.667  17.794 -0.1890 -0.0756 -0.2009
46787W        W55387   8.132   6.224  22.700 -0.1094  0.2311 -0.1288
46788W        W55388  19.400   7.665   8.851 -0.2077 -0.1377  0.2330
46789W        W55389   7.314   0.157   7.991 -0.0786  0.0116  0.1737
46790W        W55390   9.734   7.340   0.609  0.0957 -0.0301 -0.1207
46791W        W55391   0.683   1.527  30.824  0.0918 -0.0473  0.0250
46792W        W55392  15.121   2.129   8.548  0.1646  0.0359 -0.3190
46793W        W55393  21.956   4.412  10.653  0.2907  0.1698 -0.0150
46794W        W55394   3.169   0.724  28.745  0.1615  0.1243  0.2185
46795W        W55395   3.659   7.451   4.566 -0.2103  0.4502 -0.0035
46796W        W55396   6.774   4.456   3.319  0.2419 -0.1117  0.1257
46797W        W55397  20.922   4.969   1.227 -0.1043  0.4762 -0.1185
46798W        W55398  23.936   7.576  28.232  0.0789  0.0740  0.2057
46799W        W55399  23.504   0.374  31.904  0.1592  0.1293  0.3165
46800W        W55400  19.559   7.425  10.418  0.1518 -0.0112  0.3946
46801W        W55401  17.238   6.080  29.529 -0.1328 -0.3438 -0.0049
46802W        W55402   9.209   2.948   3.704  0.0969  0.0351 -0.0893
46803W        W55403  10.452   3.649  27.474 -0.1221 -0.1715  0.1163
46804W        W55404  22.449   2.180  29.523  0.1027 -0.3299  0.0134
46805W        W55405   6.509   2.458   4.688 -0.2572  0.1861 -0.0035
46806W        W55406  14.711   0.636  27.573 -0.0713 -0.0050 -0.0794
46807W        W55407   6.380   1.614   1.639  0.2141 -0.2303 -0.1656
46808W        W55408  22.582   4.738  31.193 -0.1845  0.0421  0.2125
46809W        W55409   9.567   6.856  22.407  0.0533  0.0771  0.2173
46810W        W55410   4.894   0.285  23.768 -0.5319  0.1309 -0.4015
46811W        W55411   4.020   2.112   0.634 -0.0597  0.1008 -0.0796
46812W        W55412   8.831   6.428   0.145 -0.0618 -0.2435  0.1499
46813W        W55413  19.443   4.130  16.373  0.1818 -0.0960 -0.2058
46814W        W55414  24.337   4.529   9.030  0.1970 -0.1987  0.2839
46815W        W55415  11.856   1.610  21.208  0.1009 -0.0719 -0.1290
46816W        W55416   4.389   0.561   1.821 -0.0116 -0.3759 -0.1177
46817W        W55417  22.070   4.812  11.613 -0.0111  0.0009  0.0143
46818W        W55418  15.452   6.073   5.145  0.1509 -0.2121 -0.5096
46819W        W55419  17.358   1.951   5.442  0.0155 -0.0762 -0.0904
46820W        W55420   1.332   3.144  31.042 -0.1663 -0.1146  0.0291
46821W        W55421  15.416   7.272  19.502  0.0992 -0.2013 -0.0886
46822W        W55422   7.908   7.385  11.997 -0.1746  0.0204 -0.0683
46823W        W55423  20.634   0.102  27.108  0.0115 -0.0326 -0.2452
46824W        W55424   1.807   1.350  30.188 -0.3214  0.1142 -0.0072
46825W        W55425   2.881   5.538  28.425  0.0569 -0.1672  0.2231
46826W        W55426  11.096   7.703   9.730 -0.4995 -0.1181 -0.3756
46827W        W55427  16.527   3.556  30.786  0.0395  0.0524  0.0742
46828W        W55428  23.334   6.865  12.500  0.1615 -0.0540 -0.1876
46829W        W55429  21.450   3.453  11.665  0.2350 -0.0286 -0.0739
46830W        W55430   0.059   6.442  21.757  0.0580 -0.0508 -0.0765
46831W        W55431  21.024   4.972   3.225  0.0363  0.0457  0.1748
46832W        W55432  13.968   2.830   0.543  0.1767 -0.0667 -0.1651
46833W        W55433  17.062   2.003  25.874 -0.2640  0.1196  0.2155
46834W        W55434  18.162   6.646  28.408 -0.1477 -0.1281 -0.0358
46835W        W55435   6.584   4.666  30.768 -0.0588  0.2087 -0.2570
46836W        W55436  20.386   5.348  26.675 -0.1668  0.2106  0.2380
46837W        W55437   6.596   0.669  25.974  0.0277  0.2123 -0.0422
46838W        W55438  12.393   3.206   2.944  0.0261  0.1201 -0.0845
46839W        W55439  22.729   2.253   0.351 -0.2811 -0.0270 -0.1577
46840W        W55440   5.763   5.558  11.392 -0.0353  0.0914  0.1408
46841W        W55441   6.252   4.790   5.172  0.0210  0.3514  0.0854
46842W        W55442  14.543   7.111   0.671 -0.4960  0.1223 -0.0410
46843W        W55443   3.084   1.277  30.180  0.0367 -0.1637  0.0827
46844W        W55444   2.669   3.869  29.552 -0.0075 -0.1836 -0.0709
46845W        W55445  15.337   0.099  20.700  0.0334  0.1913  0.0163
46846W        W55446   1.587   6.820  23.819  0.2406 -0.0718  0.1881
46847W        W55447   0.531   2.509  28.187 -0.0118 -0.1995  0.2259
46848W        W55448   6.328   0.227  32.083  0.0483  0.2787 -0.3934
46849W        W55449  13.654   7.431  16.212 -0.0238  0.1126 -0.0948
46850W        W55450  19.971   0.988  30.005  0.2061 -0.0073  0.1113
46851W        W55451  10.521   2.232  25.922  0.1489  0.0850  0.0178
46852W        W55452  22.189   3.916   4.311  0.0087 -0.0266  0.0179
46853W        W55453  20.019   1.841   2.422  0.2152 -0.1605  0.0760
46854W        W55454   8.631   0.173  12.004 -0.1086 -0.1834 -0.0922
46855W        W55455  21.261   3.014  19.353  0.1944 -0.0950  0.0271
46856W        W55456  14.767   6.113  27.277 -0.0690  0.0784 -0.0549
46857W        W55457   0.981   1.759   8.025 -0.0203 -0.1857  0.0336
46858W        W55458   8.687   3.191  14.746  0.0595 -0.1724 -0.2478
46859W        W55459   5.784   3.352  28.257  0.2942 -0.1087  0.0464
46860W        W55460   0.894   6.217   6.312  0.0707  0.1865 -0.0312
46861W        W55461  24.223   5.656  10.631  0.2810  0.0331  0.2237
46862W        W55462   0.122   5.205  32.050  0.0526 -0.1736  0.1935
46863W        W55463   2.686   5.236   0.642  0.1942  0.2572  0.0479
46864W        W55464   4.795   4.522   2.849  0.0678  0.0697  0.1273
46865W        W55465   2.649   4.034  14.059 -0.1694  0.2014  0.1009
46866W        W55466  14.737   1.823  22.783  0.1483  0.1413  0.2154
46867W        W55467   4.650   4.768   9.852  0.0878  0.1165  0.2711
46868W        W55468  23.094   6.617  25.655  0.1189 -0.0512  0.1517
46869W        W55469   4.481   3.830   5.493 -0.0968 -0.2405  0.2782
46870W        W55470  11.279   2.978  25.871 -0.0429 -0.3522  0.2579
46871W        W55471  20.679   5.158  11.007 -0.0564  0.3964  0.1196
46872W        W55472   0.703   1.782  14.953  0.1227  0.1549  0.0972
46873W        W55473  19.213   7.742  27.953  0.5172 -0.1721 -0.0823
46874W        W55474   1.939   4.649   2.794  0.0289 -0.1944 -0.2943
46875W        W55475   8.023   2.062  23.706  0.2936  0.1242 -0.2996
46876W        W55476   0.279   7.151   4.333 -0.1562  0.3778 -0.2491
46877W        W55477   3.197   1.100   2.652 -0.2062 -0.1028  0.1060
46878W        W55478  19.647   0.414  21.799  0.4792  0.0109  0.0062
46879W        W55479   6.579   2.453  31.406 -0.0211 -0.0847 -0.1725
46880W        W55480  16.207   5.131   4.129 -0.0085  0.0104 -0.2553
46881W        W55481  11.888   5.519   2.965  0.1401  0.0883 -0.1751
46882W        W55482  10.351   7.048  26.100  0.1918  0.0143 -0.0983
46883W        W55483   0.487   4.183   4.956  0.1749 -0.2050  0.0679
46884W        W55484  14.330   2.481  31.375 -0.3811 -0.2543 -0.2751
46885W        W55485   5.015   1.621   2.097 -0.0138 -0.3560 -0.1745
46886W        W55486  18.766   2.797   3.064  0.0035 -0.0196 -0.1279
46887W        W55487  10.016   4.240   6.051  0.0547 -0.2134 -0.0429
46888W        W55488   8.707   1.450   5.811 -0.1827  0.7440 -0.1426
46889W        W55489  23.361   5.871  31.760  0.0296  0.1632  0.0933
46890W        W55490   9.647   7.626   6.356 -0.1631 -0.0812  0.0684
46891W        W55491   1.338   6.094  11.667  0.0131  0.0528 -0.0705
46892W        W55492   5.042   2.100  28.963  0.1343 -0.0073  0.1066
46893W        W55493  17.182   1.671  18.991 -0.3166  0.1002  0.0713
46894W        W55494   6.725   5.497  26.264 -0.0896 -0.3609  0.1641
46895W        W55495  14.948   4.094  23.954  0.0816 -0.2043 -0.0031
46896W        W55496   3.149   5.449  25.725 -0.0228 -0.0499  0.0305
46897W        W55497  22.352   6.747  22.621  0.0045 -0.1851  0.2772
46898W        W55498  23.049   3.379  23.972 -0.0336 -0.0952 -0.1776
46899W        W55499   5.712   6.180  10.606  0.0356 -0.2389  0.1101
46900W        W55500  15.363   0.168  21.380 -0.3375  0.1826 -0.0462
46901W        W55501  18.158   1.876   7.370  0.1110 -0.4257  0.0971
46902W        W55502  11.137   6.518  30.584  0.3060  0.0041 -0.2747
46903W        W55503  20.164   3.276  23.513  0.0973  0.0100 -0.0635
46904W        W55504  18.480   6.094  27.582  0.3213 -0.1634 -0.0997
46905W        W55505  14.445   5.014  14.889  0.2081  0.1141  0.1671
46906W        W55506  21.404   2.515  24.468 -0.0043 -0.0880  0.5628
46907W        W55507   7.008   6.326  26.408  0.0756 -0.0564 -0.1681
46908W        W55508  21.621   6.432  27.145 -0.4503 -0.0200  0.0173
46909W        W55509  19.815   3.092   4.301  0.2481 -0.1198  0.0579
46910W        W55510   0.840   5.240  25.660 -0.0894  0.0393 -0.1941
46911W        W55511  12.665   1.304  31.823 -0.2332  0.1056 -0.2344
46912W        W55512  17.249   3.186   8.441 -0.2422 -0.1641 -0.0197
46913W        W55513   1.526   3.122  28.913  0.1143 -0.3589 -0.0892
46914W        W55514   9.719   1.965  11.090 -0.1961 -0.1767 -0.1539
46915W        W55515  17.057   4.247  19.721  0.1230 -0.0579  0.3791
46916W        W55516  12.262   4.537   3.966  0.0225 -0.1429  0.2589
46917W        W55517  19.064   1.830  25.279 -0.0717  0.2348  0.2488
46918W        W55518  19.233   6.070  21.918 -0.3269  0.1279 -0.1080
46919W        W55519   3.830   4.467  12.577  0.1614 -0.0463 -0.0307
46920W        W55520  22.180   3.566  12.259 -0.0439 -0.2605  0.1706
46921W        W55521   6.692   4.304  31.196 -0.0733  0.0624  0.2600
46922W        W55522   3.708   6.729   2.774  0.2246  0.3411 -0.1340
46923W        W55523   8.481   0.038  32.846 -0.0428 -0.0817  0.0446
46924W        W55524  14.071   5.958   0.572 -0.1571 -0.2763  0.1441
46925W        W55525   3.871   5.587  15.845 -0.0831  0.1186 -0.0300
46926W        W55526  20.226   0.359  10.087  0.1179 -0.1464  0.3569
46927W        W55527  13.777   7.151   8.878  0.0395  0.2008  0.0869
46928W        W55528   1.578   6.374   4.125  0.0581  0.1057 -0.2100
46929W        W55529   5.164   5.417  15.586  0.3039  0.2422 -0.0650
46930W        W55530  10.789   5.101  12.588 -0.2396 -0.0822 -0.1008
46931W        W55531  20.411   5.875  29.204  0.0247  0.2268 -0.0622
46932W        W55532   4.964   2.706  21.967  0.0513 -0.3259  0.2529
46933W        W55533  11.168   6.389  26.356 -0.0563 -0.1035 -0.0090
46934W        W55534   3.587   2.403   7.331 -0.0281  0.0319 -0.0090
46935W        W55535  14.685   5.782   8.406  0.1821 -0.0009 -0.0078
46936W        W55536  11.534   1.082  25.654  0.1551  0.1749 -0.1367
46937W        W55537   7.210   6.740   6.779  0.1087 -0.0615  0.0559
46938W        W55538   1.472   4.169  25.338 -0.0549 -0.0199  0.0552
46939W        W55539  22.043   4.501  25.496 -0.3373  0.0241 -0.0871
46940W        W55540   2.028   6.252  31.119 -0.0631 -0.1166  0.1147
46941W        W55541   8.867   3.096   7.163  0.1242 -0.1844 -0.0753
46942W        W55542  13.529   7.145  26.453  0.1313  0.1001 -0.2861
46943W        W55543   3.136   5.504  11.135  0.2632 -0.1489 -0.0622
46944W        W55544  12.862   1.068   7.187 -0.1356  0.1299 -0.1290
46945W        W55545   1.543   5.744  31.349 -0.2352 -0.1088  0.3654
46946W        W55546   3.256   6.691  10.800  0.0792  0.1089  0.0767
46947W        W55547   5.949   4.096   6.882  0.1491 -0.1425  0.0963
46948W        W55548  16.121   0.938   4.137  0.1728 -0.1167 -0.0178
46949W        W55549  15.650   2.973   6.282 -0.0800  0.1433 -0.3192
46950W        W55550  17.457   1.042   6.746  0.1536  0.2839  0.5973
46951W        W55551   3.116   0.693  17.243  0.2542 -0.1403  0.3909
46952W        W55552  11.785   5.335   4.295  0.0163 -0.5036  0.3114
46953W        W55553  16.196   4.239   7.306 -0.1309 -0.0032 -0.1546
46954W        W55554   4.220   5.913  30.031 -0.2857 -0.1444  0.1886
46955W        W55555  21.801   7.313  31.031 -0.1865  0.0764  0.2766
46956W        W55556  16.727   2.403  18.521  0.0265 -0.0020 -0.2857
46957W        W55557   3.902   1.641  30.771  0.1148 -0.2790 -0.1026
46958W        W55558  22.286   0.398  30.253  0.2575  0.0145 -0.1330
46959W        W55559  17.013   5.999  16.532  0.2556  0.0664 -0.2434
46960W        W55560  19.155   0.660   6.928 -0.0562  0.2904 -0.0447
46961W        W55561  12.745   5.724  21.806 -0.0864  0.1183 -0.2080
46962W        W55562  20.571   5.202   4.231  0.2474 -0.0555  0.0268
46963W        W55563  12.536   1.027  29.229  0.0553 -0.0762 -0.0218
46964W        W55564  13.396   3.163  32.854 -0.2320  0.4561  0.1341
46965W        W55565  16.192   1.404  20.585  0.0322  0.1175 -0.3912
46966W        W55566  20.388   7.666  10.231 -0.4232 -0.2440 -0.0457
46967W        W55567  18.383   1.900  20.657 -0.3035  0.2373  0.2468
46968W        W55568  17.883   0.232   9.788  0.1934  0.0258 -0.2964
46969W        W55569  13.134   3.283  23.614 -0.0616  0.1125 -0.0791
46970W        W55570   2.579   1.232   7.960  0.3496 -0.0466 -0.1857
46971W        W55571  22.663   3.705  28.801 -0.1856 -0.2108 -0.1395
46972W        W55572  22.240   5.212  20.610  0.0225 -0.1214 -0.2063
46973W        W55573  23.924   6.914  10.446 -0.2888  0.1511 -0.1018
46974W        W55574   1.614   1.235   3.725  0.0330 -0.2227  0.0631
46975W        W55575  18.015   6.311  20.556 -0.2981  0.1702  0.3756
46976W        W55576  22.217   4.004   0.942  0.2807 -0.2508  0.1592
46977W        W55577   2.924   6.775   8.568 -0.0928 -0.0382 -0.0949
46978W        W55578  19.265   4.901  17.253 -0.0116 -0.0880 -0.1195
46979W        W55579   4.697   4.807   3.324 -0.0162 -0.1589  0.0077
46980W        W55580  24.246   2.448  31.066 -0.1689  0.1847  0.1221
46981W        W55581  22.978   7.050  32.979  0.2283  0.2339  0.0500
46982W        W55582  21.984   4.929   9.855 -0.1219  0.1974  0.0237
46983W        W55583  19.469   5.909  29.818  0.0498  0.1269 -0.0020
46984W        W55584  15.918   5.834   9.045 -0.2073 -0.2463 -0.0348
46985W        W55585  17.721   1.443  18.825 -0.0715 -0.4064 -0.1159
46986W        W55586   4.907   2.451  12.817  0.3029 -0.0021  0.3199
46987W        W55587   0.016   4.451   6.669 -0.0615  0.1663  0.1472
46988W        W55588   5.667   3.369   3.597  0.2888 -0.0498  0.1745
46989W        W55589   2.517   5.590  32.149 -0.0268  0.2329 -0.2001
46990W        W55590  11.099   0.170  10.597  0.2495 -0.0197  0.1546
46991W        W55591   9.404   4.729   8.907  0.0312  0.1008  0.2119
46992W        W55592   2.112   7.108  26.293  0.1141  0.2346  0.0177
46993W        W55593   2.305   3.029  27.253  0.0135 -0.2146 -0.0641
46994W        W55594   2.655   7.549  29.987 -0.0291 -0.0471 -0.0362
46995W        W55595  14.966   0.154   2.439  0.2608  0.0929  0.0881
46996W        W55596  20.393   0.668  22.139 -0.0574  0.0110  0.1502
46997W        W55597  13.897   2.241  18.316 -0.0839 -0.2938  0.1438
46998W        W55598  16.319   2.755  25.300 -0.1743  0.1996  0.0212
46999W        W55599  12.538   1.864  18.796 -0.0128  0.0104  0.0860
47000W        W55600   8.616   7.219  30.655  0.2178  0.1530  0.0319
47001W        W55601  23.805   2.161   9.393 -0.0920 -0.1488 -0.3544
47002W        W55602   1.403   0.372   8.921  0.0399  0.1386  0.1307
47003W        W55603  21.173   2.118  18.220  0.1684 -0.0094  0.1638
47004W        W55604   8.662   7.413  23.153  0.0084 -0.0235  0.1113
47005W        W55605   3.466   6.155   3.504  0.0198 -0.1700  0.0173
47006W        W55606  15.978   7.636  19.948 -0.1019  0.2669 -0.4160
47007W        W55607   4.799   7.443   5.557  0.3107  0.0899 -0.1069
47008W        W55608   5.055   0.555  13.844 -0.0672  0.3246  0.0934
47009W        W55609  17.198   2.540   9.694 -0.0387 -0.0564  0.0758
47010W        W55610  13.448   5.735  32.537 -0.1430 -0.3683 -0.0898
47011W        W55611  11.313   0.470  19.880 -0.1733  0.1243 -0.1948
47012W        W55612  18.017   3.679  14.738 -0.1737  0.5052  0.1027
47013W        W55613   4.323   5.113  22.301 -0.0492 -0.0062 -0.3614
47014W        W55614  18.895   4.332   9.009 -0.0695  0.0035 -0.0301
47015W        W55615   2.190   4.861  23.329  0.2024 -0.0349  0.0271
47016W        W55616  19.959   4.006   2.896 -0.1249 -0.0391  0.1463
47017W        W55617  12.598   6.212  26.930 -0.0213 -0.0211  0.2455
47018W        W55618   1.311   2.259   7.243 -0.1680  0.1015  0.0361
47019W        W55619   2.213   7.646  12.469  0.0683 -0.4666  0.0114
47020W        W55620  12.772   4.251  18.429  0.0644  0.1952 -0.0066
47021W        W55621  13.679   7.121  30.358 -0.0171  0.3860 -0.2684
47022W        W55622  17.746   0.457  30.196 -0.4098 -0.2485 -0.1090
47023W        W55623  23.947   0.776   8.237 -0.1521  0.2877  0.1050
47024W        W55624  16.613   0.246   4.457  0.2150 -0.1281 -0.1165
47025W        W55625   7.659   3.174  12.566  0.4708 -0.2850  0.0556
47026W        W55626  12.017   7.527  22.621 -0.1117  0.0575 -0.1683
47027W        W55627  20.441   2.450  25.386 -0.0389 -0.0004  0.4247
47028W        W55628  11.474   6.206  26.659 -0.4050 -0.2055  0.0144
47029W        W55629   5.625   1.857  12.914  0.1004  0.0851 -0.0025
47030W        W55630   8.395   0.215   6.642 -0.1187  0.0977  0.1729
47031W        W55631  13.830   4.160   1.941 -0.0092  0.0655  0.0354
47032W        W55632  11.552   1.448   0.093 -0.0403  0.0620  0.1297
47033W        W55633   5.334   0.700  22.543 -0.2717  0.1175 -0.0215
47034W        W55634   3.775   3.635   1.658 -0.4642 -0.1253  0.1677
47035W        W55635  18.460   3.893   3.019  0.0036  0.1461 -0.3057
47036W        W55636  11.732   5.732  28.565  0.2181 -0.0273 -0.0104
47037W        W55637  20.442   4.305  30.121  0.4435  0.1038 -0.0285
47038W        W55638  20.659   0.120  31.270 -0.2632  0.0994 -0.0159
47039W        W55639   7.252   0.596  17.485  0.1085 -0.0586 -0.3879
47040W        W55640   8.710   2.074  28.038  0.0871 -0.0571 -0.0396
47041W        W55641  22.063   4.815   9.079  0.1382 -0.0204 -0.0377
47042W        W55642   3.912   3.132  31.735  0.3032  0.1340  0.0382
47043W        W55643   0.919   6.639  26.382  0.2117  0.1135 -0.0342
47044W        W55644   7.049   7.604  16.952 -0.1930  0.1780 -0.0133
47045W        W55645  15.165   2.757  27.704 -0.1443  0.0591  0.1769
47046W        W55646  15.746   3.209  16.130  0.0904  0.2653 -0.1727
47047W        W55647   0.521   6.843  21.375  0.1086  0.0956  0.0076
47048W        W55648  13.839   3.387   6.250 -0.1221  0.1418 -0.1098
47049W        W55649  18.458   6.358   8.647  0.3132  0.1597  0.2708
47050W        W55650   6.839   3.867   6.310  0.3003 -0.0658 -0.1369
47051W        W55651   2.419   7.245  25.899  0.0896 -0.2301 -0.3654
47052W        W55652   3.763   6.250   5.390  0.0653  0.0609  0.1231
47053W        W55653  12.463   6.348  31.497  0.0564  0.0266  0.2564
47054W        W55654   7.551   0.253  12.835 -0.1032  0.2977 -0.2030
47055W        W55655  17.229   2.645  15.533  0.1179  0.2554  0.1407
47056W        W55656  17.218   4.193   1.105  0.2773  0.0121 -0.0756
47057W        W55657  14.065   6.868  31.495 -0.4365 -0.2415 -0.0678
47058W        W55658   6.223   5.202   7.471  0.0674 -0.0444  0.1834
47059W        W55659  16.384   0.028   1.682 -0.0264 -0.0385  0.0251
47060W        W55660  17.731   5.968  25.016 -0.0327  0.1240 -0.1167
47061W        W55661  13.167   2.250   9.141  0.1331 -0.0669 -0.1479
47062W        W55662  23.866   5.113  12.336  0.2737  0.1973  0.2986
47063W        W55663  21.424   5.920   5.771  0.0379  0.0695 -0.1477
47064W        W55664  13.217   6.110  16.718 -0.2450 -0.2538 -0.2266
47065W        W55665  14.482   6.822  32.919  0.2568  0.1489 -0.0676
47066W        W55666  19.686   5.405  19.505  0.1019 -0.1597 -0.0501
47067W        W55667   6.784   7.505   3.122  0.1284  0.1515  0.0241
47068W        W55668  20.612   4.396   8.925  0.0396  0.0438 -0.1975
47069W        W55669   7.349   5.833  12.226 -0.0126 -0.0227 -0.0922
47070W        W55670  13.907   1.488   2.709  0.3331 -0.0369 -0.1834
47071W        W55671  24.235   6.762   1.859 -0.0185  0.0956  0.2200
47072W        W55672   5.855   0.081   5.518  0.0427 -0.1621 -0.2129
47073W        W55673  18.120   0.682   8.798 -0.5879 -0.2312 -0.0667
47074W        W55674   4.592   2.455   8.055  0.2704 -0.2217 -0.1982
47075W        W55675   7.180   0.128  27.987 -0.1168  0.4092  0.0269
47076W        W55676   9.216   2.490  26.327 -0.0212  0.2790  0.1435
47077W        W55677   6.417   5.205   4.487  0.0334  0.0560  0.0343
47078W        W55678  15.555   3.581  30.703 -0.0779  0.1124 -0.0046
47079W        W55679  16.289   4.436  22.477  0.0614  0.1444  0.3151
47080W        W55680  19.745   6.293   2.554 -0.0527 -0.2054 -0.0083
47081W        W55681   8.324   3.536  13.041  0.0995 -0.1588  0.2727
47082W        W55682   2.823   3.063   7.306  0.0277 -0.0550  0.0807
47083W        W55683  19.835   5.743  20.312 -0.3207 -0.1201  0.1466
47084W        W55684  12.579   4.092   7.267 -0.1072  0.1316 -0.1802
47085W        W55685  22.167   1.760  22.804  0.3594 -0.1311  0.1292
47086W        W55686   7.638   5.776  10.609  0.2180  0.1083  0.3627
47087W        W55687  21.033   6.515   7.437  0.1346  0.0631  0.2260
47088W        W55688  24.240   3.505   4.532  0.0690 -0.3171 -0.1839
47089W        W55689   4.060   6.315  32.903  0.0186 -0.1413 -0.1854
47090W        W55690   1.684   4.579  31.540  0.1388  0.3094 -0.2230
47091W        W55691  22.877   2.608   6.715  0.0498 -0.1010 -0.0190
47092W        W55692   4.511   6.344  10.885 -0.1729  0.0230 -0.0509
47093W        W55693  10.257   0.539  12.611  0.1120 -0.3689  0.5189
47094W        W55694  24.860   6.469  23.016 -0.4552 -0.2254  0.0059
47095W        W55695  21.608   3.674  29.200  0.0236  0.2146  0.3047
47096W        W55696   9.720   4.060  12.445 -0.0545  0.0013  0.3204
47097W        W55697  21.039   5.647  28.558  0.0234 -0.2085  0.1259
47098W        W55698  12.370   0.335   6.533  0.1986  0.0153  0.1019
47099W        W55699  21.516   6.567  19.770  0.0689  0.0131 -0.1801
47100W        W55700  11.212   2.777  23.079 -0.0259 -0.1239  0.0360
47101W        W55701   5.736   4.279   5.601 -0.0298  0.1089  0.2661
47102W        W55702   1.066   2.921   0.170  0.1857 -0.2678 -0.1363
47103W        W55703   9.967   0.937  23.975  0.2404 -0.1300 -0.1220
47104W        W55704   6.662   1.021  14.569  0.1423 -0.1471 -0.1789
47105W        W55705   0.114   4.037  32.074 -0.0024 -0.0228 -0.3064
47106W        W55706   8.401   3.557  25.146  0.1146  0.0314 -0.1638
47107W        W55707  12.746   4.623  25.576  0.2601 -0.1485  0.1029
47108W        W55708  16.822   2.714   5.676 -0.1255 -0.1650  0.0206
47109W        W55709  18.354   0.209   5.530 -0.0540 -0.3229  0.0044
47110W        W55710  15.915   7.017  15.295  0.0180 -0.3467  0.0539
47111W        W55711  18.263   4.605  18.050 -0.2102  0.0091  0.1569
47112W        W55712  19.367   4.056  18.485  0.3674 -0.0627 -0.0861
47113W        W55713  13.467   1.065  27.783  0.2745  0.1720 -0.0353
47114W        W55714   2.859   1.927   4.164 -0.2852  0.0304  0.2228
47115W        W55715   9.533   1.924   5.335  0.0877 -0.0348 -0.2026
47116W        W55716  11.070   7.427  23.569 -0.0689  0.3762  0.0419
47117W        W55717   5.294   4.850  24.079 -0.0817 -0.2231  0.0832
47118W        W55718  11.345   0.996  24.649  0.0021 -0.0743  0.2941
47119W        W55719   2.532   5.261   9.711  0.2088  0.0382 -0.1552
47120W        W55720   6.332   5.487  31.254  0.1763  0.2011 -0.0899
47121W        W55721  16.987   3.626  26.398  0.0640  0.0583 -0.0714
47122W        W55722  24.418   6.565   7.720 -0.2784  0.1936  0.0700
47123W        W55723  15.558   4.919  15.778 -0.1600 -0.1512  0.1550
47124W        W55724  13.421   6.017  29.137 -0.1715  0.0005  0.1157
47125W        W55725   1.055   0.538  24.935 -0.1117 -0.0439 -0.1360
47126W        W55726  19.856   6.651  27.670 -0.0153 -0.0287 -0.1305
47127W        W55727  17.097   3.663   4.174 -0.1761 -0.2311  0.0712
47128W        W55728   8.155   4.904  23.996 -0.1567 -0.0380 -0.0872
47129W        W55729  16.378   3.759  22.050  0.0954 -0.2768  0.2724
47130W        W55730  12.559   2.243  28.551 -0.0253 -0.1022 -0.0336
47131W        W55731  11.355   6.734  21.414  0.2789 -0.0517 -0.2041
47132W        W55732   8.333   7.734  27.621 -0.0541  0.1666  0.1418
47133W        W55733  11.957   3.958  19.592 -0.0694  0.1003  0.0945
47134W        W55734  16.141   7.756  15.409  0.1123  0.1014 -0.2057
47135W        W55735  15.364   5.194   4.772 -0.0137 -0.0842 -0.0952
47136W        W55736   5.379   4.836  29.626  0.0039 -0.0846  0.1845
47137W        W55737   0.618   4.518  22.298 -0.0085 -0.2274  0.1297
47138W        W55738   1.946   5.893  11.723 -0.1964  0.2094  0.1132
47139W        W55739   0.379   3.660   1.383 -0.0295 -0.0337 -0.2618
47140W        W55740  18.185   6.870   9.451  0.1364  0.1737 -0.2313
47141W        W55741  11.009   5.335  32.786  0.0488  0.1775  0.2066
47142W        W55742   5.657   4.287  30.627  0.2859  0.0500  0.0857
47143W        W55743   8.453   7.455  15.301  0.0852  0.0108  0.0496
47144W        W55744   9.922   2.147  31.328  0.1965  0.0594 -0.0936
47145W        W55745  12.874   4.793   4.750  0.1687 -0.2658  0.0543
47146W        W55746  13.892   7.566   8.681  0.1801 -0.1779 -0.3002
47147W        W55747   4.686   0.596  11.923 -0.0306  0.2266 -0.2190
47148W        W55748   0.465   1.928  31.234  0.0205 -0.3841  0.1596
47149W        W55749  24.827   0.790   0.243 -0.1642 -0.0578 -0.1136
47150W        W55750  16.584   0.429   7.941 -0.3297  0.0986 -0.1828
47151W        W55751  10.756   3.184  32.813 -0.0630 -0.3443 -0.1184
47152W        W55752  17.761   4.670  17.987  0.0126  0.1893  0.1775
47153W        W55753  21.491   4.451   0.175  0.1182  0.0444  0.2597
47154W        W55754   5.252   5.568   5.861 -0.1006  0.1795  0.0004
47155W        W55755  12.983   4.822  27.850 -0.3036 -0.3423  0.3045
47156W        W55756   8.037   3.005  28.246 -0.2654  0.1237  0.2910
47157W        W55757   8.949   6.642  23.636  0.1118 -0.1415  0.0035
47158W        W55758  13.111   6.358   6.197 -0.1779  0.0788  0.4093
47159W        W55759   2.803   7.458  10.239 -0.0400 -0.1706 -0.0222
47160W        W55760   3.793   0.882   7.464  0.1462  0.0043 -0.0250
47161W        W55761   4.085   6.633   7.448 -0.0794 -0.1248 -0.2736
47162W        W55762   3.833   1.651   8.233  0.1088  0.0531 -0.2623
47163W        W55763  12.006   7.262   7.388 -0.1074 -0.0765  0.1263
47164W        W55764  16.691   2.959  20.833  0.0292  0.4723 -0.1149
47165W        W55765   1.361   0.455  12.141  0.1303  0.0347 -0.1786
47166W        W55766   0.937   7.265  30.643 -0.0629  0.1436  0.2009
47167W        W55767   4.143   3.132  25.729 -0.0451 -0.1939 -0.0909
47168W        W55768  19.407   6.087   9.536 -0.1558  0.2306  0.1111
47169W        W55769  22.065   0.322   0.689 -0.0692 -0.0568 -0.1127
47170W        W55770  18.743   5.395   4.864 -0.2930  0.3020  0.0978
47171W        W55771  15.520   6.900  22.073  0.2507 -0.0897  0.0190
47172W        W55772   7.581   4.263  23.218  0.0086  0.0369 -0.0131
47173W        W55773  23.046   6.977  31.552 -0.1732  0.0923  0.0118
47174W        W55774  12.300   5.770   2.997 -0.1445 -0.3283 -0.2454
47175W        W55775  19.648   5.425  28.264  0.1086  0.2178 -0.1778
47176W        W55776  23.850   1.485  32.905  0.3347 -0.0000  0.0798
47177W        W55777   5.487   2.942  30.901 -0.1095 -0.0705 -0.0123
47178W        W55778  20.161   2.230   7.069  0.0663  0.5982 -0.0586
47179W        W55779   0.035   6.998  12.607  0.0462 -0.0144 -0.2131
47180W        W55780   6.141   5.131  13.255  0.0003 -0.1293  0.2715
47181W        W55781  11.042   1.775  29.081 -0.0328 -0.0640  0.4092
47182W        W55782   2.892   1.793  22.948 -0.0341  0.1031  0.1510
47183W        W55783  17.589   5.051  22.484  0.0216 -0.0153 -0.1365
47184W        W55784   7.543   6.885  13.756  0.0585 -0.0844 -0.1451
47185W        W55785   1.864   5.172  25.177 -0.0516 -0.0760 -0.2423
47186W        W55786  22.317   3.679   9.881  0.1808 -0.0384  0.4501
47187W        W55787   0.272   3.537  27.546 -0.4825  0.0206  0.0440
47188W        W55788  19.034   5.564   7.575  0.0317  0.0853 -0.0017
47189W        W55789  19.241   2.157  18.179  0.1380 -0.0024  0.4023
47190W        W55790   1.377   5.191   0.643 -0.1268  0.1004  0.1182
47191W        W55791  16.031   6.668  15.994  0.2499 -0.0181  0.4157
47192W        W55792  23.869   3.544   1.687 -0.1554  0.1161 -0.1370
47193W        W55793  20.690   5.816   6.988 -0.0217 -0.0479  0.1631
47194W        W55794  15.808   5.984  31.206 -0.1700 -0.1309 -0.0683
47195W        W55795  22.741   3.796  18.983  0.0958  0.2141 -0.2838
47196W        W55796  12.651   5.455   3.752  0.1253  0.0013 -0.0642
47197W        W55797  15.540   7.645  28.480  0.0708 -0.0886  0.1164
47198W        W55798   4.889   4.299  15.311 -0.1616 -0.3282 -0.2259
47199W        W55799   2.676   5.487  23.074  0.0783 -0.0898  0.0095
47200W        W55800  23.202   6.445  22.725 -0.2753 -0.2286 -0.2466
47201W        W55801   1.701   3.944  12.860 -0.1179  0.1154  0.0564
47202W        W55802   9.149   4.436   0.025 -0.3537  0.2519  0.0399
47203W        W55803  18.840   7.046  10.285  0.1752  0.0680  0.0166
47204W        W55804   5.601   4.971  28.423  0.1125 -0.1803 -0.0062
47205W        W55805   1.191   1.934   5.624 -0.0499 -0.3419 -0.1554
47206W        W55806  15.663   3.160  26.073  0.1147 -0.3564 -0.3072
47207W        W55807   5.878   1.746  31.089  0.2796 -0.0452  0.3171
47208W        W55808   1.705   1.163  13.902  0.0007 -0.0175 -0.1546
47209W        W55809  21.653   1.634  28.006  0.5527 -0.2359 -0.1647
47210W        W55810  14.868   3.062   0.352  0.0575  0.1772 -0.2076
47211W        W55811   7.411   2.799   7.018  0.2284 -0.1208 -0.0251
47212W        W55812  13.222   7.373  19.739 -0.3103  0.1041 -0.0677
47213W        W55813  14.517   0.064  32.459  0.2608  0.1852 -0.2384
47214W        W55814  10.271   6.509   5.568  0.1294 -0.0720 -0.1288
47215W        W55815  12.095   5.102   5.786 -0.2954  0.0625 -0.0777
47216W        W55816  13.492   5.051   6.657 -0.1618 -0.0944 -0.2537
47217W        W55817  17.615   0.644   4.897 -0.0093 -0.2191 -0.0283
47218W        W55818  18.040   5.176  23.236 -0.2181  0.1138 -0.0587
47219W        W55819  23.482   6.021   3.414  0.0434  0.0704 -0.2514
47220W        W55820  15.854   5.777  21.247  0.0959 -0.3474 -0.0059
47221W        W55821  20.668   2.095  22.980  0.1766 -0.2254  0.1345
47222W        W55822  17.904   3.081  25.653  0.0944  0.0428 -0.2145
47223W        W55823   9.150   2.262   5.169 -0.0169 -0.0236  0.1521
47224W        W55824  12.318   0.726   6.146  0.0344  0.0246 -0.1122
47225W        W55825   4.581   4.279   0.583 -0.0634  0.0056 -0.0064
47226W        W55826  13.941   1.683   5.751 -0.2328  0.0527  0.1970
47227W        W55827   1.270   0.077  30.111 -0.3083  0.1796  0.2254
47228W        W55828  19.901   3.158  17.107  0.2829 -0.1829 -0.0771
47229W        W55829  22.731   6.346  10.508 -0.0191  0.2450 -0.0971
47230W        W55830  23.158   2.357  29.796  0.2733  0.3160 -0.3624
47231W        W55831   2.385   6.736  12.853  0.1562  0.0604  0.0552
47232W        W55832  22.711   3.442  22.371  0.0171 -0.0154  0.1375
47233W        W55833   5.455   6.581  31.654  0.0979  0.0336  0.2863
47234W        W55834  19.640   5.004   8.408 -0.1497  0.0886 -0.0910
47235W        W55835  23.373   5.207  23.605  0.3420  0.0522  0.0862
47236W        W55836  22.949   3.445  28.506 -0.1741 -0.0238  0.0685
47237W        W55837  23.385   7.229  13.202 -0.1447 -0.2302  0.2236
47238W        W55838  20.140   6.403  17.821  0.2493 -0.0896 -0.4178
47239W        W55839   1.265   0.917  25.695  0.0876 -0.0010  0.0381
47240W        W55840   1.239   0.692   0.104  0.0447  0.0762  0.0341
47241W        W55841  16.420   2.695  21.946  0.1302  0.0425 -0.1772
47242W        W55842  16.695   1.217   8.682 -0.2884  0.0199 -0.0931
47243W        W55843  14.518   3.917  23.275 -0.0173  0.0407 -0.1773
47244W        W55844   6.967   3.995   8.292 -0.0649  0.0037  0.0663
47245W        W55845  21.244   1.081   8.484 -0.0278  0.2162  0.0280
47246W        W55846  23.937   0.453   0.605  0.0067 -0.2651  0.0976
47247W        W55847   7.363   5.248  12.197 -0.2161  0.0418 -0.1302
47248W        W55848  14.204   6.656  25.420 -0.0341 -0.2299  0.2265
47249W        W55849   6.548   5.837  11.895  0.0932  0.0673  0.1506
47250W        W55850   1.504   6.022   7.026  0.1992 -0.0889 -0.1946
47251W        W55851   3.435   5.025   2.517  0.0448 -0.1025 -0.0324
47252W        W55852  10.374   5.516   3.383  0.0395  0.0886  0.1492
47253W        W55853  15.605   4.066   7.057  0.3026 -0.1078 -0.0180
47254W        W55854  20.882   6.589  11.165  0.0724  0.3338  0.0438
47255W        W55855   4.964   1.169  28.972 -0.2010 -0.2913  0.3635
47256W        W55856  24.156   7.721  26.406  0.0812  0.1092  0.0114
47257W        W55857   6.706   6.600   7.455 -0.0551 -0.0889 -0.0569
47258W        W55858  14.194   6.340  31.883  0.0342 -0.2150 -0.2622
47259W        W55859  12.101   4.296   7.323  0.1456 -0.1137  0.0240
47260W        W55860   9.720   2.345  22.903  0.0645  0.0993  0.2158
47261W        W55861   1.114   7.444  32.815  0.0505  0.1213  0.1352
47262W        W55862   1.693   0.884  12.429 -0.2463 -0.0815 -0.0431
47263W        W55863  20.887   2.434  32.904 -0.0106 -0.2785  0.0409
47264W        W55864  17.519   6.291   8.026 -0.1685  0.2087 -0.2429
47265W        W55865  20.766   2.183   9.796 -0.0291  0.1589 -0.0480
47266W        W55866  15.528   7.192  16.652  0.0261  0.1291 -0.0941
47267W        W55867  22.608   1.511   8.679 -0.1234 -0.0129 -0.1997
47268W        W55868   2.689   4.726   8.723 -0.0874 -0.1413  0.4320
47269W        W55869   7.355   3.765  16.186 -0.1359 -0.1063  0.1676
47270W        W55870   4.485   3.367  27.028  0.1614 -0.0194 -0.1044
47271W        W55871   4.434   1.037  31.238  0.0869  0.0085 -0.1693
47272W        W55872  22.591   5.514  25.949  0.0977  0.1089  0.0068
47273W        W55873  18.102   4.173  23.725  0.0169 -0.1102  0.0208
47274W        W55874   4.792   6.163   3.762  0.0711 -0.1783  0.0361
47275W        W55875   4.509   5.643  25.546 -0.1077  0.3440 -0.1296
47276W        W55876   5.396   1.385   6.839 -0.2849  0.0119 -0.2755
47277W        W55877   3.412   3.391  31.825  0.1715 -0.0422 -0.1906
47278W        W55878  18.551   5.460   2.055  0.1782 -0.0372  0.3636
47279W        W55879  22.280   3.197  25.918  0.0096 -0.0780 -0.2385
47280W        W55880   0.766   5.982  29.069 -0.0905 -0.1835  0.0458
47281W        W55881   5.878   1.715   6.730  0.0310  0.1336  0.0872
47282W        W55882  23.470   6.892  10.281 -0.0578  0.1530 -0.0067
47283W        W55883   9.253   4.480   0.506 -0.0984 -0.1420  0.4014
47284W        W55884   9.310   4.728  31.380  0.0559  0.0671  0.0437
47285W        W55885  20.105   6.061  20.871 -0.0488  0.1009  0.0206
47286W        W55886   7.197   4.312   6.961 -0.1855  0.0382  0.1204
47287W        W55887  16.581   4.526  30.794 -0.0178 -0.0767  0.0047
47288W        W55888  20.666   5.694   9.069 -0.3064  0.0569  0.0539
47289W        W55889  11.754   0.916  20.919 -0.5001  0.0805  0.0371
47290W        W55890  18.338   5.964  29.751 -0.2411  0.0742  0.0970
47291W        W55891  12.528   2.696  26.175 -0.4512 -0.1779  0.2380
47292W        W55892  12.105   7.189  21.311 -0.3299  0.2102 -0.0075
47293W        W55893  16.756   6.527  28.341  0.0726 -0.0437 -0.0151
47294W        W55894   5.789   6.072   2.771 -0.3286  0.1019 -0.1233
47295W        W55895   3.892   5.640  13.524  0.1892 -0.5161  0.2206
47296W        W55896  10.899   3.513  27.204  0.2468 -0.0625 -0.1345
47297W        W55897   2.023   3.167  11.209 -0.1513  0.0034 -0.2655
47298W        W55898  16.548   1.995  29.964  0.0666 -0.0948  0.0080
47299W        W55899  14.520   0.027   6.004  0.0590 -0.1967  0.2713
47300W        W55900  22.111   3.646  28.112  0.0956 -0.3667 -0.3835
47301W        W55901  12.377   4.044  20.722 -0.2454 -0.0186  0.0156
47302W        W55902  20.729   4.133  29.189 -0.3208  0.2183 -0.0721
47303W        W55903  18.748   1.870   4.982  0.1002 -0.0058  0.1245
47304W        W55904  15.746   7.479   3.412  0.3668 -0.2952 -0.2064
47305W        W55905  11.133   4.252  11.026 -0.0352 -0.2630 -0.1659
47306W        W55906  16.467   0.833  22.552 -0.0029 -0.0401 -0.0413
47307W        W55907  24.516   2.139  10.502 -0.0475 -0.0107  0.0692
47308W        W55908  14.027   0.284  30.372 -0.2152 -0.1554  0.2353
47309W        W55909  17.112   7.365  18.104 -0.1928  0.1843  0.0887
47310W        W55910  10.040   4.200  22.020  0.0490 -0.0820  0.2102
47311W        W55911  13.343   1.964   8.570  0.0252 -0.0735 -0.1434
47312W        W55912  16.510   0.279  20.715  0.0003  0.2212 -0.0522
47313W        W55913  21.542   1.109  32.994 -0.1266 -0.1563  0.1491
47314W        W55914  10.203   3.359  12.925  0.2947 -0.1195  0.0751
47315W        W55915  16.692   5.667  29.903  0.2709 -0.0689  0.2171
47316W        W55916   4.837   6.355   3.235  0.0808 -0.2112 -0.1497
47317W        W55917  24.432   0.149  20.334 -0.1041  0.0315  0.2304
47318W        W55918   6.975   7.112  26.138 -0.0570  0.1257  0.3143
47319W        W55919   8.310   0.449  27.673 -0.3750 -0.0572  0.2535
47320W        W55920   9.790   3.329  21.869 -0.1319 -0.0800  0.1023
47321W        W55921   9.654   1.693  29.904  0.1958 -0.1113 -0.1725
47322W        W55922  11.979   1.198  22.304  0.2251 -0.1476  0.0490
47323W        W55923   9.968   6.851  10.776  0.1190 -0.0065 -0.1468
47324W        W55924  10.909   0.569   5.514  0.0736  0.2076 -0.2428
47325W        W55925   9.848   2.845  27.616 -0.3688 -0.1073 -0.1715
47326W        W55926   6.777   1.778   8.410 -0.0840 -0.0730  0.0181
47327W        W55927  12.056   6.686   3.604  0.2043  0.2872  0.0317
47328W        W55928  20.648   0.004  26.643  0.0822  0.1085  0.1526
47329W        W55929   5.477   5.854  31.174 -0.2862  0.0996  0.2167
47330W        W55930   4.098   4.944   0.493  0.0406 -0.2173 -0.2823
47331W        W55931   9.204   5.644  23.609 -0.0720  0.2075 -0.0470
47332W        W55932   5.617   7.225   5.096 -0.2640  0.0914  0.1706
47333W        W55933  14.187   5.781  31.962 -0.0204  0.0368  0.1656
47334W        W55934  17.180   1.275   8.579  0.0377 -0.1256 -0.0271
47335W        W55935  15.851   0.751   0.971 -0.1804 -0.4062  0.0944
47336W        W55936  21.100   5.420  18.262  0.0120  0.4834 -0.0298
47337W        W55937  23.921   2.905  21.686 -0.0885  0.2802  0.1241
47338W        W55938  16.600   2.080  17.675  0.0589  0.1364  0.1208
47339W        W55939  12.935   0.986   9.397 -0.0208 -0.0313  0.0755
47340W        W55940   1.110   2.719  14.701 -0.1304 -0.3567  0.2047
47341W        W55941  15.504   7.592  27.169 -0.2497  0.0408  0.1950
47342W        W55942   3.921   3.057  15.002 -0.0653  0.1777 -0.0312
47343W        W55943   4.003   6.771  31.004 -0.0834  0.1012  0.3179
47344W        W55944   0.713   5.883   4.027  0.1978  0.0123  0.0935
47345W        W55945  21.817   2.758  23.516  0.3360  0.1917 -0.1489
47346W        W55946  21.952   1.326  25.312 -0.0007 -0.0744  0.1606
47347W        W55947  19.483   2.422   1.694 -0.1598  0.3554  0.5564
47348W        W55948  10.218   2.903   6.467  0.2231  0.1038  0.0765
47349W        W55949  23.133   0.116  23.007  0.3093 -0.0530  0.1966
47350W        W55950   5.591   3.298  25.459  0.2234 -0.2215  0.0857
47351W        W55951  17.684   0.231  26.936 -0.1031  0.0727 -0.1955
47352W        W55952  11.745   1.914   6.794  0.1237 -0.3453 -0.0487
47353W        W55953   9.327   6.430   3.642  0.0104 -0.2651 -0.0305
47354W        W55954  16.457   7.444   9.805  0.1284 -0.0590  0.0021
47355W        W55955  13.029   7.537  22.275  0.0149 -0.0594  0.0187
47356W        W55956  18.483   5.008   6.753  0.1540 -0.0530 -0.2782
47357W        W55957  14.450   2.945  31.556  0.0183 -0.2191  0.0709
47358W        W55958  21.831   7.762  11.289  0.1477 -0.1204  0.0697
47359W        W55959   0.975   0.213  16.707  0.2611  0.0552 -0.0522
47360W        W55960   7.417   2.338  13.150 -0.1636  0.0670 -0.2337
47361W        W55961  17.012   7.306  21.015  0.0626  0.1109  0.0800
47362W        W55962  14.346   0.762  27.931  0.0336  0.0917  0.0853
47363W        W55963  17.932   5.929  27.136  0.3005 -0.1442 -0.1219
47364W        W55964  18.085   5.168  22.765 -0.1195  0.2142  0.0867
47365W        W55965   5.262   4.467  22.836  0.2128  0.3258 -0.0628
47366W        W55966  16.898   6.697  16.067 -0.3315 -0.1246 -0.0868
47367W        W55967   0.718   0.147  12.116 -0.0329  0.0972 -0.2282
47368W        W55968   1.636   6.344  11.226 -0.1153  0.0559 -0.0052
47369W        W55969  20.625   2.698  29.246 -0.0473 -0.2131  0.0186
47370W        W55970   6.174   6.654  26.067 -0.0174 -0.3387  0.2640
47371W        W55971  12.451   2.117   0.440 -0.1567 -0.2333 -0.0863
47372W        W55972  21.152   0.329  10.798 -0.0061  0.2306 -0.1201
47373W        W55973  15.982   5.550  18.384 -0.0408 -0.0038 -0.1682
47374W        W55974  18.287   0.120   3.601  0.0306  0.0214 -0.1246
47375W        W55975   1.375   0.173   3.343  0.0059 -0.0229  0.0221
47376W        W55976  12.378   5.956  29.589 -0.0379  0.1263 -0.1954
47377W        W55977  15.286   0.017   0.260  0.0784  0.1120  0.1763
47378W        W55978  16.633   4.459   1.887 -0.2796  0.1019 -0.0905
47379W        W55979  20.323   4.965  22.408 -0.1467 -0.0618  0.1031
47380W        W55980  23.824   5.892  28.684  0.0388 -0.3971  0.1012
47381W        W55981   2.179   5.585  11.073 -0.1570  0.1402 -0.2222
47382W        W55982   9.810   6.227  13.223  0.0481  0.1114  0.0248
47383W        W55983   4.158   4.162  13.377  0.0223 -0.1893 -0.1711
47384W        W55984  22.386   4.814   8.228 -0.0946  0.0452 -0.2140
47385W        W55985   7.254   5.795   2.972 -0.1907 -0.1325  0.3790
47386W        W55986  16.911   7.280   6.137 -0.0439  0.0924  0.1466
47387W        W55987  19.730   7.658   4.772  0.0302 -0.1344 -0.0480
47388W        W55988   8.314   1.300  11.739  0.2149 -0.2371 -0.0026
47389W        W55989   8.619   1.298  12.880  0.0969  0.2843  0.3257
47390W        W55990  22.401   4.102   7.561 -0.1390 -0.0806  0.0955
47391W        W55991  18.024   7.471   2.350  0.0019 -0.1435 -0.1930
47392W        W55992   8.066   2.043   3.856  0.0051  0.3680  0.1482
47393W        W55993  14.126   1.584  25.416 -0.0091  0.2843 -0.3057
47394W        W55994  20.424   3.215  30.785  0.1717  0.1491 -0.1613
47395W        W55995  21.960   1.631   6.820 -0.0257 -0.1599  0.0629
47396W        W55996  13.856   4.821   9.373 -0.2170 -0.2009 -0.1261
47397W        W55997  24.193   5.666  26.313 -0.1261  0.1572 -0.1313
47398W        W55998  21.520   3.436  24.812 -0.3067  0.0007  0.0072
47399W        W55999  24.938   0.469  31.851  0.3695  0.0625  0.4538
47400W        W56000  19.720   1.425  23.726 -0.1286  0.1633  0.0327
47401W        W56001   5.028   7.294  24.970 -0.0793 -0.3395 -0.0790
47402W        W56002   6.482   1.605  13.394  0.1337 -0.0573 -0.0840
47403W        W56003   9.573   7.794  30.926  0.0235  0.3383 -0.0090
47404W        W56004  16.722   5.861   4.593  0.0371 -0.1333 -0.1625
47405W        W56005  13.169   4.864  19.779  0.4207  0.0627  0.1892
47406W        W56006   3.217   2.364   5.592  0.0258  0.2287 -0.0114
47407W        W56007   3.560   6.170   1.126  0.2592 -0.0469  0.4955
47408W        W56008   9.203   7.659  25.430 -0.0954 -0.1164  0.2784
47409W        W56009   3.956   2.663   7.562 -0.0885 -0.0754 -0.0139
47410W        W56010   1.819   1.312  23.091  0.2658  0.0485  0.0075
47411W        W56011  24.860   7.573  13.836  0.1309 -0.2300 -0.2090
47412W        W56012  13.184   6.468  24.426 -0.1934 -0.2389 -0.3566
47413W        W56013  24.834   7.343   7.077 -0.0764 -0.1372 -0.4122
47414W        W56014   4.308   6.297  14.768  0.0129 -0.2044 -0.1265
47415W        W56015   1.320   0.225  14.092  0.0562 -0.2167  0.1007
47416W        W56016  16.992   2.413   4.781 -0.0413  0.1444 -0.2138
47417W        W56017  18.192   0.792  17.215 -0.0065 -0.0252 -0.0851
47418W        W56018   8.652   2.354  30.429  0.1143 -0.1120 -0.0119
47419W        W56019   7.441   1.898   4.631  0.3793  0.1188  0.0522
47420W        W56020  22.349   6.322  10.871 -0.0803  0.2508  0.0328
47421W        W56021   4.096   3.156  23.445 -0.0245  0.0016  0.0760
47422W        W56022  15.924   1.578   4.931 -0.0067  0.1358  0.1261
47423W        W56023  18.307   3.336  24.231 -0.0164  0.2399 -0.0984
47424W        W56024   0.714   2.827  32.319  0.0578  0.1473  0.1753
47425W        W56025  19.960   0.441  20.296 -0.1276 -0.1124 -0.0734
47426W        W56026  23.553   1.114   0.028  0.1290 -0.2201 -0.2687
47427W        W56027  12.734   1.831   6.554 -0.1371 -0.0864  0.1360
47428W        W56028  10.750   5.222  22.467 -0.3097  0.2175 -0.1177
47429W        W56029   4.599   5.175  17.025  0.0417  0.0951  0.4096
47430W        W56030  18.823   1.156  30.988  0.0970  0.0466 -0.0912
47431W        W56031   9.931   2.890  31.187  0.1441 -0.2288  0.3788
47432W        W56032  24.167   7.067  31.873  0.0582 -0.2327 -0.1714
47433W        W56033  18.113   1.430   0.235 -0.1126 -0.0936 -0.1293
47434W        W56034  17.185   6.981   3.361  0.1133  0.0227 -0.0168
47435W        W56035   4.338   0.189  11.389 -0.1046  0.1541  0.0721
47436W        W56036   8.180   4.521   8.283 -0.2205  0.1608  0.1540
47437W        W56037  14.976   1.094   9.972  0.0337 -0.2215  0.0049
47438W        W56038  21.265   4.843  21.114  0.1575 -0.1466 -0.0558
47439W        W56039  12.625   6.176   0.104 -0.0019  0.0283  0.1829
47440W        W56040  13.301   6.225   2.424  0.0576  0.3200  0.2427
47441W        W56041   5.407   7.510  30.472  0.0860  0.1034 -0.2175
47442W        W56042  15.768   4.758   9.639  0.1926  0.2567 -0.2275
47443W        W56043  16.126   2.537   7.089  0.1900 -0.0297 -0.0449
47444W        W56044   9.398   7.263   8.590  0.0318 -0.0791  0.1439
47445W        W56045  16.521   5.053  30.560 -0.0225 -0.0502 -0.1227
47446W        W56046   5.445   2.393  27.648 -0.3320  0.1791 -0.1138
47447W        W56047   8.304   3.085  33.001  0.1096 -0.2880  0.4617
47448W        W56048   8.150   5.761   6.430 -0.0904 -0.3590  0.1309
47449W        W56049  24.296   3.181  26.219  0.2020 -0.1150  0.1297
47450W        W56050   8.612   5.667  25.158 -0.0339  0.0956 -0.1589
47451W        W56051  16.725   0.582  23.975  0.1191  0.1857 -0.2737
47452W        W56052  15.251   7.405  32.270  0.0836 -0.0024  0.1438
47453W        W56053  19.285   5.274  19.785 -0.0730  0.1884 -0.0464
47454W        W56054  11.960   0.990  25.963 -0.2307 -0.0260  0.1882
47455W        W56055  16.082   4.326  29.990 -0.0123 -0.3600  0.0451
47456W        W56056  21.350   6.348   8.699 -0.1652 -0.0090 -0.2042
47457W        W56057  18.846   1.553   1.039 -0.0908 -0.0095  0.0927
47458W        W56058  24.796   5.534   5.320 -0.1865 -0.1380 -0.0284
47459W        W56059  10.948   0.632  21.395 -0.3366  0.1827  0.2311
47460W        W56060   6.187   5.743  11.271 -0.4230 -0.1259  0.2437
47461W        W56061   4.385   1.845   0.424 -0.1624 -0.0549  0.2700
47462W        W56062  19.475   2.833  28.022  0.2553 -0.1303 -0.2010
47463W        W56063   6.954   1.135  11.802  0.2294 -0.2657  0.0127
47464W        W56064   2.270   7.359  12.042  0.3072 -0.1598  0.1326
47465W        W56065   9.203   2.979   5.672  0.0463 -0.0112  0.0093
47466W        W56066  14.866   5.419  30.411  0.0222 -0.0483  0.3539
47467W        W56067  12.500   6.124  17.721  0.2188  0.0613 -0.2514
47468W        W56068  23.960   3.448  31.796  0.1822 -0.1386  0.0023
47469W        W56069  10.004   4.414  21.540 -0.0388  0.0897  0.1966
47470W        W56070  21.635   1.993  31.341 -0.1921  0.2051 -0.1435
47471W        W56071  10.979   7.470  10.716 -0.0418 -0.2125  0.0875
47472W        W56072  17.409   3.417   5.937 -0.0688  0.1496 -0.0816
47473W        W56073   3.239   0.540   9.132  0.1330  0.1214 -0.1877
47474W        W56074  12.331   7.633   6.412 -0.1062 -0.2261 -0.0572
47475W        W56075   7.304   3.193   8.322  0.0293 -0.1319  0.0443
47476W        W56076   1.256   2.205  14.561 -0.3091 -0.1604  0.0104
47477W        W56077  14.778   0.371  15.510  0.0112  0.1351 -0.1124
47478W        W56078   1.089   5.412   7.177  0.3011  0.2369  0.0919
47479W        W56079  13.000   0.564  29.955 -0.0057  0.0658  0.0603
47480W        W56080   0.472   3.919   3.617  0.1876  0.1396  0.0562
47481W        W56081   9.984   2.146   9.607 -0.0364  0.0651 -0.0842
47482W        W56082  17.670   5.522  23.302  0.0567 -0.0716  0.0727
47483W        W56083   6.661   3.132  28.844 -0.0310 -0.2556  0.0080
47484W        W56084  22.959   1.311  26.506 -0.0251  0.1268 -0.0934
47485W        W56085   4.338   6.549  22.450  0.0695  0.4194  0.0796
47486W        W56086  12.407   5.177   1.472  0.2086 -0.0564 -0.2364
47487W        W56087  19.202   0.928  19.631 -0.1087 -0.0573 -0.2260
47488W        W56088  13.633   3.512  24.245  0.0078  0.4819  0.0841
47489W        W56089   5.297   7.083   3.568 -0.0060 -0.0694 -0.1210
47490W        W56090   2.367   4.764  30.395  0.1126  0.0897 -0.1253
47491W        W56091  14.423   3.258   4.486  0.0507 -0.0720 -0.0916
47492W        W56092  10.485   7.300  27.556  0.0190 -0.2790  0.2446
47493W        W56093  22.041   0.430   1.576  0.1348  0.1644  0.1666
47494W        W56094  13.822   0.734  19.092 -0.2732  0.0202 -0.0505
47495W        W56095  15.149   1.255  27.870  0.1257  0.0669 -0.0571
47496W        W56096  17.127   1.443  22.551  0.0210 -0.2841 -0.0049
47497W        W56097  24.906   3.463  21.903 -0.1333 -0.3484 -0.3500
47498W        W56098  12.894   6.641   5.873  0.1312 -0.1460 -0.0676
47499W        W56099   7.166   4.957  15.938 -0.2708 -0.0347  0.3399
47500W        W56100   0.890   0.531  10.337  0.1158  0.2405  0.2056
47501W        W56101  17.071   5.525   5.774 -0.0549  0.0560 -0.1944
47502W        W56102   0.090   0.135  29.959  0.2271  0.1950 -0.2454
47503W        W56103   6.756   2.728  12.238 -0.0191 -0.2067 -0.1265
47504W        W56104  14.161   1.219  25.036 -0.1312  0.1511 -0.1878
47505W        W56105  12.126   2.279  27.386  0.2815 -0.1052 -0.0273
47506W        W56106   5.388   0.268  29.285  0.1388 -0.0428  0.0442
47507W        W56107   5.808   2.192   7.063 -0.0289 -0.1371 -0.0789
47508W        W56108  13.487   6.370  32.000  0.1473  0.2849  0.2726
47509W        W56109   3.719   0.501  26.619  0.3855  0.2456  0.1453
47510W        W56110   0.414   3.204  30.785  0.2093  0.4047  0.2094
47511W        W56111   7.327   1.774  24.573 -0.1717 -0.5022  0.1763
47512W        W56112  13.759   7.711  20.969  0.0328  0.0531  0.2202
47513W        W56113   4.601   6.373   2.743  0.1511  0.0139 -0.0766
47514W        W56114  20.217   2.068  27.155 -0.0547  0.5166 -0.1679
47515W        W56115  17.019   5.295  25.745  0.0836 -0.2925  0.0207
47516W        W56116  22.386   3.348  29.007  0.1544  0.2506  0.0254
47517W        W56117   9.367   7.523   0.978  0.2064 -0.1306  0.0399
47518W        W56118   4.357   3.796   7.862  0.0193  0.0049  0.3220
47519W        W56119   6.592   4.099  29.543  0.0805  0.0570 -0.1346
47520W        W56120  21.882   1.623  10.477  0.1578  0.1050  0.0972
47521W        W56121  13.169   1.317  19.230  0.2665  0.0040  0.0830
47522W        W56122   4.453   2.962  11.129  0.2461 -0.2214  0.0293
47523W        W56123   9.253   6.803  24.455  0.0884  0.1031  0.1028
47524W        W56124   7.772   3.210   0.136 -0.0175 -0.0306  0.2137
47525W        W56125   7.387   1.861  32.840  0.1456  0.0650  0.0947
47526W        W56126   0.869   4.332  25.396 -0.1846 -0.0929 -0.0594
47527W        W56127   2.165   3.540   9.438  0.1340 -0.1078  0.1222
47528W        W56128   0.648   6.938   1.898 -0.0387  0.0915 -0.0949
47529W        W56129   9.630   6.025   2.874 -0.0541 -0.0390 -0.0115
47530W        W56130   8.984   2.233   8.029  0.2026 -0.1985  0.0159
47531W        W56131  21.133   0.591   6.244 -0.1416 -0.2338 -0.2746
47532W        W56132  23.111   6.488  23.197  0.1151  0.0387  0.2527
47533W        W56133   2.959   2.441  28.379  0.0010  0.1567 -0.0749
47534W        W56134   7.213   0.976   1.301  0.0823 -0.1235 -0.1778
47535W        W56135  15.503   3.743   5.825  0.0375  0.0993  0.4613
47536W        W56136  18.041   3.396   0.159  0.2761  0.0510  0.0529
47537W        W56137  13.451   5.478   2.605 -0.0381  0.1284 -0.1080
47538W        W56138  11.547   7.143   1.332 -0.0216 -0.1474 -0.1774
47539W        W56139  12.841   6.446  17.514  0.2265  0.2406  0.3094
47540W        W56140  15.582   1.788   3.235  0.1674 -0.0284  0.0275
47541W        W56141  20.115   5.772  23.118 -0.5398  0.3700  0.1192
47542W        W56142   1.810   2.605  24.095  0.0896 -0.0198  0.0249
47543W        W56143   3.574   2.597   0.169 -0.3975 -0.1714 -0.0315
47544W        W56144  18.378   0.020  29.751 -0.2250 -0.0103  0.0294
47545W        W56145   3.612   6.061  32.825  0.0597  0.1879  0.2639
47546W        W56146   1.731   6.591  29.516  0.0442  0.0374 -0.0624
47547W        W56147  10.212   1.260   7.408 -0.2127  0.1363 -0.2978
47548W        W56148  19.464   5.457  16.885 -0.0990 -0.1264 -0.0291
47549W        W56149   0.665   3.688  31.304  0.0049 -0.1471 -0.0652
47550W        W56150   6.456   7.783   3.341  0.3502 -0.1072 -0.0836
47551W        W56151  11.559   3.993  18.880 -0.0387  0.0903  0.1885
47552W        W56152   9.048   1.504  30.589 -0.0845 -0.0911 -0.2256
47553W        W56153   1.331   1.075   5.378  0.3879  0.1008  0.1893
47554W        W56154  16.422   3.186  22.000  0.2902 -0.0629 -0.0370
47555W        W56155   1.871   3.490   5.414 -0.1625  0.4064 -0.0872
47556W        W56156  14.422   1.821  19.417  0.1539  0.1205 -0.2305
47557W        W56157  13.407   4.668   9.177 -0.0047 -0.0591  0.0875
47558W        W56158  17.427   5.235  22.907  0.3118 -0.0189 -0.0229
47559W        W56159   7.634   7.270  10.196  0.0820 -0.0348  0.1809
47560W        W56160  16.561   0.108  21.977 -0.0988 -0.0130 -0.1959
47561W        W56161  17.321   3.697  16.435 -0.0390  0.0257 -0.0394
47562W        W56162   2.272   2.146  31.126  0.1877  0.0408  0.0851
47563W        W56163  10.202   0.133   1.683 -0.2338 -0.2261 -0.2746
47564W        W56164  12.858   7.263  29.537  0.1257 -0.0270 -0.0092
47565W        W56165   2.901   6.368  11.632  0.0795  0.2119  0.0135
47566W        W56166   4.893   3.482  26.657  0.0457  0.1626  0.3061
47567W        W56167  17.773   3.793  19.703  0.1865  0.0506  0.0499
47568W        W56168  14.741   2.794  23.891 -0.2009 -0.1168 -0.1232
47569W        W56169   2.654   2.865  23.128  0.0346 -0.0739  0.1392
47570W        W56170  23.228   0.123   3.725 -0.1282  0.1516  0.1499
47571W        W56171   5.788   7.203  16.178 -0.0233 -0.0767 -0.0799
47572W        W56172   0.219   2.468  26.249 -0.0298 -0.1022  0.3964
47573W        W56173  17.705   6.609  28.179  0.1694  0.1536  0.2507
47574W        W56174  13.082   4.997   5.950  0.0259 -0.2060  0.1090
47575W        W56175  11.051   0.132  30.581 -0.0352  0.1418  0.0466
47576W        W56176   4.249   1.785  13.417 -0.1390  0.3679  0.0246
47577W        W56177   3.773   5.518   3.104  0.2979 -0.2258 -0.0689
47578W        W56178   0.725   5.069  28.586  0.1417 -0.0307  0.0870
47579W        W56179  14.930   5.195   1.824  0.0075  0.0873 -0.1803
47580W        W56180  13.427   6.904   4.613 -0.2333 -0.0882 -0.0143
47581W        W56181   6.796   5.685  29.462 -0.1400  0.1643 -0.0646
47582W        W56182  11.959   7.414  25.640  0.0786  0.0256  0.0127
47583W        W56183  18.636   4.809   1.259  0.0941  0.0647  0.1736
47584W        W56184  13.299   5.558  10.018 -0.0595 -0.3950  0.0648
47585W        W56185  16.321   4.027   8.804 -0.0527  0.1436 -0.0804
47586W        W56186   2.927   1.645   6.278 -0.2426  0.0633 -0.0939
47587W        W56187  10.508   1.395  11.118  0.3906 -0.0455  0.0654
47588W        W56188  20.707   4.029  24.241  0.2656  0.1351 -0.1075
47589W        W56189   3.713   2.587  26.989 -0.0568  0.4769  0.1296
47590W        W56190   2.906   4.593  18.176 -0.1121 -0.1567  0.1239
47591W        W56191  15.042   3.111  22.521  0.0659  0.1107  0.2000
47592W        W56192  20.623   4.876   5.848 -0.1120 -0.1692  0.2547
47593W        W56193   2.846   1.030   5.851 -0.0250  0.2115 -0.4536
47594W        W56194  14.392   2.478   9.131 -0.1923 -0.3680  0.1740
47595W        W56195  15.139   4.383  21.723  0.1597  0.1978 -0.0272
47596W        W56196   0.870   5.364  14.702 -0.1406  0.0386  0.2082
47597W        W56197  24.735   5.864  31.289  0.0383  0.0453 -0.3128
47598W        W56198   8.929   5.182  31.969 -0.4422  0.0183 -0.0259
47599W        W56199  19.257   1.928  17.637 -0.2771 -0.2515 -0.0223
47600W        W56200   9.616   1.849   4.355  0.2068  0.1976 -0.0962
47601W        W56201   7.168   5.797  24.694  0.0224 -0.2554 -0.0853
47602W        W56202  13.542   2.405  29.151 -0.0248  0.1070  0.2139
47603W        W56203   9.752   4.928  29.118 -0.3415 -0.0025  0.0419
47604W        W56204  22.210   5.784  13.056  0.1757  0.0811 -0.2359
47605W        W56205   1.355   0.894   2.063  0.0743  0.0035 -0.2227
47606W        W56206   2.562   6.069  27.009 -0.0682  0.1384 -0.1016
47607W        W56207  16.305   5.425   5.514  0.0250 -0.2869 -0.2042
47608W        W56208  11.593   4.340   9.799  0.0554  0.2620 -0.0301
47609W        W56209   3.719   1.749   2.155 -0.0003 -0.0765  0.2221
47610W        W56210  19.872   3.575  26.244 -0.0876  0.2114  0.0924
47611W        W56211   8.169   2.070   6.679  0.1977  0.0069 -0.0218
47612W        W56212   8.789   1.813  22.996 -0.1416  0.0835  0.2091
47613W        W56213  24.270   1.281   3.987  0.0738  0.2774 -0.0112
47614W        W56214  23.759   4.156  26.670 -0.0537  0.2224  0.0339
47615W        W56215   1.572   3.735   5.770  0.2266 -0.0200  0.2734
47616W        W56216  19.848   1.097  16.742 -0.2906  0.1087 -0.0798
47617W        W56217   7.091   2.693  31.319  0.0929 -0.1373  0.0007
47618W        W56218  24.291   4.707  14.519  0.2853  0.2650 -0.0453
47619W        W56219   7.690   1.378  10.646 -0.0518  0.0800 -0.0121
47620W        W56220  19.083   2.384   4.323  0.1649  0.1489  0.0434
47621W        W56221  11.633   1.340  24.341  0.1040  0.0234  0.2315
47622W        W56222   9.989   1.586  32.068  0.2221  0.0058  0.0403
47623W        W56223  17.381   3.751  23.296 -0.0600  0.2689 -0.2484
47624W        W56224  13.912   0.560   7.005  0.0418  0.0910  0.1995
47625W        W56225   5.303   7.005   8.249  0.0053 -0.0822 -0.2042
47626W        W56226  18.899   0.969   6.514  0.1872  0.2699  0.1272
47627W        W56227  20.697   3.437  22.840 -0.0772 -0.1854 -0.1347
47628W        W56228   9.008   0.289   8.888  0.1235  0.0627 -0.1750
47629W        W56229  22.855   3.756  31.023  0.2015  0.1570 -0.1067
47630W        W56230  14.611   4.058  29.493  0.0567  0.1311 -0.1707
47631W        W56231  14.942   4.250  23.476 -0.0084  0.0294 -0.2748
47632W        W56232   8.552   4.230  14.706  0.1251 -0.1962  0.0053
47633W        W56233   8.841   4.975  10.131  0.0284  0.0111  0.2298
47634W        W56234  17.542   6.093  19.564 -0.0609  0.1709 -0.1425
47635W        W56235   3.114   7.351  18.600 -0.0964 -0.1249  0.1226
47636W        W56236   7.770   3.318  25.756 -0.0957  0.1191  0.1962
47637W        W56237   6.037   0.505   9.265  0.1968 -0.7115 -0.1179
47638W        W56238  21.722   5.513   8.496 -0.3613  0.0264 -0.0691
47639W        W56239   2.391   4.601   2.652 -0.3732  0.1748 -0.0074
47640W        W56240  22.626   1.128  23.018  0.0192  0.1283  0.1704
47641W        W56241   2.844   1.601  18.158  0.1339  0.0398 -0.0171
47642W        W56242  24.484   6.578  22.582  0.0020 -0.2223  0.1768
47643W        W56243  16.664   6.963  19.478 -0.1216 -0.1412 -0.2219
47644W        W56244  24.426   5.634  20.388 -0.1458  0.0163  0.1806
47645W        W56245  24.053   5.825  24.169  0.0674 -0.0178 -0.2839
47646W        W56246  24.394   5.894  27.771  0.1067  0.0344  0.1203
47647W        W56247  17.012   4.927   7.152  0.0599 -0.2031 -0.2312
47648W        W56248   8.729   6.766   1.959  0.0218 -0.0512  0.0292
47649W        W56249   7.439   3.138  29.751 -0.0356  0.0205 -0.3980
47650W        W56250  11.053   5.713   7.845 -0.0694  0.0423  0.0038
47651W        W56251   4.341   5.866  25.088 -0.0543  0.0585 -0.0131
47652W        W56252   1.343   5.988  25.794  0.1071  0.1093  0.0393
47653W        W56253   6.355   0.986  31.218 -0.1236 -0.1863 -0.1566
47654W        W56254  11.230   2.439  11.846 -0.0760  0.2249 -0.1625
47655W        W56255  19.332   2.510  24.058 -0.1978 -0.1043  0.0653
47656W        W56256  17.480   4.532  19.678 -0.1568 -0.0929 -0.0096
47657W        W56257  21.178   6.103  17.269  0.0577 -0.1967  0.2326
47658W        W56258   9.621   2.465   3.120 -0.0403  0.3519  0.1939
47659W        W56259   3.138   6.861  29.443 -0.0707  0.0484 -0.2115
47660W        W56260  20.361   1.553   0.516  0.2422  0.0633  0.3550
47661W        W56261  19.271   0.547   2.116 -0.0040  0.0748  0.0416
47662W        W56262  12.340   1.713  31.822 -0.1347  0.1313 -0.0061
47663W        W56263  17.548   7.245   7.867  0.1151 -0.1079 -0.0788
47664W        W56264  12.870   3.810   0.745  0.1755  0.0483  0.0389
47665W        W56265  22.620   4.881   6.390 -0.0191  0.3804 -0.2858
47666W        W56266  18.340   6.305   5.503  0.3023  0.2674 -0.0653
47667W        W56267  14.372   1.533  17.692  0.1711  0.3041 -0.3315
47668W        W56268  19.883   2.958   6.480  0.1715 -0.1020  0.4321
47669W        W56269   5.897   4.426   4.106  0.1343  0.1077 -0.1619
47670W        W56270  18.039   1.761  15.774 -0.2495  0.1989  0.1810
47671W        W56271  22.682   2.728  11.660 -0.4870  0.0033  0.0674
47672W        W56272  15.927   2.481   6.075  0.0921 -0.0548  0.1149
47673W        W56273  22.405   3.551  23.637 -0.1118  0.0500  0.0152
47674W        W56274   0.112   3.458  29.987 -0.1256  0.2195  0.2346
47675W        W56275  11.656   1.775  19.458  0.0184  0.1320  0.1097
47676W        W56276   7.061   6.751  13.003  0.0806 -0.0061 -0.1505
47677W        W56277  17.313   0.942  17.764  0.1261  0.2208 -0.0485
47678W        W56278  11.856   0.267  18.514  0.0874  0.1618 -0.3033
47679W        W56279   8.001   2.660  12.985 -0.0038 -0.2906 -0.3987
47680W        W56280   3.083   6.751  17.115 -0.0240 -0.2371 -0.0546
47681W        W56281  15.527   4.653   8.683  0.3774  0.0857  0.0572
47682W        W56282   9.447   1.230  31.254 -0.3182 -0.1429  0.0183
47683W        W56283   6.468   6.852   2.032  0.0532  0.0770 -0.3861
47684W        W56284   7.038   7.670  29.518  0.2824 -0.2067  0.2038
47685W        W56285  19.264   4.644  30.574 -0.1031  0.0493 -0.3769
47686W        W56286   1.244   0.779  10.625  0.0968  0.2438 -0.1542
47687W        W56287  13.800   3.098   2.852 -0.0204 -0.0970 -0.1599
47688W        W56288  22.544   0.294   0.225 -0.0326  0.3503  0.0541
47689W        W56289  17.570   3.413  32.256 -0.1669 -0.1804 -0.1004
47690W        W56290  18.742   6.088  10.835  0.0342  0.0754 -0.0478
47691W        W56291   0.272   2.398   4.727 -0.1097  0.0863  0.0319
47692W        W56292  20.104   7.673   3.216 -0.1690  0.4047  0.1028
47693W        W56293  15.669   7.600   0.951 -0.0557 -0.0936  0.2328
47694W        W56294   6.725   6.731  32.845 -0.1949  0.2489 -0.0002
47695W        W56295  20.247   3.291   2.698 -0.1241  0.0172 -0.1135
47696W        W56296   4.463   6.345  14.202  0.1963  0.1247 -0.1290
47697W        W56297   1.029   6.009  22.248 -0.0291 -0.2277  0.0663
47698W        W56298  20.140   1.369   3.786 -0.0113 -0.3938 -0.3469
47699W        W56299  20.253   1.493  23.389 -0.0019 -0.0029  0.0402
47700W        W56300  15.561   5.028  25.944 -0.4331 -0.1694 -0.1140
47701W        W56301   5.141   4.917   3.454 -0.0676  0.1577 -0.1583
47702W        W56302  22.680   1.193   4.747 -0.1884 -0.0921 -0.2234
47703W        W56303  17.633   4.480  31.182 -0.0983  0.1886  0.0785
47704W        W56304  24.161   3.715   6.234 -0.0779  0.1288  0.0939
47705W        W56305  17.078   3.134   3.189  0.0655  0.1250 -0.3518
47706W        W56306   3.251   7.433   9.364 -0.1347 -0.0479  0.2745
47707W        W56307  24.592   4.920   8.186 -0.0597 -0.1525  0.0003
47708W        W56308  16.622   1.316   7.172  0.2673 -0.1440 -0.3409
47709W        W56309  17.852   4.073  30.374  0.3773  0.0348 -0.0569
47710W        W56310  20.511   0.689   1.324  0.1776 -0.2143 -0.0269
47711W        W56311  12.946   7.755  23.696 -0.0142  0.0393 -0.0201
47712W        W56312   4.670   7.609   2.290 -0.1516  0.1309  0.0699
47713W        W56313  14.089   7.422   9.833  0.1709 -0.2291 -0.3611
47714W        W56314  24.423   4.943  28.212 -0.1290  0.2942  0.3840
47715W        W56315  16.787   2.543  21.160 -0.2534 -0.1843  0.0471
47716W        W56316   7.527   5.107   5.765  0.1945 -0.0498 -0.3287
47717W        W56317  15.305   0.388  15.224 -0.1211 -0.1522  0.0577
47718W        W56318  21.466   6.842  26.466  0.1158  0.0166  0.1367
47719W        W56319  15.392   6.706  16.573  0.2954 -0.0128 -0.0263
47720W        W56320  21.394   5.453   2.473  0.1685 -0.0206 -0.3355
47721W        W56321  18.740   6.187   9.167  0.2676 -0.4485  0.0209
47722W        W56322  14.672   4.192  31.315  0.0289  0.0727 -0.2125
47723W        W56323   1.423   0.932   1.416 -0.4338 -0.2307  0.4200
47724W        W56324   3.610   3.791   9.140 -0.0051 -0.0829  0.3155
47725W        W56325   7.865   0.906  31.022  0.1973  0.0582  0.1390
47726W        W56326  19.142   3.041  22.308  0.2977  0.1405  0.0688
47727W        W56327  18.247   6.535  21.006  0.3152  0.2615 -0.1704
47728W        W56328   7.157   4.293   0.805 -0.2006  0.0665  0.2319
47729W        W56329  19.827   6.172   7.544  0.2273  0.0382  0.0146
47730W        W56330  22.433   0.441   5.105  0.0235  0.0167 -0.0885
47731W        W56331  10.593   6.940   6.828 -0.2164  0.0426 -0.1251
47732W        W56332  24.863   3.058  22.872 -0.0123 -0.2661  0.0907
47733W        W56333  11.876   4.560   9.353  0.3505  0.4001 -0.2215
47734W        W56334   1.141   6.131  10.579 -0.1761 -0.1002  0.1242
47735W        W56335  16.770   0.054  25.975 -0.0820  0.0571 -0.0866
47736W        W56336  11.327   0.812   5.707  0.0190 -0.1683 -0.0997
47737W        W56337  19.073   3.045   1.018  0.2247  0.0283  0.1069
47738W        W56338   0.491   7.766   2.502 -0.1208 -0.0857 -0.0828
47739W        W56339   3.982   7.302  28.398  0.1024  0.0454 -0.0667
47740W        W56340   8.059   2.476   1.256 -0.3943  0.0738 -0.0709
47741W        W56341   1.499   4.770  16.100  0.1470 -0.0023 -0.2039
47742W        W56342  24.131   1.180  28.827  0.1117  0.1999 -0.0327
47743W        W56343  17.734   0.643  30.819  0.0382  0.0591  0.2204
47744W        W56344  20.834   6.155  26.616  0.3718 -0.0613  0.0573
47745W        W56345  22.605   3.510   0.356 -0.1680 -0.1141  0.1675
47746W        W56346   0.982   1.065  31.040  0.0400  0.1024 -0.0871
47747W        W56347  14.434   3.586  15.477 -0.1905 -0.1819  0.2356
47748W        W56348   5.670   2.194  16.511  0.0156 -0.2378  0.0323
47749W        W56349  21.246   0.917  20.639 -0.0958  0.0980  0.1082
47750W        W56350  23.611   6.731  10.788 -0.1472  0.2702 -0.2880
47751W        W56351  17.998   0.307  17.849  0.2107  0.5447 -0.0915
47752W        W56352  15.765   4.873  21.161  0.1402  0.0262 -0.1436
47753W        W56353  16.823   0.350  16.315 -0.1704 -0.0246 -0.1156
47754W        W56354   8.247   7.699   3.904  0.1570 -0.0398 -0.0703
47755W        W56355   6.953   1.697  29.141  0.0919  0.1087 -0.0951
47756W        W56356  16.256   7.512  20.600  0.1453 -0.3137  0.0721
47757W        W56357  17.486   2.047  21.096  0.4355  0.1043 -0.1381
47758W        W56358  22.174   4.141   8.400  0.0763  0.1318 -0.3512
47759W        W56359   0.812   7.357  23.932  0.0541 -0.0044  0.1563
47760W        W56360   5.817   3.756  27.426 -0.2056  0.0815  0.2805
47761W        W56361   1.080   6.735  14.297 -0.2534 -0.2155  0.0664
47762W        W56362  10.397   1.097  12.399 -0.2705 -0.2319 -0.1230
47763W        W56363   0.166   0.048   6.558  0.1762 -0.1401  0.0478
47764W        W56364   6.169   3.285  32.052 -0.0035 -0.0398 -0.2582
47765W        W56365  14.677   1.381  22.510 -0.1416 -0.0086  0.3048
47766W        W56366   8.970   3.438   8.950  0.1081 -0.0965  0.1922
47767W        W56367  14.729   2.411  30.945 -0.1823 -0.1292  0.0143
47768W        W56368  12.547   2.604  28.238 -0.1378 -0.0570  0.3390
47769W        W56369   0.064   2.271  25.373  0.2242  0.0185  0.1390
47770W        W56370  16.009   0.971   6.115 -0.1083  0.1446  0.0711
47771W        W56371  11.509   1.312   2.544  0.1132 -0.3174 -0.0648
47772W        W56372  22.679   6.383  25.159 -0.0429  0.0249  0.0350
47773W        W56373   2.349   2.571  23.761  0.1062  0.0018  0.3284
47774W        W56374   6.895   5.714  23.009 -0.2159  0.0989 -0.1403
47775W        W56375   1.165   4.776  30.969 -0.2199 -0.1154 -0.0353
47776W        W56376  23.570   2.387   5.074 -0.2311  0.1722  0.2267
47777W        W56377   4.429   6.635  24.511  0.1500 -0.1278  0.0510
47778W        W56378   1.258   1.899  11.014  0.2520 -0.1665  0.3116
47779W        W56379   1.952   6.111  10.358 -0.0315  0.4077  0.0816
47780W        W56380   9.122   1.687  12.098  0.0146  0.2160 -0.1024
47781W        W56381   2.200   2.047   8.412 -0.2373  0.0592  0.0046
47782W        W56382   5.656   0.792   3.593 -0.0409  0.1633  0.1909
47783W        W56383  18.033   1.184  30.252  0.2921  0.0046 -0.0354
47784W        W56384  22.614   2.299   0.835  0.1676 -0.0908  0.2384
47785W        W56385   1.060   5.546  13.130  0.1816 -0.0431  0.0227
47786W        W56386   8.560   5.653   7.552 -0.2567 -0.1213 -0.2727
47787W        W56387  19.915   0.976  24.554  0.0776  0.2131  0.0308
47788W        W56388   0.902   2.676  28.515 -0.0571  0.1296  0.1732
47789W        W56389  12.331   0.066   7.640  0.1914  0.1743  0.1193
47790W        W56390  14.220   4.320  16.032 -0.1413 -0.0030 -0.1990
47791W        W56391  14.910   7.015   2.566  0.0828  0.3431  0.3451
47792W        W56392  18.383   2.542  26.385  0.0036 -0.1453  0.0383
47793W        W56393   0.127   7.462  11.646 -0.0532 -0.0681  0.1151
47794W        W56394  15.296   4.604  23.878 -0.0448  0.1412  0.0808
47795W        W56395   1.826   1.446   2.847  0.0521 -0.1125  0.0142
47796W        W56396   1.134   4.319   9.193 -0.0635 -0.0051 -0.1512
47797W        W56397  17.632   5.645  10.027  0.0615 -0.4113  0.1694
47798W        W56398  15.147   4.278   8.406 -0.3689  0.2679 -0.1651
47799W        W56399   8.424   1.084  21.703 -0.0036 -0.2540  0.0267
47800W        W56400  16.054   6.432  14.435 -0.1964  0.0172  0.0085
47801W        W56401  20.683   0.436  27.652 -0.2090 -0.1894  0.4744
47802W        W56402  13.893   2.616   2.798  0.1227  0.0816 -0.0530
47803W        W56403  11.895   5.848   7.382 -0.1124  0.1018 -0.0752
47804W        W56404   8.624   5.518  31.121  0.1636 -0.0807  0.1646
47805W        W56405   0.842   1.030  25.982  0.0504 -0.0006  0.0781
47806W        W56406  14.279   5.658   7.292  0.1720  0.2886  0.0982
47807W        W56407   5.945   1.001  31.950 -0.0562  0.1112  0.0458
47808W        W56408  17.958   1.862  23.588  0.0926  0.1602  0.1430
47809W        W56409   4.036   5.833   6.153 -0.1057  0.0904  0.1232
47810W        W56410  12.994   1.151  11.149  0.1559  0.0842 -0.1862
47811W        W56411  18.031   0.834  29.250  0.0893  0.3113  0.1649
47812W        W56412  14.650   6.272  10.077  0.0491  0.3242 -0.3270
47813W        W56413   2.792   6.248   8.549  0.0481  0.2143 -0.0754
47814W        W56414  11.758   0.503  10.002  0.3598 -0.1142 -0.3462
47815W        W56415   8.228   7.368   3.028  0.1198  0.0336 -0.2169
47816W        W56416   7.707   5.855  11.640 -0.0086  0.1408  0.1521
47817W        W56417  18.744   2.279   1.165 -0.2439  0.0360 -0.1160
47818W        W56418   6.849   3.299   1.051  0.2137  0.1198  0.0678
47819W        W56419   3.674   7.612  12.377 -0.1407 -0.0944  0.0888
47820W        W56420  16.243   2.967  26.702 -0.0628 -0.0262 -0.1284
47821W        W56421  19.985   5.257  27.838 -0.2621 -0.0796  0.0580
47822W        W56422  16.645   4.334  20.191 -0.3844 -0.1999 -0.1774
47823W        W56423  11.294   1.831  19.940  0.0279 -0.1488 -0.0728
47824W        W56424  19.037   4.265  22.552  0.0486 -0.0675 -0.0439
47825W        W56425   2.070   4.951  27.655  0.0617 -0.0250 -0.1545
47826W        W56426  19.504   6.533   3.378  0.1671 -0.1496  0.0500
47827W        W56427   1.207   2.640  32.846 -0.0195 -0.0466 -0.1640
47828W        W56428   3.261   3.236   6.477 -0.2175 -0.0261  0.1336
47829W        W56429   2.380   6.601  26.283  0.0978 -0.0881 -0.0243
47830W        W56430  21.843   0.633  23.411 -0.1300  0.4652  0.0248
47831W        W56431  10.722   5.414  32.282 -0.2459  0.3161 -0.0252
47832W        W56432  18.065   5.279  20.727  0.0048  0.1419  0.1829
47833W        W56433   2.716   2.043  25.862  0.0192  0.2086  0.1906
47834W        W56434  19.857   2.802  19.822 -0.2010  0.2669  0.0664
47835W        W56435  23.330   2.776   4.085  0.4848  0.1421  0.0712
47836W        W56436   4.452   0.644  30.198 -0.1461 -0.0797  0.2542
47837W        W56437  19.547   5.435   7.452  0.0285  0.1377 -0.0347
47838W        W56438  20.483   3.521  18.715 -0.0294  0.1124  0.3856
47839W        W56439   8.799   4.580   9.663  0.0725 -0.2830 -0.0484
47840W        W56440   1.987   7.375   6.071  0.0828  0.0542 -0.0411
47841W        W56441  22.155   4.202  19.455 -0.2413  0.2723  0.2253
47842W        W56442  20.217   6.427   2.735 -0.2109 -0.1685  0.1977
47843W        W56443  13.252   4.025   3.249  0.1061 -0.1544 -0.1174
47844W        W56444  15.670   0.554  21.557  0.1459  0.0421  0.0518
47845W        W56445  23.124   0.147  29.111 -0.0539  0.0549  0.1145
47846W        W56446   7.783   6.003  24.582 -0.0144 -0.1927  0.1348
47847W        W56447   5.353   5.999  32.969  0.0734  0.2468 -0.1259
47848W        W56448  22.950   7.112   8.760  0.1874  0.0969 -0.1205
47849W        W56449   8.471   1.592  23.716  0.0234 -0.0884  0.0295
47850W        W56450  13.444   5.266  17.138  0.1250  0.0320  0.1874
47851W        W56451  22.741   4.601  13.765  0.1458  0.0641 -0.2274
47852W        W56452   9.917   5.637   1.809 -0.2900 -0.1094  0.0857
47853W        W56453   2.484   5.272   3.972 -0.0294  0.0886  0.1176
47854W        W56454  11.974   6.155  23.796  0.0000 -0.1562 -0.5122
47855W        W56455   8.070   4.816   9.659  0.2073 -0.1746  0.2268
47856W        W56456  10.231   6.087   6.896 -0.1232  0.3121  0.1443
47857W        W56457  13.292   3.835   1.732 -0.0429 -0.1698 -0.2758
47858W        W56458  14.063   6.365   2.557  0.0285 -0.1095 -0.2363
47859W        W56459   0.232   1.284  23.948 -0.1906  0.0944 -0.0212
47860W        W56460  18.126   0.961   0.112  0.2028  0.2016 -0.0226
47861W        W56461   3.875   2.873   2.414 -0.2308 -0.0167  0.0513
47862W        W56462  10.560   6.816  21.997 -0.0164 -0.0943  0.3291
47863W        W56463   0.898   3.814   2.342  0.1929 -0.1703 -0.1163
47864W        W56464  11.960   2.000  25.700  0.1904 -0.2903 -0.0048
47865W        W56465  24.806   0.754  26.388 -0.0726 -0.0805  0.1929
47866W        W56466  12.035   5.540   7.886 -0.0238 -0.1874  0.0668
47867W        W56467  14.548   1.045  29.922  0.0392 -0.1225 -0.2658
47868W        W56468   1.609   2.636  16.934  0.0489 -0.2651 -0.0547
47869W        W56469   4.153   2.016   8.105 -0.0845  0.1041  0.0621
47870W        W56470   8.751   6.254   2.132  0.1287 -0.0894 -0.2989
47871W        W56471  10.003   3.581   4.159 -0.1646  0.0969 -0.1061
47872W        W56472   8.795   0.774  11.397  0.0848  0.1151  0.2294
47873W        W56473  12.970   2.557   6.771 -0.1070 -0.1362 -0.2848
47874W        W56474   0.209   5.600  32.854 -0.1823 -0.1524 -0.0955
47875W        W56475   4.702   0.904  16.895  0.1500  0.3689  0.1409
47876W        W56476   4.521   1.248  13.057 -0.0897  0.1787  0.0910
47877W        W56477   7.264   0.912   0.354 -0.1957  0.0951  0.1619
47878W        W56478  24.196   5.214  29.693  0.0105  0.0147  0.0333
47879W        W56479  23.862   3.874   1.060  0.1765 -0.1131 -0.0758
47880W        W56480   5.017   0.980  10.728  0.0022  0.0876  0.0138
47881W        W56481  13.984   7.753   0.852  0.3520  0.0435 -0.1019
47882W        W56482   5.812   5.207  11.873  0.0580  0.0259 -0.0794
47883W        W56483  23.239   3.768  21.829  0.0316  0.2360  0.2695
47884W        W56484   7.475   3.177   3.991  0.1736 -0.2418  0.2031
47885W        W56485   6.632   6.110  16.953  0.3187 -0.2979 -0.1703
47886W        W56486  16.680   4.971   2.006  0.0438  0.2958 -0.1663
47887W        W56487  22.803   6.931  23.474 -0.0905  0.0233  0.2472
47888W        W56488  22.349   4.676   9.534 -0.2349  0.3636  0.1420
47889W        W56489  11.012   0.288  32.520 -0.2285 -0.0880  0.0358
47890W        W56490  11.318   7.316   3.305  0.0015  0.0558  0.0699
47891W        W56491   1.983   5.926   7.115  0.0890  0.2659 -0.1772
47892W        W56492   5.480   5.283  10.912 -0.0810 -0.0661  0.1647
47893W        W56493   3.530   4.121  15.030  0.2552 -0.0271  0.0857
47894W        W56494  22.555   4.500  10.786  0.2832 -0.1332 -0.1220
47895W        W56495  16.256   3.791   3.972 -0.2199  0.0926 -0.1351
47896W        W56496  17.789   0.473  23.705 -0.1712  0.3227 -0.0686
47897W        W56497  18.336   2.295  20.982 -0.0142  0.0532  0.1787
47898W        W56498  10.943   2.941   9.814 -0.0837  0.3202  0.1398
47899W        W56499  11.905   6.708  23.666  0.0707 -0.0613 -0.2663
47900W        W56500  12.820   2.860  21.455  0.1183  0.0004  0.1261
47901W        W56501  24.119   5.402  27.060  0.0736  0.1225 -0.1857
47902W        W56502  10.744   2.926  29.800 -0.2136 -0.1675  0.0409
47903W        W56503  23.157   4.575   7.226  0.0566 -0.0804 -0.0244
47904W        W56504  20.732   5.516   9.748  0.3256 -0.0995 -0.2057
47905W        W56505   2.250   1.066  10.043 -0.2088  0.1374  0.1073
47906W        W56506  20.527   7.390  27.372  0.1943 -0.2803 -0.1028
47907W        W56507  10.582   5.602   6.117 -0.3635  0.1238  0.0772
47908W        W56508   1.209   7.656   4.575 -0.5140  0.0461  0.0106
47909W        W56509   2.604   3.209  24.502  0.2924 -0.0501 -0.0509
47910W        W56510  14.789   6.055  20.307 -0.3479  0.1871 -0.2115
47911W        W56511  16.485   5.210   6.364  0.1953  0.0495 -0.4101
47912W        W56512   0.464   2.563  30.501  0.0457  0.1229 -0.2063
47913W        W56513   4.128   0.629   5.318 -0.1441 -0.0677 -0.1539
47914W        W56514  11.667   6.077  32.983  0.1570 -0.0703 -0.0228
47915W        W56515   9.537   1.203  29.261 -0.4722 -0.0771 -0.2268
47916W        W56516   0.713   4.045   7.943 -0.1412  0.0088 -0.1231
47917W        W56517  10.429   1.301  18.713  0.1230  0.2847  0.0488
47918W        W56518   0.262   4.584   1.596 -0.0245  0.0696  0.0667
47919W        W56519  20.196   7.056  27.740 -0.0007 -0.0416 -0.2350
47920W        W56520  10.560   3.631  21.606 -0.0725 -0.1298 -0.0188
47921W        W56521   1.465   2.104  25.622 -0.0223 -0.0237  0.0521
47922W        W56522  15.182   0.113  30.889  0.0271  0.1879  0.3061
47923W        W56523  10.707   6.127  24.937 -0.0478 -0.0339 -0.0399
47924W        W56524  12.562   2.253  21.499  0.0856 -0.0582  0.1230
47925W        W56525  11.415   5.618  29.613 -0.0608  0.0566 -0.1605
47926W        W56526   2.827   1.134  23.264  0.1598 -0.1020 -0.1502
47927W        W56527   9.547   1.072   1.349 -0.1852  0.1758  0.2187
47928W        W56528  18.281   3.576   9.904 -0.3166 -0.2800  0.3367
47929W        W56529  15.626   2.841  15.406 -0.0597 -0.2433 -0.3134
47930W        W56530   1.917   3.772  29.732 -0.1296 -0.1870  0.0839
47931W        W56531  14.248   3.045   5.044 -0.1118  0.0165  0.1533
47932W        W56532   4.099   0.548  24.725 -0.4421 -0.0881  0.1940
47933W        W56533  21.885   5.199   4.265  0.1725 -0.1042 -0.0859
47934W        W56534  10.021   2.972   1.426  0.2109 -0.1645  0.3047
47935W        W56535   6.038   1.996  28.998 -0.1932  0.0643  0.2629
47936W        W56536   9.694   2.579   7.411 -0.1953  0.0967 -0.0052
47937W        W56537   1.276   3.545  28.911  0.0077 -0.0253  0.2210
47938W        W56538  11.035   6.762  24.025  0.0466  0.1174 -0.2507
47939W        W56539  16.821   7.087  29.907  0.0154  0.0338 -0.1167
47940W        W56540   5.443   6.522  32.467  0.1683 -0.0168  0.0579
47941W        W56541  18.678   0.551   6.640 -0.1703 -0.0276 -0.2150
47942W        W56542   4.130   2.987  26.316  0.0617  0.0624 -0.2671
47943W        W56543   9.967   0.099  21.394 -0.0201  0.4229 -0.1309
47944W        W56544   3.814   2.796  25.542  0.1165 -0.0672  0.0086
47945W        W56545   4.334   1.066   2.563  0.1991 -0.2043 -0.1940
47946W        W56546  13.691   4.524  22.324 -0.0903 -0.2029 -0.2461
47947W        W56547   4.098   4.499  11.005 -0.0185 -0.1707  0.3781
47948W        W56548   8.748   7.296  32.818  0.0731 -0.2153  0.1769
47949W        W56549  17.163   1.950  32.657  0.1166  0.2107 -0.1070
47950W        W56550   5.171   6.779  25.916  0.0092 -0.0352 -0.0391
47951W        W56551  10.003   6.463  20.804 -0.1971  0.3037  0.0596
47952W        W56552  18.663   4.582  28.194  0.1602  0.0263  0.2061
47953W        W56553   5.388   2.494  29.223  0.0537 -0.0423 -0.1825
47954W        W56554   2.448   7.389  28.120 -0.2608  0.0798  0.2576
47955W        W56555   2.363   0.759   3.046  0.0459  0.0353  0.2303
47956W        W56556  14.755   2.495  14.944  0.1428 -0.0412 -0.0125
47957W        W56557   0.014   4.607  12.473 -0.2083 -0.0722  0.0549
47958W        W56558  15.990   2.623  15.702  0.1727 -0.2036  0.4767
47959W        W56559   7.223   7.536  25.413  0.1297  0.0563 -0.4466
47960W        W56560   7.119   0.929  23.871 -0.0589  0.0016  0.2101
47961W        W56561  16.850   2.323  15.278  0.3939 -0.1298  0.1046
47962W        W56562  15.182   1.336  21.426 -0.2049  0.0886  0.0691
47963W        W56563   7.760   2.639   5.553 -0.1720  0.0415 -0.0576
47964W        W56564   1.743   2.248   4.333 -0.1474  0.1170 -0.0309
47965W        W56565   1.049   1.593   2.860 -0.1575  0.1543 -0.0256
47966W        W56566   0.331   1.974   3.624 -0.1049  0.0291  0.0119
47967W        W56567  18.931   3.798  19.990 -0.0144  0.0982 -0.0008
47968W        W56568   0.472   5.422  10.093  0.1105  0.0447  0.1611
47969W        W56569   4.193   1.237  10.014 -0.1396 -0.1529 -0.2324
47970W        W56570  19.874   6.305  10.520 -0.0354  0.0284 -0.2225
47971W        W56571   2.696   5.064  15.272 -0.1385 -0.0311  0.0911
47972W        W56572  21.438   0.612  11.365  0.1207  0.5468 -0.0005
47973W        W56573   7.821   1.086   2.265 -0.2070  0.0419  0.0342
47974W        W56574  18.541   2.049  29.646 -0.4069 -0.0945 -0.4147
47975W        W56575   4.974   7.064  10.270  0.0927 -0.1163  0.0562
47976W        W56576   1.222   7.548  23.287 -0.0672  0.0966 -0.2241
47977W        W56577  17.543   6.456  29.464  0.2486  0.1995 -0.1191
47978W        W56578   5.921   7.086  12.156 -0.2272 -0.1468 -0.3778
47979W        W56579  23.444   5.243  32.281 -0.2126  0.0841 -0.1982
47980W        W56580   8.081   4.500  15.351  0.0564 -0.2957 -0.1036
47981W        W56581  22.832   7.510   6.581  0.0392  0.3030  0.2982
47982W        W56582  21.214   1.484  31.124 -0.1651 -0.1519 -0.0247
47983W        W56583  23.538   3.780  25.176  0.2283  0.0689  0.0590
47984W        W56584  15.992   7.393   9.433  0.0576  0.1199  0.0587
47985W        W56585   3.960   7.433  14.247 -0.0732 -0.0951  0.3382
47986W        W56586  14.525   4.328   6.302 -0.1082  0.1981 -0.0642
47987W        W56587   1.812   6.103   5.912 -0.1559  0.1630  0.0886
47988W        W56588  18.189   1.271  16.978  0.0912 -0.1792  0.0875
47989ION     NA56589   1.070   5.327  30.155 -0.2829 -0.0413 -0.4225
47990ION     NA56590   3.978   4.152  26.209 -0.0744 -0.0847  0.8962
47991ION     NA56591  22.013   3.830   6.759 -0.0357  0.5475 -0.3859
47992ION     NA56592  19.075   7.689   2.475  0.3794 -0.2609 -0.4156
47993ION     NA56593  18.949   2.808   2.669  0.4904 -0.1871  0.4239
47994ION     NA56594  15.271   6.082  18.253 -0.3439 -0.2963 -0.2871
47995ION     NA56595   2.640   5.974   6.899 -0.0472 -0.2431 -0.2207
47996ION     NA56596  13.413   7.723  23.630  0.0538 -0.3047  0.0078
47997ION     NA56597  23.252   0.776  25.351  0.5635 -0.0934  0.0413
47998ION     NA56598   2.644   2.827   6.507 -0.4484 -0.2251  0.5471
47999ION     NA56599  16.308   3.163   7.866 -0.4425  0.1070  0.4824
48000ION     NA56600  10.322   1.484   2.851  0.1575  0.1212  0.2650
48001ION     NA56601   9.520   1.049   2.214 -0.1477 -0.5092 -0.0350
48002ION     NA56602  20.444   4.436   2.611 -0.3423 -0.4080  0.1722
48003ION     NA56603  16.306   2.535  26.804 -0.2869  0.0227 -0.0330
48004ION     NA56604   5.034   2.292   6.714 -0.3648  0.3022 -0.2683
48005ION     NA56605  18.449   3.575  23.191 -0.1719  0.3670 -0.3851
48006ION     NA56606  16.911   3.570  16.436  0.3616 -0.0761 -0.3571
48007ION     NA56607  19.896   0.496   2.011 -0.0660  0.4413  0.2474
48008ION     NA56608   3.023   7.074  16.844 -0.3279 -0.1119  0.2639
48009ION     NA56609  22.243   1.832   8.704  0.5492 -0.2136  0.2039
48010ION     NA56610   9.420   1.570  25.467  0.3857 -0.2045 -0.0702
48011ION     NA56611  21.862   1.287  24.530 -0.3610  0.0883 -0.3629
48012ION     NA56612   0.091   7.068   8.539 -0.3733  0.1724 -0.2739
48013ION     NA56613  10.007   5.217  29.299 -0.0939 -0.2793 -0.1390
48014ION     NA56614  22.863   1.778  24.460  0.0339  0.6208 -0.1782
48015ION     NA56615  17.149   2.143  32.004 -0.3967  0.2223 -0.3379
48016ION     NA56616  19.355   5.536   3.252  0.3700 -0.1079 -0.4950
48017ION     NA56617  10.953   6.973   4.109 -0.0287  0.0650  0.1497
48018ION     NA56618  16.970   4.673   2.139  0.3981 -0.1303  0.1887
48019ION     NA56619  21.457   1.228   9.357  0.1884 -0.0229 -0.0193
48020ION     NA56620   5.929   1.781  11.939  0.1246  0.0243 -0.1100
48021ION     NA56621  20.895   3.439   4.722 -0.4393 -0.0331 -0.1728
48022ION     NA56622  14.983   6.591  16.568  0.3606  0.6831  0.0185
48023ION     NA56623  12.064   3.798   3.588 -0.0547 -0.0469 -0.1172
48024ION     NA56624   5.332   1.698  26.784 -0.1475 -0.1860  0.1345
48025ION     NA56625  11.221   0.939  10.967  0.1401  0.3110  0.2227
48026ION     NA56626  16.290   6.912  25.025  0.4374  0.0177 -0.0824
48027ION     NA56627  12.519   4.509  28.722  0.0417  0.5647 -0.0202
48028ION     NA56628   6.119   4.702  14.055 -0.0743 -0.6111  0.3540
48029ION     NA56629   1.925   6.463   9.163 -0.1967 -0.2240 -0.0073
48030ION     NA56630  11.934   3.335  24.582 -0.2544  0.0418  0.1372
48031ION     NA56631  15.444   6.419   9.673 -0.1488 -0.5352 -0.1067
48032ION     NA56632   5.402   4.669   6.176  0.0870 -0.5346 -0.1748
48033ION     NA56633   8.320   6.199  32.469  0.2450  0.3885  0.2570
48034ION     NA56634  18.501   5.896  23.889  0.2254 -0.2078 -0.2167
48035ION     NA56635  23.594   2.872   1.053  0.0619  0.3418  0.5340
48036ION     NA56636  22.440   3.197   0.733  0.0021 -0.0808 -0.0986
48037ION     NA56637  15.077   5.081  30.182  0.4190 -0.3606  0.6170
48038ION     NA56638  22.399   3.047  12.864 -0.1861  0.1491 -0.2347
48039ION     NA56639   5.713   2.501   5.073  0.0836 -0.0975 -0.6314
48040ION     NA56640  24.045   5.590  20.518 -0.0421  0.0328  0.1486
48041ION     NA56641  11.307   7.686  29.838  0.5311  0.1408 -0.1489
48042ION     NA56642  17.837   0.499  32.681 -0.2448 -0.1792  0.3592
48043ION     NA56643  21.623   0.374   8.655  0.3873 -0.1611 -0.5134
48044ION     NA56644  15.212   4.630   9.955  0.3678 -0.0549 -0.0404
48045ION     NA56645  20.955   5.759  10.715  0.0962 -0.1585  0.0519
48046ION     NA56646  14.854   3.529  27.966 -0.3678  0.2456  0.0472
48047ION     NA56647   1.917   1.011   4.817  0.2944  0.3288 -0.1607
48048ION     NA56648  10.126   6.280   3.942 -0.1476 -0.1187 -0.0862
48049ION     NA56649  17.899   7.737   0.898 -0.1091 -0.4752 -0.2906
48050ION     NA56650  10.790   1.543  31.910 -0.1840 -0.0972 -0.2591
48051ION     NA56651  20.021   3.041  18.250 -0.6373 -0.1013 -0.0097
48052ION     NA56652   9.230   6.008  26.833 -0.1796  0.1156 -0.0569
48053ION     NA56653  19.816   1.272   9.122  0.0812 -0.4661  0.0768
48054ION     NA56654   6.075   3.571  24.727  0.0112  0.2440  0.3349
48055ION     NA56655  18.148   2.761   2.472  0.2827 -0.1796 -0.1337
48056ION     NA56656  19.767   5.639  20.725 -0.1464  0.2318  0.2785
48057ION     NA56657  13.622   0.847  29.531  0.0642 -0.1143 -0.1718
48058ION     NA56658  17.084   2.306   4.410 -0.3695  0.1528 -0.1054
48059ION     NA56659  20.722   4.848   7.916 -0.2292  0.1170  0.1388
48060ION     NA56660  16.054   1.456  23.669 -0.1273 -0.0045 -0.0486
48061ION     NA56661  19.303   3.004   8.468 -0.2067  0.2935  0.3630
48062ION     NA56662   1.506   3.754  29.610  0.1047 -0.1333 -0.0277
48063ION     NA56663   9.109   4.464  29.332  0.1015  0.4333 -0.0065
48064ION     NA56664  16.714   4.578  25.100 -0.0246 -0.2085  0.1917
48065ION     NA56665  23.973   2.217  26.402 -0.3233 -0.1320  0.3745
48066ION     NA56666  19.037   6.690   0.013 -0.1003  0.1564 -0.0087
48067ION     NA56667  13.782   5.412  25.654  0.1763 -0.0646 -0.0681
48068ION     NA56668  10.210   4.456   2.053 -0.4127  0.2947  0.1903
48069ION     NA56669  13.073   2.431   4.820  0.0486 -0.4199  0.0246
48070ION     NA56670  18.679   3.142  21.968  0.0433 -0.1581 -0.3097
48071ION     NA56671  10.611   1.462  26.339 -0.3660  0.5147 -0.2852
48072ION     NA56672   8.341   2.627  14.138 -0.1004 -0.3488  0.4042
48073ION     NA56673  17.159   3.860   4.568 -0.2238  0.1409 -0.1554
48074ION     NA56674   2.321   3.170   9.064  0.4757 -0.1376  0.0204
48075ION     NA56675  14.407   2.983  20.411  0.0053 -0.0590 -0.2074
48076ION     NA56676  18.848   0.523   0.138 -0.4527  0.2355 -0.5063
48077ION     NA56677  13.938   7.773  30.640 -0.5772 -0.5324  0.1149
48078ION     NA56678   8.856   4.796  30.427 -0.3503 -0.0024 -0.1226
48079ION     NA56679   3.761   2.254   7.693 -0.2092  0.4258 -0.1470
48080ION     NA56680   0.488   0.087  14.095 -0.0108  0.0543  0.2257
48081ION     NA56681  12.962   7.505  30.857  0.5056  0.1400  0.2266
48082ION     NA56682  20.461   7.233  32.735 -0.1098  0.5306  0.5885
48083ION     NA56683  16.381   4.952   4.461 -0.1644  0.0724  0.4957
48084ION     NA56684   7.782   4.249  25.133  0.5166  0.3546 -0.0780
48085ION     NA56685   4.319   4.085  14.893 -0.1666 -0.2611  0.1017
48086ION     NA56686   2.003   2.536  17.417 -0.0030 -0.0433 -0.1131
48087ION     NA56687  20.625   2.045  11.400 -0.5116  0.3509  0.2713
48088ION     NA56688  10.559   5.371  12.802 -0.3039 -0.0232  0.2852
48089ION     NA56689  18.381   4.895  32.450  0.7071  0.0498  0.0632
48090ION     NA56690  13.570   6.294   3.862 -0.3053  0.0345 -0.1839
48091ION     NA56691  20.648   5.160  31.610  0.0314  0.3137 -0.0971
48092ION     NA56692  16.070   4.438  24.030  0.2163 -0.4278  0.2211
48093ION     NA56693  14.173   5.752  17.415 -0.1699  0.3567  0.2316
48094ION     NA56694  17.203   2.774  26.369  0.3486  0.3976 -0.3276
48095ION     NA56695  15.281   6.918  31.681 -0.1442  0.2662 -0.1151
48096ION     NA56696  17.229   3.235   1.020 -0.0274  0.0178  0.0061
48097ION     NA56697  11.314   1.646  11.423  0.0643  0.1722 -0.2646
48098ION     NA56698  16.336   6.292  28.321  0.0440  0.0063  0.1262
48099ION     NA56699  23.542   3.576   5.068 -0.2391  0.3218 -0.2991
48100ION     NA56700   7.111   4.640   4.565 -0.2853 -0.0447  0.2815
48101ION     NA56701  13.310   4.274  22.801  0.1398  0.2140 -0.2059
48102ION     NA56702  10.943   6.723  21.860  0.0385  0.5510  0.3231
48103ION     NA56703   0.434   5.954   7.307 -0.0818  0.1315 -0.4772
48104ION     NA56704   2.528   7.324   1.822 -0.2785  0.1150  0.1264
48105ION     NA56705  12.302   4.922  10.456  0.3114 -0.3194  0.1814
48106ION     NA56706   4.800   3.928   2.687 -0.0321  0.1503 -0.0605
48107ION     NA56707  24.747   6.762  13.936  0.0666  0.2351 -0.3099
48108ION     NA56708   9.113   1.375  25.919  0.3120  0.1953  0.1884
48109ION     NA56709   4.648   0.923   1.659  0.0760 -0.0976  0.3997
48110ION     NA56710   2.426   6.766  24.802 -0.2467 -0.2046  0.0768
48111ION     NA56711  19.269   5.685  16.370  0.2834 -0.1878  0.0248
48112ION     NA56712  21.395   5.362   6.909  0.4025 -0.4616  0.0096
48113ION     NA56713  17.840   7.347  23.888  0.0101  0.1904 -0.2242
48114ION     NA56714   7.767   4.686  23.240  0.3380 -0.0343 -0.1736
48115ION     NA56715  15.497   3.517   3.598  0.0081 -0.2379  0.2056
48116ION     NA56716  20.287   4.059  31.780 -0.1831  0.2462  0.0659
48117ION     NA56717  10.274   0.399  22.999  0.0763 -0.1235 -0.1711
48118ION     NA56718  23.351   3.708  11.096  0.1876  0.3169 -0.1720
48119ION     NA56719  22.933   2.139   7.764  0.4934  0.2979  0.2811
48120ION     NA56720  12.562   2.050  10.033  0.1520 -0.1169  0.6862
48121ION     NA56721  18.129   6.369   5.120  0.0491  0.1799  0.1070
48122ION     NA56722  15.923   3.775  23.476 -0.4839  0.1070  0.1804
48123ION     NA56723   8.340   6.220   5.316 -0.1309  0.0908 -0.1991
48124ION     NA56724   8.717   6.731   3.521 -0.3519 -0.1593  0.1361
48125ION     NA56725  18.571   4.623   5.441  0.1279  0.0527  0.0724
48126ION     NA56726  19.292   3.032  29.965  0.1150 -0.1914  0.1859
48127ION     NA56727  10.094   7.080  28.690  0.0899 -0.2838  0.0980
48128ION     NA56728  23.208   4.747   2.875  0.1763  0.3410 -0.0300
48129ION     NA56729  19.094   2.726  22.560 -0.0382  0.0987  0.0701
48130ION     NA56730  13.780   3.176   3.331  0.1692  0.0637  0.0041
48131ION     NA56731   8.519   1.339   4.405  0.0193 -0.1777 -0.3558
48132ION     NA56732   2.745   4.688   2.951 -0.3671 -0.0809  0.3294
48133ION     NA56733   4.827   2.707  30.903 -0.0124 -0.0476 -0.1783
48134ION     NA56734   5.413   0.154   9.780  0.0714 -0.0601  0.0528
48135ION     NA56735   5.888   6.710  28.157 -0.1781  0.0866  0.0883
48136ION     NA56736  21.623   1.697   4.821 -0.1118  0.1165  0.6028
48137ION     NA56737   7.268   7.570   9.737  0.2056  0.5247  0.3444
48138ION     NA56738   6.660   3.761  16.366 -0.1906 -0.2817 -0.4977
48139ION     NA56739   7.504   7.088   4.819 -0.4490 -0.0386  0.5807
48140ION     NA56740   9.668   5.150   2.867 -0.2482  0.0580  0.1766
48141ION     NA56741  19.490   6.876  17.438 -0.5523  0.2055  0.4507
48142ION     NA56742   4.359   6.878  27.676 -0.0813  0.5166 -0.0410
48143ION     NA56743   6.072   0.195   6.553  0.3386 -0.0942  0.2554
48144ION     NA56744  18.069   1.820  15.326  0.2317  0.0190 -0.2543
48145ION     NA56745   0.906   4.612  14.435  0.1733  0.1632  0.0127
48146ION     NA56746  17.491   7.510   5.682 -0.0500 -0.2082  0.1373
48147ION     NA56747   7.840   0.767  16.151 -0.5068 -0.3164  0.2586
48148ION     NA56748  12.764   1.466  18.891  0.0443  0.2769 -0.0946
48149ION     NA56749  16.647   1.807  25.847  0.2496 -0.0278  0.1849
48150ION     NA56750  14.285   7.607   5.684  0.3009 -0.0556 -0.0356
48151ION     NA56751  23.743   6.024  31.179  0.2996 -0.1151 -0.0248
48152ION     NA56752   1.751   7.129   4.235  0.1007 -0.3345  0.1537
48153ION     NA56753   8.619   1.975  27.046  0.0489 -0.3320 -0.1329
48154ION     NA56754  12.814   2.224   0.615 -0.0069 -0.3578 -0.1035
48155ION     NA56755  24.131   2.394  28.600 -0.4775  0.1672 -0.1207
48156ION     NA56756   4.984   6.642  16.813  0.2884  0.2999 -0.3604
48157ION     NA56757   3.453   5.062  12.069 -0.0329 -0.1707 -0.0634
48158ION     NA56758  21.313   4.329   8.695  0.3230 -0.4753  0.6462
48159ION     NA56759  12.234   2.662   6.835 -0.3481 -0.0457 -0.0902
48160ION     NA56760  19.809   5.485   7.769  0.0817  0.1266  0.0244
48161ION     NA56761  15.380   3.127  16.843  0.2558  0.2597 -0.0807
48162ION     NA56762  16.541   2.781   2.475 -0.4370  0.1758  0.2694
48163ION     NA56763  20.662   5.843  24.208 -0.0582  0.1843 -0.2613
48164ION     NA56764   3.686   5.678  18.125 -0.0872  0.2926 -0.0738
48165ION     NA56765  24.286   3.705   8.536  0.4913  0.1806 -0.0231
48166ION     NA56766   3.104   6.443  12.305 -0.1403 -0.0265  0.0037
48167ION     NA56767  21.677   3.279   2.062  0.4529  0.3782 -0.1478
48168ION     NA56768  16.713   2.174   1.490 -0.4136  0.0151 -0.0764
48169ION     NA56769  21.101   4.810   9.863 -0.3294  0.1178 -0.0387
48170ION     NA56770   0.080   4.412  31.473  0.1015  0.1970 -0.1335
48171ION     NA56771  15.289   1.762  23.444  0.2136  0.0983 -0.4291
48172ION     NA56772  23.281   1.502  23.942 -0.2320 -0.0059  0.2311
48173ION     NA56773  17.120   2.136  28.835 -0.0860  0.1804 -0.1288
48174ION     NA56774  17.575   6.487   0.007  0.0480  0.1582 -0.1650
48175ION     NA56775   6.724   3.551   7.281 -0.0002 -0.2309 -0.1406
48176ION     NA56776   8.849   0.807  29.069  0.2514 -0.0858  0.1325
48177ION     NA56777   2.448   6.764  29.745  0.3683 -0.2300  0.3109
48178ION     NA56778   5.072   1.524   9.377 -0.1976  0.0744 -0.1386
48179ION     NA56779  15.226   1.870   5.483 -0.4112 -0.0338 -0.1717
48180ION     NA56780   6.979   6.384  32.924  0.1471  0.1065 -0.0693
48181ION     NA56781   4.909   4.512  13.306 -0.1414 -0.1263 -0.0337
48182ION     NA56782  14.369   2.256  21.367 -0.0206  0.4289  0.0294
48183ION     NA56783  18.833   7.095   8.769  0.0739  0.3551  0.2949
48184ION     CL56784   2.975   0.537   3.474 -0.3076 -0.0538  0.3055
48185ION     CL56785  18.283   3.165  31.805  0.1182 -0.1572 -0.2476
48186ION     CL56786   8.968   4.973  10.584  0.3147  0.2048 -0.0214
48187ION     CL56787  19.562   7.454  25.685  0.4327 -0.3790 -0.1266
48188ION     CL56788   3.138   6.424  27.351 -0.3511  0.4526 -0.0360
48189ION     CL56789  19.381   2.066  22.336  0.2525 -0.0139 -0.1994
48190ION     CL56790   2.752   7.276  31.294  0.2137 -0.5584 -0.1928
48191ION     CL56791  22.862   0.387   1.064 -0.1736  0.3585 -0.3397
48192ION     CL56792  23.850   1.308   6.965 -0.8824 -0.1064  0.0444
48193ION     CL56793  18.180   7.795   0.109 -0.2135 -0.2368  0.3469
48194ION     CL56794  16.713   2.790   1.618  0.1987  0.3154  0.2749
48195ION     CL56795  18.226   5.629  23.379 -0.2756  0.0001  0.0239
48196ION     CL56796   0.668   2.134   8.090  0.1201 -0.5144 -0.1762
48197ION     CL56797  15.669   2.996  24.609  0.0376  0.4467  0.2563
48198ION     CL56798   7.522   2.560   5.161  0.3518  0.0684 -0.0478
48199ION     CL56799   0.509   2.913   2.942  0.0073 -0.3419  0.3452
48200ION     CL56800  24.100   3.525  10.278  0.2188  0.2048  0.4239
48201ION     CL56801   4.944   0.788   8.969  0.5931  0.1192 -0.3438
48202ION     CL56802  16.927   1.491  16.813  0.3118 -0.3619  0.0411
48203ION     CL56803   2.934   5.385   7.097  0.0048  0.0245 -0.1117
48204ION     CL56804  22.126   4.763  24.628 -0.3563 -0.7350 -0.1429
48205ION     CL56805  18.362   2.997   2.156 -0.2084  0.2318 -0.4052
48206ION     CL56806   8.193   1.336   2.131 -0.4043 -0.0086 -0.0724
48207ION     CL56807  23.251   5.808   2.838  0.1965  0.2940 -0.4599
48208ION     CL56808   5.433   2.063  27.258 -0.0157  0.0249 -0.0295
48209ION     CL56809  24.357   6.996  10.621  0.0738  0.4648 -0.3866
48210ION     CL56810  15.036   4.453  26.134 -0.2889  0.3647 -0.0723
48211ION     CL56811   0.466   0.754  15.191  0.1087  0.0272 -0.0471
48212ION     CL56812   3.732   0.173  29.265  0.2556 -0.3630 -0.1358
48213ION     CL56813   7.680   2.440   0.365  0.0593 -0.4233  0.1401
48214ION     CL56814   5.100   3.394   2.443  0.0745  0.1518  0.1719
48215ION     CL56815   4.261   7.425  13.923 -0.2588 -0.0690 -0.4677
48216ION     CL56816  19.683   7.407   7.491  0.3433  0.0254  0.1877
48217ION     CL56817   5.026   1.391   2.470 -0.4015 -0.1673  0.1613
48218ION     CL56818  19.327   2.338   2.558  0.1855  0.0129  0.0375
48219ION     CL56819  10.779   4.148   2.956 -0.4560 -0.2309 -0.0300
48220ION     CL56820  20.069   1.417   1.301  0.0490  0.0507  0.0686
48221ION     CL56821   9.466   5.909   1.191 -0.2413 -0.1016 -0.2182
48222ION     CL56822  10.667   4.715   5.954  0.1966 -0.2143  0.0910
48223ION     CL56823   0.866   3.864   9.825 -0.0080 -0.1585  0.1797
48224ION     CL56824  15.186   0.141  16.684  0.2111  0.2239 -0.2597
48225ION     CL56825  17.266   3.304  23.360  0.1722  0.4930 -0.0487
48226ION     CL56826   9.031   7.375   9.909 -0.2039  0.0421 -0.0541
48227ION     CL56827   5.125   3.781   2.700 -0.0806  0.4163  0.1505
48228ION     CL56828  18.488   0.668  16.944  0.2793  0.0378 -0.1341
48229ION     CL56829  19.380   1.454  25.998 -0.2777  0.0673 -0.1215
48230ION     CL56830  15.966   3.768  23.129  0.1564 -0.1078  0.4047
48231ION     CL56831  13.750   1.561   6.547  0.1660 -0.1599 -0.3686
48232ION     CL56832  10.367   5.549  10.610 -0.0158  0.1104 -0.1839
48233ION     CL56833  14.056   3.275   7.038 -0.2197  0.0673  0.0204
48234ION     CL56834   3.405   0.845  15.063 -0.2525  0.0867  0.1756
48235ION     CL56835  21.192   6.175  11.323  0.1982 -0.3365  0.1868
48236ION     CL56836   2.562   1.084   2.792 -0.0731 -0.0813  0.1943
48237ION     CL56837   9.131   7.728  10.836 -0.1425  0.4511  0.0421
48238ION     CL56838  11.144   7.789  31.656  0.0150 -0.1079  0.4589
48239ION     CL56839   3.431   2.274   5.951 -0.3252  0.4711  0.2558
48240ION     CL56840   8.588   6.617  32.887  0.1626  0.2480  0.6912
48241ION     CL56841   6.063   3.471   3.681 -0.1250 -0.1008  0.2067
48242ION     CL56842  23.175   3.812  10.809  0.5479 -0.0914 -0.1293
48243ION     CL56843   6.688   3.954  15.939 -0.0360 -0.0918 -0.0681
48244ION     CL56844  20.111   5.827   9.831 -0.0212  0.2486 -0.0313
48245ION     CL56845   6.342   1.823  26.331  0.3631  0.0160  0.1104
48246ION     CL56846  18.038   5.818  29.504  0.0723 -0.1295 -0.3933
48247ION     CL56847   5.094   5.072  24.482 -0.0495 -0.3134 -0.0177
48248ION     CL56848   8.231   1.072   6.504  0.0904  0.2961 -0.3773
48249ION     CL56849  13.844   0.591  19.532 -0.2316 -0.1047  0.0006
48250ION     CL56850   5.785   6.731  24.758 -0.0136 -0.1456 -0.2052
48251ION     CL56851   8.792   4.830   7.210  0.1879  0.0481 -0.4567
48252ION     CL56852  20.177   0.339   4.483  0.0987  0.0086 -0.3046
48253ION     CL56853  14.799   2.839  21.383  0.0880 -0.5562 -0.0546
48254ION     CL56854  19.489   1.863   9.175  0.0185  0.2414  0.4196
48255ION     CL56855   4.966   5.146  30.835 -0.0962 -0.4056  0.2251
48256ION     CL56856  10.971   2.156  25.555  0.1966 -0.3265 -0.3012
48257ION     CL56857  17.464   5.918   5.086  0.4227 -0.1617 -0.5418
48258ION     CL56858  12.993   4.242   2.453  0.0208  0.1931 -0.5912
48259ION     CL56859  14.637   2.812  20.041  0.3110  0.3090 -0.5639
48260ION     CL56860  10.762   7.298   6.948  0.4579  0.1341  0.4218
48261ION     CL56861  18.621   4.483   4.062  0.0428  0.1093  0.1193
48262ION     CL56862   5.473   0.793  26.285 -0.1944  0.2934  0.1625
48263ION     CL56863   5.704   0.179   6.476  0.0057  0.0563  0.1871
48264ION     CL56864   4.840   5.569   7.034 -0.2281  0.2271  0.0338
48265ION     CL56865   1.927   5.862  31.082  0.2688 -0.1000  0.2322
48266ION     CL56866   6.481   4.566   5.443 -0.1826  0.0147  0.2401
48267ION     CL56867   3.574   1.238   0.831  0.2277 -0.1143 -0.7545
48268ION     CL56868  19.783   1.679  27.859  0.3277  0.1295 -0.1156
48269ION     CL56869   5.867   2.957  13.050 -0.0662 -0.1537  0.1758
48270ION     CL56870  22.103   1.327   3.206  0.1421 -0.0380  0.1226
48271ION     CL56871  24.274   4.507  31.786 -0.1020  0.0800 -0.1214
48272ION     CL56872   4.323   4.938  31.392 -0.0697  0.2505 -0.0839
48273ION     CL56873  18.006   1.307  31.952 -0.4199  0.1427 -0.2073
48274ION     CL56874  14.329   4.043   9.320  0.6669  0.0654 -0.2151
48275ION     CL56875  15.499   2.029   2.150 -0.3502 -0.2032 -0.2380
48276ION     CL56876  17.844   7.502   0.692 -0.4303 -0.0202  0.3016
48277ION     CL56877  15.694   1.440  21.770  0.3101  0.2462 -0.5055
48278ION     CL56878   3.369   2.891  25.651 -0.1761  0.1985  0.2776
48279ION     CL56879   7.259   3.647   8.375  0.2549  0.1327  0.0596
48280ION     CL56880  17.354   2.975  16.773 -0.1294  0.1009 -0.1135
48281ION     CL56881  10.135   6.659   2.262  0.0723  0.5053 -0.4395
48282ION     CL56882  17.856   7.640   5.589  0.3203 -0.1562 -0.0947
48283ION     CL56883   1.460   5.238  32.792 -0.0096  0.2393 -0.1472
48284ION     CL56884  10.071   0.127  25.623  0.3031 -0.0256 -0.1065
48285ION     CL56885   2.080   0.776   5.666 -0.0974 -0.1511 -0.1270
48286ION     CL56886   6.157   5.943  28.988 -0.0280  0.2592 -0.1567
48287ION     CL56887  16.721   2.955   0.508 -0.0146  0.0097  0.1385
48288ION     CL56888   4.606   6.841  23.590  0.0863  0.1560 -0.3774
48289ION     CL56889   6.932   3.453   6.199  0.2358 -0.3044  0.0110
48290ION     CL56890   1.802   6.699   8.049  0.0551  0.5457  0.1233
48291ION     CL56891   1.613   3.064   4.526 -0.2642  0.3268  0.0854
48292ION     CL56892  18.940   6.132  17.616  0.2328  0.1343 -0.2490
48293ION     CL56893  18.582   6.226  16.401 -0.0499 -0.2465  0.0408
48294ION     CL56894  20.762   4.233   3.055 -0.0191 -0.1134  0.0092
48295ION     CL56895  20.228   3.237  18.048  0.3832  0.2031  0.1667
48296ION     CL56896   7.595   6.576  23.028 -0.1814  0.3056 -0.1191
48297ION     CL56897  17.449   3.504  24.157  0.0067 -0.3728  0.3257
48298ION     CL56898  15.286   3.058  25.331 -0.1095 -0.1055 -0.3633
48299ION     CL56899   1.926   6.366  29.224  0.1913  0.2209  0.0987
48300ION     CL56900  13.720   4.103   0.128  0.3510 -0.6704 -0.4042
48301ION     CL56901  21.456   5.446  19.415 -0.4402  0.1744 -0.1417
48302ION     CL56902   4.773   3.642  25.882  0.2074  0.0366 -0.1243
48303ION     CL56903  22.031   0.244  30.557 -0.0266 -0.2826 -0.2208
48304ION     CL56904   9.081   6.178  22.867  0.3029 -0.6146  0.0097
48305ION     CL56905  10.466   0.072   1.144  0.1622 -0.0010  0.2716
48306ION     CL56906   5.262   1.588  26.459  0.5033  0.3975 -0.1412
48307ION     CL56907   3.578   0.711   1.425  0.1993 -0.2321 -0.2775
48308ION     CL56908  23.843   5.870  28.270  0.1591  0.0508  0.4976
48309ION     CL56909  20.106   7.077  32.719  0.2629  0.0637  0.1088
48310ION     CL56910   1.336   2.277  10.494  0.3612  0.1998 -0.0816
48311ION     CL56911  21.396   2.056   1.631 -0.3514 -0.0273  0.0581
48312ION     CL56912  10.516   5.412   0.557 -0.0864  0.0107 -0.1515
48313ION     CL56913  15.009   0.496  17.753 -0.2961 -0.2401  0.2212
48314ION     CL56914  23.747   4.828   7.734  0.2419 -0.2613 -0.2199
48315ION     CL56915   3.569   5.059   8.153 -0.2605  0.1416  0.1223
48316ION     CL56916   6.430   0.139  25.802  0.0175  0.0754  0.2652
48317ION     CL56917  14.912   0.198  31.499 -0.1308  0.1571 -0.0915
48318ION     CL56918   1.304   0.865  29.790 -0.3216 -0.0774  0.1544
48319ION     CL56919  12.711   4.436  24.356 -0.2588 -0.2355  0.3722
48320ION     CL56920   0.903   1.461   8.685  0.0696  0.0314 -0.1186
48321ION     CL56921   4.360   0.530  14.985 -0.3337  0.1115  0.0839
48322ION     CL56922  16.519   2.336   4.715 -0.2913 -0.5209 -0.0892
48323ION     CL56923  21.522   3.712   6.194  0.2711  0.4271  0.2410
48324ION     CL56924   3.384   2.758   2.165  0.2261  0.5590 -0.3896
48325ION     CL56925  13.655   6.964  20.630  0.1109  0.3317  0.2149
48326ION     CL56926  15.179   7.288   0.301 -0.1807  0.1891 -0.0434
48327ION     CL56927  10.968   3.523  30.510 -0.0247  0.0015  0.3418
48328ION     CL56928  11.326   4.816  29.999  0.3790  0.0473  0.0850
  24.96512   7.80124  33.04548
